GROningen MAchine for Chemical Simulation
95940
    1G5    HO5'    1   6.370   4.258   2.702
    1G5     O5'    2   6.398   4.269   2.793
    1G5     C5'    3   6.531   4.309   2.787
    1G5     H5'    4   6.579   4.254   2.705
    1G5    H5''    5   6.580   4.306   2.885
    1G5     C4'    6   6.548   4.462   2.747
    1G5     H4'    7   6.655   4.482   2.737
    1G5     O4'    8   6.478   4.484   2.631
    1G5     C1'    9   6.430   4.619   2.622
    1G5     H1'   10   6.498   4.678   2.561
    1G5      N9   11   6.294   4.622   2.578
    1G5      C8   12   6.216   4.516   2.541
    1G5      H8   13   6.253   4.415   2.529
    1G5      N7   14   6.091   4.549   2.514
    1G5      C5   15   6.088   4.683   2.542
    1G5      C6   16   5.978   4.778   2.543
    1G5      O6   17   5.859   4.753   2.529
    1G5      N1   18   6.016   4.915   2.563
    1G5      H1   19   5.946   4.987   2.551
    1G5      C2   20   6.137   4.944   2.620
    1G5      N2   21   6.154   5.067   2.662
    1G5     H21   22   6.086   5.137   2.637
    1G5     H22   23   6.248   5.097   2.683
    1G5      N3   24   6.242   4.861   2.614
    1G5      C4   25   6.219   4.729   2.570
    1G5     C3'   26   6.479   4.547   2.853
    1G5     H3'   27   6.392   4.495   2.891
    1G5     C2'   28   6.442   4.663   2.771
    1G5     H2'   29   6.346   4.697   2.809
    1G5     O2'   30   6.536   4.771   2.777
    1G5    HO2'   31   6.577   4.767   2.863
    1G5     O3'   32   6.581   4.573   2.947
    2G        P   33   6.542   4.606   3.089
    2G      OP1   34   6.666   4.661   3.155
    2G      OP2   35   6.465   4.497   3.146
    2G      O5'   36   6.444   4.732   3.088
    2G      C5'   37   6.484   4.866   3.111
    2G      H5'   38   6.565   4.900   3.047
    2G     H5''   39   6.516   4.860   3.215
    2G      C4'   40   6.355   4.948   3.094
    2G      H4'   41   6.374   5.056   3.099
    2G      O4'   42   6.300   4.910   2.970
    2G      C1'   43   6.156   4.919   2.981
    2G      H1'   44   6.118   4.987   2.905
    2G       N9   45   6.086   4.790   2.958
    2G       C8   46   6.116   4.665   3.006
    2G       H8   47   6.208   4.640   3.058
    2G       N7   48   6.032   4.572   2.978
    2G       C5   49   5.918   4.653   2.936
    2G       C6   50   5.787   4.624   2.893
    2G       O6   51   5.737   4.507   2.893
    2G       N1   52   5.706   4.726   2.849
    2G       H1   53   5.615   4.705   2.810
    2G       C2   54   5.762   4.844   2.816
    2G       N2   55   5.682   4.938   2.786
    2G      H21   56   5.592   4.910   2.750
    2G      H22   57   5.716   5.033   2.783
    2G       N3   58   5.885   4.883   2.852
    2G       C4   59   5.959   4.783   2.910
    2G      C3'   60   6.244   4.915   3.191
    2G      H3'   61   6.232   4.809   3.212
    2G      C2'   62   6.122   4.970   3.117
    2G      H2'   63   6.033   4.919   3.152
    2G      O2'   64   6.125   5.110   3.105
    2G     HO2'   65   6.153   5.137   3.193
    2G      O3'   66   6.260   4.990   3.315
    3G        P   67   6.168   4.954   3.445
    3G      OP1   68   6.206   5.035   3.557
    3G      OP2   69   6.169   4.808   3.454
    3G      O5'   70   6.012   4.992   3.412
    3G      C5'   71   5.963   5.121   3.404
    3G      H5'   72   6.014   5.181   3.328
    3G     H5''   73   5.960   5.172   3.500
    3G      C4'   74   5.821   5.096   3.352
    3G      H4'   75   5.766   5.190   3.338
    3G      O4'   76   5.822   5.013   3.232
    3G      C1'   77   5.719   4.912   3.240
    3G      H1'   78   5.658   4.928   3.151
    3G       N9   79   5.771   4.774   3.227
    3G       C8   80   5.871   4.712   3.289
    3G       H8   81   5.951   4.765   3.338
    3G       N7   82   5.866   4.579   3.295
    3G       C5   83   5.745   4.554   3.224
    3G       C6   84   5.669   4.430   3.194
    3G       O6   85   5.702   4.313   3.221
    3G       N1   86   5.550   4.455   3.134
    3G       H1   87   5.489   4.378   3.108
    3G       C2   88   5.500   4.576   3.109
    3G       N2   89   5.368   4.584   3.086
    3G      H21   90   5.313   4.501   3.071
    3G      H22   91   5.340   4.670   3.041
    3G       N3   92   5.561   4.686   3.147
    3G       C4   93   5.687   4.670   3.192
    3G      C3'   94   5.737   5.014   3.453
    3G      H3'   95   5.802   4.940   3.501
    3G      C2'   96   5.636   4.938   3.365
    3G      H2'   97   5.609   4.842   3.408
    3G      O2'   98   5.526   5.023   3.325
    3G     HO2'   99   5.450   4.971   3.296
    3G      O3'  100   5.675   5.084   3.555
    4U        P  101   5.620   5.022   3.685
    4U      OP1  102   5.571   5.129   3.771
    4U      OP2  103   5.731   4.946   3.740
    4U      O5'  104   5.496   4.920   3.653
    4U      C5'  105   5.374   4.971   3.598
    4U      H5'  106   5.398   5.049   3.526
    4U     H5''  107   5.317   5.007   3.684
    4U      C4'  108   5.288   4.871   3.529
    4U      H4'  109   5.201   4.915   3.480
    4U      O4'  110   5.349   4.782   3.429
    4U      C1'  111   5.307   4.646   3.444
    4U      H1'  112   5.277   4.602   3.349
    4U       N1  113   5.410   4.555   3.491
    4U       C6  114   5.523   4.598   3.549
    4U       H6  115   5.535   4.703   3.569
    4U       C5  116   5.630   4.520   3.590
    4U       H5  117   5.717   4.557   3.642
    4U       C4  118   5.620   4.381   3.560
    4U       O4  119   5.704   4.295   3.590
    4U       N3  120   5.503   4.341   3.497
    4U       H3  121   5.493   4.246   3.463
    4U       C2  122   5.399   4.421   3.455
    4U       O2  123   5.311   4.368   3.387
    4U      C3'  124   5.240   4.770   3.629
    4U      H3'  125   5.310   4.740   3.706
    4U      C2'  126   5.193   4.645   3.547
    4U      H2'  127   5.205   4.559   3.613
    4U      O2'  128   5.061   4.657   3.498
    4U     HO2'  129   5.019   4.726   3.551
    4U      O3'  130   5.115   4.816   3.694
    5U        P  131   5.060   4.752   3.823
    5U      OP1  132   5.008   4.855   3.906
    5U      OP2  133   5.154   4.649   3.879
    5U      O5'  134   4.932   4.671   3.794
    5U      C5'  135   4.812   4.726   3.749
    5U      H5'  136   4.840   4.792   3.667
    5U     H5''  137   4.763   4.790   3.821
    5U      C4'  138   4.711   4.621   3.704
    5U      H4'  139   4.614   4.670   3.699
    5U      O4'  140   4.751   4.576   3.578
    5U      C1'  141   4.695   4.447   3.563
    5U      H1'  142   4.618   4.461   3.487
    5U       N1  143   4.795   4.338   3.530
    5U       C6  144   4.927   4.345   3.562
    5U       H6  145   4.960   4.427   3.624
    5U       C5  146   5.015   4.256   3.510
    5U       H5  147   5.121   4.261   3.532
    5U       C4  148   4.976   4.139   3.439
    5U       O4  149   5.053   4.049   3.399
    5U       N3  150   4.844   4.139   3.409
    5U       H3  151   4.814   4.061   3.353
    5U       C2  152   4.754   4.224   3.458
    5U       O2  153   4.637   4.208   3.442
    5U      C3'  154   4.691   4.501   3.795
    5U      H3'  155   4.788   4.461   3.827
    5U      C2'  156   4.630   4.405   3.699
    5U      H2'  157   4.651   4.300   3.719
    5U      O2'  158   4.491   4.416   3.702
    5U     HO2'  159   4.474   4.485   3.765
    5U      O3'  160   4.607   4.516   3.918
    6A        P  161   4.639   4.429   4.050
    6A      OP1  162   4.524   4.448   4.144
    6A      OP2  163   4.774   4.466   4.087
    6A      O5'  164   4.645   4.281   3.996
    6A      C5'  165   4.533   4.200   3.986
    6A      H5'  166   4.474   4.249   3.909
    6A     H5''  167   4.480   4.189   4.080
    6A      C4'  168   4.577   4.059   3.943
    6A      H4'  169   4.486   4.001   3.926
    6A      O4'  170   4.645   4.060   3.817
    6A      C1'  171   4.751   3.961   3.813
    6A      H1'  172   4.748   3.900   3.723
    6A       N9  173   4.882   4.018   3.800
    6A       C8  174   4.914   4.145   3.839
    6A       H8  175   4.845   4.216   3.881
    6A       N7  176   5.038   4.169   3.825
    6A       C5  177   5.096   4.053   3.764
    6A       C6  178   5.217   4.023   3.699
    6A       N6  179   5.319   4.105   3.683
    6A      H61  180   5.411   4.088   3.646
    6A      H62  181   5.311   4.189   3.738
    6A       N1  182   5.231   3.905   3.640
    6A       C2  183   5.132   3.820   3.639
    6A       H2  184   5.163   3.730   3.587
    6A       N3  185   5.014   3.833   3.691
    6A       C4  186   4.998   3.958   3.749
    6A      C3'  187   4.670   3.986   4.039
    6A      H3'  188   4.747   4.059   4.064
    6A      C2'  189   4.735   3.878   3.942
    6A      H2'  190   4.827   3.840   3.986
    6A      O2'  191   4.642   3.764   3.914
    6A     HO2'  192   4.690   3.681   3.902
    6A      O3'  193   4.595   3.926   4.153
    7G        P  194   4.668   3.915   4.292
    7G      OP1  195   4.580   3.845   4.387
    7G      OP2  196   4.702   4.051   4.317
    7G      O5'  197   4.792   3.826   4.269
    7G      C5'  198   4.779   3.683   4.266
    7G      H5'  199   4.703   3.667   4.190
    7G     H5''  200   4.754   3.654   4.368
    7G      C4'  201   4.908   3.621   4.226
    7G      H4'  202   4.894   3.513   4.237
    7G      O4'  203   4.948   3.654   4.089
    7G      C1'  204   5.091   3.660   4.091
    7G      H1'  205   5.132   3.590   4.019
    7G       N9  206   5.137   3.793   4.057
    7G       C8  207   5.080   3.906   4.088
    7G       H8  208   4.979   3.901   4.126
    7G       N7  209   5.147   4.017   4.069
    7G       C5  210   5.263   3.971   4.012
    7G       C6  211   5.385   4.037   3.975
    7G       O6  212   5.412   4.157   3.985
    7G       N1  213   5.482   3.952   3.927
    7G       H1  214   5.571   3.996   3.906
    7G       C2  215   5.461   3.814   3.916
    7G       N2  216   5.567   3.746   3.892
    7G      H21  217   5.659   3.788   3.886
    7G      H22  218   5.555   3.646   3.897
    7G       N3  219   5.357   3.744   3.962
    7G       C4  220   5.259   3.828   4.009
    7G      C3'  221   5.028   3.657   4.315
    7G      H3'  222   5.039   3.764   4.330
    7G      C2'  223   5.140   3.609   4.224
    7G      H2'  224   5.235   3.655   4.254
    7G      O2'  225   5.154   3.469   4.227
    7G     HO2'  226   5.124   3.438   4.313
    7G      O3'  227   5.035   3.593   4.438
    8G        P  228   5.112   3.639   4.565
    8G      OP1  229   5.122   3.534   4.672
    8G      OP2  230   5.064   3.774   4.606
    8G      O5'  231   5.256   3.662   4.514
    8G      C5'  232   5.358   3.557   4.515
    8G      H5'  233   5.316   3.481   4.449
    8G     H5''  234   5.376   3.529   4.619
    8G      C4'  235   5.497   3.608   4.458
    8G      H4'  236   5.569   3.527   4.446
    8G      O4'  237   5.486   3.671   4.330
    8G      C1'  238   5.591   3.772   4.317
    8G      H1'  239   5.658   3.768   4.231
    8G       N9  240   5.529   3.911   4.306
    8G       C8  241   5.401   3.943   4.304
    8G       H8  242   5.322   3.871   4.322
    8G       N7  243   5.377   4.073   4.283
    8G       C5  244   5.507   4.124   4.267
    8G       C6  245   5.548   4.254   4.250
    8G       O6  246   5.474   4.353   4.236
    8G       N1  247   5.684   4.265   4.236
    8G       H1  248   5.717   4.359   4.224
    8G       C2  249   5.775   4.162   4.252
    8G       N2  250   5.905   4.185   4.232
    8G      H21  251   5.936   4.281   4.229
    8G      H22  252   5.965   4.104   4.232
    8G       N3  253   5.736   4.042   4.280
    8G       C4  254   5.601   4.026   4.290
    8G      C3'  255   5.563   3.707   4.548
    8G      H3'  256   5.495   3.789   4.572
    8G      C2'  257   5.671   3.763   4.446
    8G      H2'  258   5.693   3.861   4.486
    8G      O2'  259   5.798   3.698   4.438
    8G     HO2'  260   5.867   3.764   4.443
    8G      O3'  261   5.605   3.647   4.665
    9G        P  262   5.598   3.715   4.808
    9G      OP1  263   5.661   3.625   4.912
    9G      OP2  264   5.458   3.775   4.828
    9G      O5'  265   5.703   3.834   4.802
    9G      C5'  266   5.843   3.819   4.781
    9G      H5'  267   5.852   3.780   4.679
    9G     H5''  268   5.890   3.754   4.854
    9G      C4'  269   5.917   3.954   4.784
    9G      H4'  270   6.026   3.941   4.790
    9G      O4'  271   5.885   4.015   4.658
    9G      C1'  272   5.876   4.152   4.674
    9G      H1'  273   5.944   4.203   4.606
    9G       N9  274   5.740   4.189   4.627
    9G       C8  275   5.637   4.106   4.614
    9G       H8  276   5.637   4.002   4.643
    9G       N7  277   5.522   4.161   4.578
    9G       C5  278   5.552   4.297   4.567
    9G       C6  279   5.466   4.416   4.545
    9G       O6  280   5.347   4.420   4.516
    9G       N1  281   5.532   4.536   4.557
    9G       H1  282   5.485   4.625   4.547
    9G       C2  283   5.661   4.539   4.590
    9G       N2  284   5.722   4.651   4.568
    9G      H21  285   5.680   4.735   4.529
    9G      H22  286   5.823   4.649   4.573
    9G       N3  287   5.743   4.439   4.622
    9G       C4  288   5.686   4.314   4.606
    9G      C3'  289   5.878   4.059   4.890
    9G      H3'  290   5.769   4.064   4.895
    9G      C2'  291   5.923   4.185   4.813
    9G      H2'  292   5.872   4.273   4.852
    9G      O2'  293   6.066   4.204   4.801
    9G     HO2'  294   6.111   4.155   4.871
    9G      O3'  295   5.942   4.036   5.016
   10U        P  296   5.873   4.086   5.147
   10U      OP1  297   5.980   4.083   5.248
   10U      OP2  298   5.759   3.999   5.172
   10U      O5'  299   5.821   4.238   5.118
   10U      C5'  300   5.899   4.345   5.156
   10U      H5'  301   5.996   4.345   5.106
   10U     H5''  302   5.904   4.347   5.265
   10U      C4'  303   5.834   4.481   5.122
   10U      H4'  304   5.891   4.568   5.157
   10U      O4'  305   5.804   4.492   4.986
   10U      C1'  306   5.679   4.564   4.973
   10U      H1'  307   5.692   4.649   4.906
   10U       N1  308   5.565   4.480   4.927
   10U       C6  309   5.557   4.341   4.934
   10U       H6  310   5.642   4.287   4.974
   10U       C5  311   5.456   4.270   4.879
   10U       H5  312   5.455   4.162   4.879
   10U       C4  313   5.345   4.337   4.820
   10U       O4  314   5.251   4.279   4.768
   10U       N3  315   5.350   4.469   4.825
   10U       H3  316   5.284   4.530   4.780
   10U       C2  317   5.461   4.539   4.862
   10U       O2  318   5.455   4.657   4.837
   10U      C3'  319   5.699   4.508   5.197
   10U      H3'  320   5.635   4.421   5.182
   10U      C2'  321   5.641   4.613   5.110
   10U      H2'  322   5.532   4.608   5.117
   10U      O2'  323   5.677   4.747   5.136
   10U     HO2'  324   5.664   4.764   5.229
   10U      O3'  325   5.716   4.536   5.341
   11U        P  326   5.594   4.587   5.427
   11U      OP1  327   5.631   4.552   5.565
   11U      OP2  328   5.475   4.521   5.379
   11U      O5'  329   5.565   4.737   5.404
   11U      C5'  330   5.633   4.843   5.465
   11U      H5'  331   5.735   4.845   5.428
   11U     H5''  332   5.643   4.834   5.573
   11U      C4'  333   5.567   4.979   5.431
   11U      H4'  334   5.623   5.057   5.482
   11U      O4'  335   5.549   5.000   5.286
   11U      C1'  336   5.431   5.081   5.251
   11U      H1'  337   5.447   5.179   5.205
   11U       N1  338   5.351   5.004   5.157
   11U       C6  339   5.350   4.867   5.150
   11U       H6  340   5.404   4.800   5.216
   11U       C5  341   5.277   4.807   5.055
   11U       H5  342   5.277   4.699   5.053
   11U       C4  343   5.203   4.880   4.955
   11U       O4  344   5.132   4.828   4.870
   11U       N3  345   5.204   5.017   4.973
   11U       H3  346   5.146   5.075   4.914
   11U       C2  347   5.269   5.080   5.074
   11U       O2  348   5.253   5.199   5.082
   11U      C3'  349   5.419   4.988   5.471
   11U      H3'  350   5.376   4.896   5.431
   11U      C2'  351   5.372   5.111   5.386
   11U      H2'  352   5.263   5.100   5.385
   11U      O2'  353   5.421   5.239   5.437
   11U     HO2'  354   5.360   5.266   5.507
   11U      O3'  355   5.392   5.018   5.604
   12A        P  356   5.256   4.985   5.672
   12A      OP1  357   5.152   4.974   5.566
   12A      OP2  358   5.230   5.088   5.775
   12A      O5'  359   5.263   4.850   5.750
   12A      C5'  360   5.174   4.746   5.725
   12A      H5'  361   5.183   4.707   5.624
   12A     H5''  362   5.068   4.765   5.744
   12A      C4'  363   5.188   4.634   5.834
   12A      H4'  364   5.102   4.569   5.819
   12A      O4'  365   5.309   4.559   5.824
   12A      C1'  366   5.388   4.559   5.944
   12A      H1'  367   5.435   4.462   5.961
   12A       N9  368   5.483   4.672   5.942
   12A       C8  369   5.534   4.743   5.837
   12A       H8  370   5.502   4.724   5.735
   12A       N7  371   5.604   4.844   5.864
   12A       C5  372   5.607   4.845   6.006
   12A       C6  373   5.675   4.921   6.103
   12A       N6  374   5.759   5.016   6.065
   12A      H61  375   5.794   5.073   6.140
   12A      H62  376   5.790   5.027   5.970
   12A       N1  377   5.658   4.899   6.237
   12A       C2  378   5.575   4.797   6.264
   12A       H2  379   5.578   4.772   6.369
   12A       N3  380   5.509   4.715   6.187
   12A       C4  381   5.533   4.741   6.055
   12A      C3'  382   5.186   4.676   5.982
   12A      H3'  383   5.236   4.771   6.002
   12A      C2'  384   5.278   4.570   6.044
   12A      H2'  385   5.314   4.605   6.140
   12A      O2'  386   5.213   4.445   6.059
   12A     HO2'  387   5.135   4.456   6.114
   12A      O3'  388   5.066   4.664   6.055
   13G        P  389   4.961   4.784   6.078
   13G      OP1  390   4.822   4.735   6.100
   13G      OP2  391   4.977   4.887   5.976
   13G      O5'  392   5.023   4.856   6.210
   13G      C5'  393   4.988   4.816   6.342
   13G      H5'  394   5.001   4.708   6.346
   13G     H5''  395   4.886   4.849   6.364
   13G      C4'  396   5.086   4.867   6.453
   13G      H4'  397   5.057   4.812   6.542
   13G      O4'  398   5.227   4.854   6.424
   13G      C1'  399   5.296   4.970   6.449
   13G      H1'  400   5.394   4.962   6.496
   13G       N9  401   5.313   5.050   6.328
   13G       C8  402   5.304   5.008   6.197
   13G       H8  403   5.266   4.909   6.179
   13G       N7  404   5.340   5.091   6.099
   13G       C5  405   5.378   5.200   6.177
   13G       C6  406   5.431   5.321   6.134
   13G       O6  407   5.443   5.360   6.019
   13G       N1  408   5.488   5.396   6.244
   13G       H1  409   5.562   5.461   6.225
   13G       C2  410   5.487   5.347   6.369
   13G       N2  411   5.570   5.402   6.453
   13G      H21  412   5.626   5.479   6.420
   13G      H22  413   5.580   5.358   6.544
   13G       N3  414   5.423   5.240   6.417
   13G       C4  415   5.367   5.172   6.317
   13G      C3'  416   5.060   5.014   6.483
   13G      H3'  417   5.045   5.071   6.392
   13G      C2'  418   5.197   5.046   6.551
   13G      H2'  419   5.231   5.149   6.549
   13G      O2'  420   5.202   4.986   6.679
   13G     HO2'  421   5.122   5.002   6.730
   13G      O3'  422   4.958   5.035   6.583
   14G        P  423   4.849   5.151   6.573
   14G      OP1  424   4.766   5.145   6.694
   14G      OP2  425   4.775   5.136   6.449
   14G      O5'  426   4.934   5.289   6.573
   14G      C5'  427   5.026   5.333   6.677
   14G      H5'  428   5.092   5.254   6.713
   14G     H5''  429   4.975   5.370   6.766
   14G      C4'  430   5.114   5.453   6.632
   14G      H4'  431   5.165   5.503   6.714
   14G      O4'  432   5.210   5.427   6.532
   14G      C1'  433   5.214   5.521   6.434
   14G      H1'  434   5.315   5.558   6.416
   14G       N9  435   5.167   5.460   6.304
   14G       C8  436   5.095   5.343   6.282
   14G       H8  437   5.065   5.284   6.367
   14G       N7  438   5.073   5.316   6.160
   14G       C5  439   5.134   5.420   6.087
   14G       C6  440   5.134   5.451   5.951
   14G       O6  441   5.084   5.385   5.855
   14G       N1  442   5.207   5.567   5.922
   14G       H1  443   5.203   5.603   5.828
   14G       C2  444   5.249   5.655   6.018
   14G       N2  445   5.318   5.759   5.966
   14G      H21  446   5.304   5.782   5.869
   14G      H22  447   5.349   5.830   6.031
   14G       N3  448   5.247   5.629   6.145
   14G       C4  449   5.188   5.511   6.175
   14G      C3'  450   5.019   5.558   6.569
   14G      H3'  451   4.949   5.514   6.497
   14G      C2'  452   5.129   5.634   6.487
   14G      H2'  453   5.081   5.691   6.408
   14G      O2'  454   5.197   5.727   6.573
   14G     HO2'  455   5.145   5.806   6.587
   14G      O3'  456   4.954   5.643   6.661
   15G        P  457   4.811   5.709   6.619
   15G      OP1  458   4.787   5.816   6.720
   15G      OP2  459   4.713   5.601   6.612
   15G      O5'  460   4.820   5.771   6.468
   15G      C5'  461   4.879   5.893   6.439
   15G      H5'  462   4.981   5.891   6.478
   15G     H5''  463   4.817   5.970   6.484
   15G      C4'  464   4.885   5.908   6.288
   15G      H4'  465   4.936   6.001   6.264
   15G      O4'  466   4.946   5.804   6.219
   15G      C1'  467   4.888   5.782   6.094
   15G      H1'  468   4.951   5.803   6.007
   15G       N9  469   4.851   5.639   6.078
   15G       C8  470   4.810   5.549   6.168
   15G       H8  471   4.802   5.574   6.273
   15G       N7  472   4.771   5.430   6.131
   15G       C5  473   4.790   5.447   5.993
   15G       C6  474   4.768   5.357   5.888
   15G       O6  475   4.766   5.232   5.893
   15G       N1  476   4.791   5.407   5.762
   15G       H1  477   4.791   5.339   5.688
   15G       C2  478   4.834   5.536   5.736
   15G       N2  479   4.850   5.574   5.613
   15G      H21  480   4.844   5.506   5.538
   15G      H22  481   4.882   5.668   5.598
   15G       N3  482   4.863   5.619   5.837
   15G       C4  483   4.839   5.571   5.962
   15G      C3'  484   4.749   5.923   6.222
   15G      H3'  485   4.681   5.855   6.273
   15G      C2'  486   4.760   5.870   6.082
   15G      H2'  487   4.669   5.817   6.054
   15G      O2'  488   4.795   5.971   5.989
   15G     HO2'  489   4.717   6.018   5.956
   15G      O3'  490   4.692   6.051   6.250
   16U        P  491   4.546   6.086   6.238
   16U      OP1  492   4.534   6.228   6.285
   16U      OP2  493   4.478   5.980   6.308
   16U      O5'  494   4.517   6.087   6.075
   16U      C5'  495   4.540   6.198   5.998
   16U      H5'  496   4.639   6.236   6.023
   16U     H5''  497   4.462   6.269   6.026
   16U      C4'  498   4.532   6.181   5.842
   16U      H4'  499   4.563   6.274   5.794
   16U      O4'  500   4.619   6.078   5.793
   16U      C1'  501   4.543   5.991   5.705
   16U      H1'  502   4.592   5.997   5.608
   16U       N1  503   4.548   5.852   5.747
   16U       C6  504   4.502   5.820   5.873
   16U       H6  505   4.484   5.900   5.944
   16U       C5  506   4.475   5.691   5.904
   16U       H5  507   4.424   5.661   5.994
   16U       C4  508   4.488   5.583   5.806
   16U       O4  509   4.453   5.470   5.825
   16U       N3  510   4.551   5.622   5.694
   16U       H3  511   4.561   5.555   5.620
   16U       C2  512   4.573   5.749   5.655
   16U       O2  513   4.604   5.774   5.544
   16U      C3'  514   4.386   6.133   5.818
   16U      H3'  515   4.349   6.067   5.896
   16U      C2'  516   4.400   6.050   5.688
   16U      H2'  517   4.322   5.973   5.690
   16U      O2'  518   4.385   6.144   5.589
   16U     HO2'  519   4.330   6.208   5.635
   16U      O3'  520   4.294   6.248   5.812
   17U        P  521   4.137   6.227   5.824
   17U      OP1  522   4.074   6.356   5.865
   17U      OP2  523   4.105   6.113   5.912
   17U      O5'  524   4.102   6.195   5.675
   17U      C5'  525   4.088   6.302   5.575
   17U      H5'  526   4.183   6.355   5.567
   17U     H5''  527   4.007   6.371   5.599
   17U      C4'  528   4.054   6.246   5.439
   17U      H4'  529   4.038   6.327   5.367
   17U      O4'  530   4.152   6.163   5.379
   17U      C1'  531   4.092   6.062   5.296
   17U      H1'  532   4.102   6.083   5.190
   17U       N1  533   4.138   5.917   5.320
   17U       C6  534   4.209   5.880   5.430
   17U       H6  535   4.228   5.950   5.511
   17U       C5  536   4.244   5.750   5.455
   17U       H5  537   4.294   5.720   5.546
   17U       C4  538   4.224   5.650   5.346
   17U       O4  539   4.253   5.533   5.350
   17U       N3  540   4.161   5.697   5.236
   17U       H3  541   4.161   5.639   5.154
   17U       C2  542   4.105   5.823   5.221
   17U       O2  543   4.019   5.848   5.137
   17U      C3'  544   3.928   6.160   5.444
   17U      H3'  545   3.937   6.099   5.534
   17U      C2'  546   3.939   6.072   5.321
   17U      H2'  547   3.905   5.972   5.347
   17U      O2'  548   3.875   6.127   5.211
   17U     HO2'  549   3.821   6.200   5.243
   17U      O3'  550   3.803   6.231   5.461
   18A        P  551   3.672   6.178   5.544
   18A      OP1  552   3.567   6.279   5.519
   18A      OP2  553   3.718   6.160   5.685
   18A      O5'  554   3.629   6.034   5.491
   18A      C5'  555   3.554   6.011   5.374
   18A      H5'  556   3.592   6.077   5.296
   18A     H5''  557   3.449   6.037   5.386
   18A      C4'  558   3.583   5.874   5.325
   18A      H4'  559   3.540   5.854   5.227
   18A      O4'  560   3.725   5.858   5.311
   18A      C1'  561   3.756   5.724   5.355
   18A      H1'  562   3.812   5.674   5.276
   18A       N9  563   3.844   5.716   5.476
   18A       C8  564   3.884   5.819   5.558
   18A       H8  565   3.836   5.916   5.569
   18A       N7  566   3.970   5.781   5.655
   18A       C5  567   3.988   5.646   5.623
   18A       C6  568   4.062   5.540   5.686
   18A       N6  569   4.148   5.553   5.784
   18A      H61  570   4.198   5.471   5.818
   18A      H62  571   4.155   5.641   5.834
   18A       N1  572   4.058   5.417   5.638
   18A       C2  573   3.993   5.399   5.527
   18A       H2  574   3.996   5.297   5.492
   18A       N3  575   3.923   5.487   5.454
   18A       C4  576   3.924   5.609   5.517
   18A      C3'  577   3.543   5.769   5.419
   18A      H3'  578   3.570   5.798   5.521
   18A      C2'  579   3.625   5.654   5.373
   18A      H2'  580   3.639   5.582   5.454
   18A      O2'  581   3.577   5.589   5.258
   18A     HO2'  582   3.499   5.634   5.225
   18A      O3'  583   3.405   5.744   5.412
   19G        P  584   3.334   5.676   5.539
   19G      OP1  585   3.188   5.663   5.502
   19G      OP2  586   3.368   5.751   5.662
   19G      O5'  587   3.405   5.537   5.565
   19G      C5'  588   3.382   5.428   5.475
   19G      H5'  589   3.407   5.460   5.373
   19G     H5''  590   3.276   5.410   5.490
   19G      C4'  591   3.461   5.308   5.527
   19G      H4'  592   3.464   5.223   5.458
   19G      O4'  593   3.598   5.351   5.547
   19G      C1'  594   3.654   5.279   5.657
   19G      H1'  595   3.731   5.212   5.620
   19G       N9  596   3.710   5.373   5.748
   19G       C8  597   3.684   5.514   5.759
   19G       H8  598   3.618   5.566   5.691
   19G       N7  599   3.769   5.566   5.841
   19G       C5  600   3.837   5.460   5.906
   19G       C6  601   3.927   5.460   6.016
   19G       O6  602   3.967   5.556   6.078
   19G       N1  603   3.965   5.328   6.052
   19G       H1  604   4.025   5.314   6.132
   19G       C2  605   3.911   5.218   5.998
   19G       N2  606   3.951   5.106   6.052
   19G      H21  607   3.987   5.103   6.146
   19G      H22  608   3.921   5.018   6.011
   19G       N3  609   3.821   5.216   5.902
   19G       C4  610   3.788   5.338   5.855
   19G      C3'  611   3.418   5.263   5.670
   19G      H3'  612   3.404   5.347   5.738
   19G      C2'  613   3.535   5.202   5.720
   19G      H2'  614   3.534   5.208   5.829
   19G      O2'  615   3.533   5.064   5.674
   19G     HO2'  616   3.449   5.027   5.702
   19G      O3'  617   3.307   5.176   5.662
   20G        P  618   3.201   5.180   5.782
   20G      OP1  619   3.116   5.059   5.771
   20G      OP2  620   3.134   5.309   5.789
   20G      O5'  621   3.301   5.148   5.914
   20G      C5'  622   3.327   5.017   5.959
   20G      H5'  623   3.391   4.969   5.885
   20G     H5''  624   3.232   4.968   5.980
   20G      C4'  625   3.408   5.032   6.095
   20G      H4'  626   3.432   4.928   6.113
   20G      O4'  627   3.538   5.094   6.080
   20G      C1'  628   3.561   5.171   6.201
   20G      H1'  629   3.659   5.138   6.235
   20G       N9  630   3.566   5.312   6.161
   20G       C8  631   3.479   5.374   6.075
   20G       H8  632   3.394   5.329   6.025
   20G       N7  633   3.508   5.502   6.061
   20G       C5  634   3.603   5.529   6.155
   20G       C6  635   3.672   5.648   6.182
   20G       O6  636   3.654   5.762   6.129
   20G       N1  637   3.760   5.641   6.287
   20G       H1  638   3.801   5.724   6.327
   20G       C2  639   3.790   5.526   6.346
   20G       N2  640   3.880   5.538   6.438
   20G      H21  641   3.923   5.628   6.456
   20G      H22  642   3.904   5.454   6.488
   20G       N3  643   3.736   5.405   6.314
   20G       C4  644   3.644   5.410   6.212
   20G      C3'  645   3.332   5.096   6.211
   20G      H3'  646   3.277   5.183   6.175
   20G      C2'  647   3.455   5.138   6.302
   20G      H2'  648   3.435   5.222   6.368
   20G      O2'  649   3.502   5.037   6.387
   20G     HO2'  650   3.423   4.992   6.418
   20G      O3'  651   3.254   4.992   6.268
   21G3       P  652   3.103   5.018   6.302
   21G3     OP1  653   3.044   4.883   6.331
   21G3     OP2  654   3.048   5.102   6.193
   21G3     O5'  655   3.104   5.101   6.438
   21G3     C5'  656   3.131   5.043   6.561
   21G3     H5'  657   3.209   4.968   6.550
   21G3    H5''  658   3.045   4.990   6.602
   21G3     C4'  659   3.176   5.147   6.661
   21G3     H4'  660   3.195   5.098   6.757
   21G3     O4'  661   3.307   5.207   6.614
   21G3     C1'  662   3.309   5.347   6.634
   21G3     H1'  663   3.399   5.368   6.693
   21G3      N9  664   3.306   5.414   6.500
   21G3      C8  665   3.213   5.402   6.395
   21G3      H8  666   3.140   5.323   6.388
   21G3      N7  667   3.220   5.500   6.308
   21G3      C5  668   3.307   5.587   6.357
   21G3      C6  669   3.350   5.719   6.315
   21G3      O6  670   3.314   5.784   6.217
   21G3      N1  671   3.427   5.780   6.404
   21G3      H1  672   3.468   5.867   6.373
   21G3      C2  673   3.466   5.724   6.526
   21G3      N2  674   3.543   5.798   6.608
   21G3     H21  675   3.567   5.886   6.566
   21G3     H22  676   3.574   5.756   6.694
   21G3      N3  677   3.446   5.599   6.562
   21G3      C4  678   3.361   5.539   6.475
   21G3     C3'  679   3.078   5.271   6.668
   21G3     H3'  680   3.039   5.294   6.569
   21G3     C2'  681   3.177   5.376   6.716
   21G3     H2'  682   3.150   5.479   6.690
   21G3     O2'  683   3.213   5.360   6.852
   21G3    HO2'  684   3.137   5.381   6.908
   21G3     O3'  685   2.981   5.259   6.770
   21G3    HO3'  686   2.936   5.343   6.782
   22Cl-    Cl-  687   3.936   6.348   6.617
   23Cl-    Cl-  688   8.113   7.832   4.714
   24Cl-    Cl-  689   5.369   0.022   7.067
   25Cl-    Cl-  690   7.380   1.128   7.648
   26Cl-    Cl-  691   8.564   5.652   1.929
   27Cl-    Cl-  692   9.836   9.164   1.057
   28Cl-    Cl-  693   6.265   7.236   9.829
   29Cl-    Cl-  694   3.075   7.334   2.694
   30Cl-    Cl-  695   4.885   0.909   6.008
   31Cl-    Cl-  696   7.539   2.150   7.627
   32Cl-    Cl-  697   0.481   9.703   8.424
   33Cl-    Cl-  698   7.152   9.151   3.996
   34Cl-    Cl-  699   2.709   1.699   7.575
   35Cl-    Cl-  700   5.996   6.129   7.490
   36Cl-    Cl-  701   5.151   3.941   0.526
   37Cl-    Cl-  702   6.567   9.657   5.815
   38Cl-    Cl-  703   2.034   3.324   6.815
   39Cl-    Cl-  704   4.220   2.804   4.818
   40Cl-    Cl-  705   7.254   0.181   6.863
   41Cl-    Cl-  706   3.418   9.177   4.041
   42Cl-    Cl-  707   2.158   0.366   4.901
   43Cl-    Cl-  708   6.064   0.147   2.903
   44Cl-    Cl-  709   8.919   9.475   7.694
   45Cl-    Cl-  710   1.997   6.530   9.704
   46Cl-    Cl-  711   0.394   3.305   7.861
   47Cl-    Cl-  712   9.175   4.297   5.657
   48Cl-    Cl-  713   1.514   1.388   9.422
   49Cl-    Cl-  714   0.834   6.234   8.179
   50Cl-    Cl-  715   8.104   7.068   8.560
   51Cl-    Cl-  716   4.741   2.000   3.225
   52Cl-    Cl-  717   8.773   9.218   6.751
   53Cl-    Cl-  718   5.672   6.400   8.382
   54Cl-    Cl-  719   7.638   6.604   2.489
   55Cl-    Cl-  720   7.347   9.357   0.058
   56Cl-    Cl-  721   4.420   2.436   0.095
   57Cl-    Cl-  722   4.053   6.718   3.236
   58Cl-    Cl-  723   5.129   1.155   4.029
   59Cl-    Cl-  724   3.062   0.434   5.784
   60Cl-    Cl-  725   9.458   6.144   5.927
   61Cl-    Cl-  726   2.231   1.734   4.722
   62Cl-    Cl-  727   3.120   3.764   9.157
   63Cl-    Cl-  728   9.077   6.443   9.298
   64Cl-    Cl-  729   7.128   4.711   5.600
   65Cl-    Cl-  730   5.828   7.026   4.182
   66Cl-    Cl-  731   7.005   5.849   5.609
   67Cl-    Cl-  732   2.806   0.395   7.865
   68Cl-    Cl-  733   6.668   0.922   2.325
   69Cl-    Cl-  734   7.350   5.290   9.589
   70Cl-    Cl-  735   2.751   6.514   1.181
   71Cl-    Cl-  736   8.015   7.559   1.608
   72Cl-    Cl-  737   6.400   9.231   8.239
   73Cl-    Cl-  738   4.561   8.687   1.842
   74Cl-    Cl-  739   1.621   6.159   7.050
   75Cl-    Cl-  740   9.475   8.657   4.201
   76Cl-    Cl-  741   9.027   0.610   6.009
   77Cl-    Cl-  742   5.961   9.515   4.345
   78Cl-    Cl-  743   2.856   7.125   6.855
   79Cl-    Cl-  744   1.415   7.298   2.888
   80Cl-    Cl-  745   8.027   8.600   5.892
   81Cl-    Cl-  746   7.594   1.466   8.280
   82Cl-    Cl-  747   9.765   0.165   2.875
   83Cl-    Cl-  748   6.530   6.725   8.904
   84Cl-    Cl-  749   6.255   6.253   2.505
   85Cl-    Cl-  750   8.778   3.237   7.978
   86Cl-    Cl-  751   0.505   7.013   1.892
   87Cl-    Cl-  752   0.797   2.692   7.922
   88Cl-    Cl-  753   8.692   9.629   8.791
   89Cl-    Cl-  754   7.148   7.306   5.101
   90Cl-    Cl-  755   0.493   9.034   5.450
   91Cl-    Cl-  756   6.012   0.997   0.746
   92Cl-    Cl-  757   9.319   4.593   1.762
   93Cl-    Cl-  758   3.721   8.576   6.225
   94Cl-    Cl-  759   9.635   4.866   3.564
   95Cl-    Cl-  760   4.992   1.701   1.291
   96Cl-    Cl-  761   8.345   9.083   2.641
   97Cl-    Cl-  762   1.298   8.259   2.064
   98Cl-    Cl-  763   4.515   0.450   9.796
   99Cl-    Cl-  764   3.892   5.314   9.808
  100Cl-    Cl-  765   5.747   2.874   2.258
  101Cl-    Cl-  766   2.201   0.147   6.223
  102Cl-    Cl-  767   5.836   9.063   9.558
  103Cl-    Cl-  768   2.846   8.931   2.783
  104Cl-    Cl-  769   3.804   1.760   2.164
  105Cl-    Cl-  770   7.679   4.244   9.471
  106Cl-    Cl-  771   2.363   6.908   8.652
  107K+      K+  772   3.496   6.612   0.546
  108K+      K+  773   6.477   1.076   9.134
  109K+      K+  774   0.520   7.743   4.933
  110K+      K+  775   0.227   9.046   6.789
  111K+      K+  776   0.464   7.318   5.659
  112K+      K+  777   7.798   5.517   9.230
  113K+      K+  778   5.049   2.634   6.887
  114K+      K+  779   5.256   4.170   4.507
  115K+      K+  780   3.868   5.806   5.955
  116K+      K+  781   8.470   5.323   5.379
  117K+      K+  782   7.757   8.629   9.725
  118K+      K+  783   5.226   4.280   4.107
  119K+      K+  784   9.175   8.444   3.674
  120K+      K+  785   6.024   9.674   6.012
  121K+      K+  786   3.785   5.948   5.054
  122K+      K+  787   3.740   5.306   4.973
  123K+      K+  788   4.600   5.017   5.751
  124K+      K+  789   7.158   5.418   4.327
  125K+      K+  790   9.873   1.562   1.528
  126K+      K+  791   3.234   3.225   5.601
  127K+      K+  792   3.004   8.740   3.204
  128K+      K+  793   7.531   4.325   6.677
  129K+      K+  794   2.477   0.878   7.225
  130K+      K+  795   6.757   9.809   4.796
  131K+      K+  796   3.896   1.363   3.461
  132K+      K+  797   4.567   5.743   7.150
  133K+      K+  798   3.773   8.649   4.594
  134K+      K+  799   7.719   1.906   2.484
  135K+      K+  800   2.817   7.099   6.373
  136K+      K+  801   3.363   8.090   2.551
  137K+      K+  802   6.059   6.562   2.201
  138K+      K+  803   4.033   3.994   5.780
  139K+      K+  804   8.881   2.498   7.337
  140K+      K+  805   8.481   4.108   1.640
  141K+      K+  806   1.871   4.898   0.303
  142K+      K+  807   8.656   7.572   1.270
  143K+      K+  808   7.113   7.226   3.740
  144K+      K+  809   4.893   0.025   3.721
  145K+      K+  810   9.075   9.631   5.698
  146K+      K+  811   5.504   5.136   5.854
  147K+      K+  812   9.418   5.645   4.191
  148K+      K+  813   4.064   5.872   6.801
  149K+      K+  814   9.553   9.690   0.919
  150K+      K+  815   7.125   4.381   4.780
  151K+      K+  816   2.376   1.268   1.966
  152K+      K+  817   1.532   0.505   4.040
  153K+      K+  818   3.430   1.474   9.804
  154K+      K+  819   7.435   5.342   5.441
  155K+      K+  820   7.366   2.566   7.374
  156K+      K+  821   4.792   4.657   4.273
  157K+      K+  822   9.557   8.136   8.754
  158K+      K+  823   6.817   4.725   3.643
  159K+      K+  824   4.995   0.074   8.106
  160K+      K+  825   4.843   2.745   4.396
  161K+      K+  826   6.056   8.045   8.991
  162K+      K+  827   2.860   0.613   4.621
  163K+      K+  828   8.806   9.049   7.918
  164K+      K+  829   6.126   2.045   2.422
  165K+      K+  830   8.962   9.772   8.232
  166K+      K+  831   7.196   2.506   9.746
  167K+      K+  832   5.076   1.727   4.476
  168K+      K+  833   7.789   4.060   8.965
  169K+      K+  834   5.291   6.059   8.236
  170K+      K+  835   4.410   9.444   1.112
  171K+      K+  836   3.728   3.871   8.966
  172K+      K+  837   2.573   8.969   8.321
  173K+      K+  838   3.455   5.948   6.019
  174K+      K+  839   8.195   8.681   8.025
  175K+      K+  840   4.921   3.943   5.074
  176K+      K+  841   4.181   7.349   4.085
  177K+      K+  842   5.818   3.989   5.466
  178K+      K+  843   1.475   6.914   3.164
  179K+      K+  844   2.336   0.229   6.681
  180K+      K+  845   9.793   7.213   8.340
  181K+      K+  846   0.605   1.789   4.517
  182K+      K+  847   7.616   4.726   9.377
  183K+      K+  848   0.886   9.119   1.949
  184K+      K+  849   5.050   5.127   5.965
  185K+      K+  850   6.086   4.480   3.424
  186K+      K+  851   0.595   8.250   7.544
  187K+      K+  852   0.673   5.122   3.686
  188K+      K+  853   5.023   5.829   2.329
  189K+      K+  854   3.152   5.629   6.064
  190K+      K+  855   3.789   0.378   5.511
  191K+      K+  856   0.598   4.948   4.465
  192K+      K+  857   1.230   6.970   1.930
  193K+      K+  858   6.751   4.678   9.732
  194K+      K+  859   6.407   0.777   4.100
  195K+      K+  860   9.808   5.748   6.434
  196K+      K+  861   7.432   9.804   8.788
  197K+      K+  862   6.743   0.799   7.757
  198K+      K+  863   3.091   7.629   4.473
  199K+      K+  864   8.829   0.871   1.590
  200K+      K+  865   5.471   0.027   3.399
  201K+      K+  866   0.406   4.135   6.542
  202K+      K+  867   2.439   5.960   8.025
  203K+      K+  868   8.588   1.210   7.000
  204K+      K+  869   1.629   2.797   8.175
  205K+      K+  870   2.950   5.517   2.908
  206K+      K+  871   4.801   3.698   2.069
  207K+      K+  872   3.013   2.221   8.232
  208K+      K+  873   9.489   9.677   2.996
  209K+      K+  874   8.990   7.373   5.906
  210K+      K+  875   3.817   7.907   0.789
  211K+      K+  876   5.098   2.003   3.128
  212WAT      O  877   2.467   8.502   2.276
  212WAT     H1  878   2.554   8.548   2.290
  212WAT     H2  879   2.482   8.412   2.234
  213WAT      O  880   1.943   2.333   2.152
  213WAT     H1  881   1.962   2.429   2.171
  213WAT     H2  882   2.027   2.279   2.165
  214WAT      O  883   4.913   6.556   1.376
  214WAT     H1  884   4.938   6.561   1.280
  214WAT     H2  885   4.994   6.568   1.433
  215WAT      O  886   9.531   8.771   5.478
  215WAT     H1  887   9.622   8.742   5.448
  215WAT     H2  888   9.471   8.692   5.486
  216WAT      O  889   2.326   7.829   1.211
  216WAT     H1  890   2.285   7.920   1.206
  216WAT     H2  891   2.425   7.836   1.204
  217WAT      O  892   4.879   1.341   5.920
  217WAT     H1  893   4.941   1.268   5.892
  217WAT     H2  894   4.816   1.305   5.989
  218WAT      O  895   1.953   5.189   0.659
  218WAT     H1  896   1.966   5.090   0.662
  218WAT     H2  897   1.874   5.215   0.716
  219WAT      O  898   8.661   4.591   4.511
  219WAT     H1  899   8.685   4.593   4.415
  219WAT     H2  900   8.709   4.665   4.560
  220WAT      O  901   5.058   9.663   8.254
  220WAT     H1  902   4.986   9.722   8.290
  220WAT     H2  903   5.094   9.606   8.327
  221WAT      O  904   5.573   1.022   0.174
  221WAT     H1  905   5.574   1.085   0.252
  221WAT     H2  906   5.505   0.951   0.189
  222WAT      O  907   0.450   9.010   9.626
  222WAT     H1  908   0.485   8.968   9.542
  222WAT     H2  909   0.527   9.031   9.686
  223WAT      O  910   0.649   7.211   1.564
  223WAT     H1  911   0.622   7.207   1.661
  223WAT     H2  912   0.675   7.120   1.533
  224WAT      O  913   6.094   0.215   0.323
  224WAT     H1  914   6.073   0.118   0.334
  224WAT     H2  915   6.193   0.227   0.315
  225WAT      O  916   6.085   4.222   7.041
  225WAT     H1  917   6.058   4.299   7.099
  225WAT     H2  918   6.156   4.169   7.087
  226WAT      O  919   6.998   2.400   2.353
  226WAT     H1  920   6.934   2.458   2.302
  226WAT     H2  921   6.966   2.305   2.350
  227WAT      O  922   5.122   6.324   7.550
  227WAT     H1  923   5.038   6.377   7.554
  227WAT     H2  924   5.130   6.268   7.633
  228WAT      O  925   4.239   7.352   2.431
  228WAT     H1  926   4.240   7.318   2.525
  228WAT     H2  927   4.332   7.347   2.394
  229WAT      O  928   3.054   5.171   2.284
  229WAT     H1  929   2.998   5.246   2.252
  229WAT     H2  930   3.151   5.192   2.267
  230WAT      O  931   1.438   9.645   5.291
  230WAT     H1  932   1.395   9.713   5.351
  230WAT     H2  933   1.390   9.643   5.203
  231WAT      O  934   9.372   8.494   5.200
  231WAT     H1  935   9.320   8.561   5.147
  231WAT     H2  936   9.469   8.518   5.197
  232WAT      O  937   6.903   9.498   0.392
  232WAT     H1  938   6.889   9.414   0.339
  232WAT     H2  939   7.001   9.515   0.400
  233WAT      O  940   3.001   9.446   3.472
  233WAT     H1  941   2.962   9.526   3.427
  233WAT     H2  942   2.994   9.367   3.410
  234WAT      O  943   2.672   1.842   9.011
  234WAT     H1  944   2.752   1.836   8.951
  234WAT     H2  945   2.701   1.825   9.106
  235WAT      O  946   8.666   8.249   7.647
  235WAT     H1  947   8.744   8.278   7.703
  235WAT     H2  948   8.693   8.173   7.588
  236WAT      O  949   5.979   3.414   0.470
  236WAT     H1  950   6.009   3.495   0.420
  236WAT     H2  951   5.886   3.389   0.441
  237WAT      O  952   6.173   9.525   2.054
  237WAT     H1  953   6.179   9.425   2.045
  237WAT     H2  954   6.264   9.565   2.038
  238WAT      O  955   7.850   7.700   0.560
  238WAT     H1  956   7.892   7.673   0.647
  238WAT     H2  957   7.891   7.786   0.529
  239WAT      O  958   4.949   5.300   2.675
  239WAT     H1  959   4.936   5.396   2.651
  239WAT     H2  960   5.038   5.268   2.640
  240WAT      O  961   0.929   7.585   8.021
  240WAT     H1  962   0.860   7.586   7.948
  240WAT     H2  963   0.889   7.621   8.105
  241WAT      O  964   2.015   9.201   0.412
  241WAT     H1  965   2.085   9.179   0.480
  241WAT     H2  966   2.020   9.297   0.387
  242WAT      O  967   1.157   3.918   0.574
  242WAT     H1  968   1.131   3.948   0.666
  242WAT     H2  969   1.140   3.992   0.509
  243WAT      O  970   4.426   0.675   1.436
  243WAT     H1  971   4.516   0.719   1.441
  243WAT     H2  972   4.432   0.584   1.476
  244WAT      O  973   0.831   5.295   1.792
  244WAT     H1  974   0.838   5.394   1.779
  244WAT     H2  975   0.873   5.248   1.715
  245WAT      O  976   4.756   7.100   0.276
  245WAT     H1  977   4.703   7.017   0.291
  245WAT     H2  978   4.849   7.087   0.310
  246WAT      O  979   8.265   7.669   1.065
  246WAT     H1  980   8.275   7.671   0.965
  246WAT     H2  981   8.170   7.648   1.089
  247WAT      O  982   3.959   0.688   3.992
  247WAT     H1  983   3.984   0.594   4.013
  247WAT     H2  984   4.031   0.730   3.936
  248WAT      O  985   6.255   4.756   7.380
  248WAT     H1  986   6.211   4.673   7.347
  248WAT     H2  987   6.314   4.734   7.458
  249WAT      O  988   4.892   6.150   8.228
  249WAT     H1  989   4.954   6.191   8.161
  249WAT     H2  990   4.941   6.135   8.314
  250WAT      O  991   9.230   1.957   0.121
  250WAT     H1  992   9.144   1.953   0.171
  250WAT     H2  993   9.226   1.895   0.043
  251WAT      O  994   7.040   0.018   1.648
  251WAT     H1  995   7.000  -0.068   1.681
  251WAT     H2  996   6.971   0.090   1.651
  252WAT      O  997   2.886   9.416   4.933
  252WAT     H1  998   2.816   9.404   5.003
  252WAT     H2  999   2.905   9.328   4.889
  253WAT      O 1000   6.314   9.415   7.730
  253WAT     H1 1001   6.305   9.351   7.654
  253WAT     H2 1002   6.235   9.407   7.791
  254WAT      O 1003   9.307   3.583   3.187
  254WAT     H1 1004   9.270   3.509   3.243
  254WAT     H2 1005   9.232   3.631   3.141
  255WAT      O 1006   4.763   2.538   0.390
  255WAT     H1 1007   4.716   2.605   0.448
  255WAT     H2 1008   4.727   2.447   0.409
  256WAT      O 1009   0.347   0.889   7.688
  256WAT     H1 1010   0.301   0.954   7.750
  256WAT     H2 1011   0.289   0.808   7.677
  257WAT      O 1012   7.761   2.324   9.802
  257WAT     H1 1013   7.778   2.283   9.892
  257WAT     H2 1014   7.827   2.398   9.787
  258WAT      O 1015   2.492   9.527   5.313
  258WAT     H1 1016   2.470   9.553   5.407
  258WAT     H2 1017   2.591   9.528   5.301
  259WAT      O 1018   3.296   1.733   2.856
  259WAT     H1 1019   3.382   1.751   2.808
  259WAT     H2 1020   3.315   1.682   2.940
  260WAT      O 1021   0.472   5.407   1.049
  260WAT     H1 1022   0.499   5.448   1.136
  260WAT     H2 1023   0.376   5.380   1.054
  261WAT      O 1024   5.097   9.706   1.454
  261WAT     H1 1025   5.075   9.766   1.531
  261WAT     H2 1026   5.183   9.735   1.413
  262WAT      O 1027   5.844   5.038   4.623
  262WAT     H1 1028   5.769   5.095   4.589
  262WAT     H2 1029   5.860   4.962   4.561
  263WAT      O 1030   1.316   8.774   2.936
  263WAT     H1 1031   1.220   8.800   2.951
  263WAT     H2 1032   1.350   8.726   3.017
  264WAT      O 1033   1.293   7.142   8.572
  264WAT     H1 1034   1.230   7.143   8.650
  264WAT     H2 1035   1.287   7.229   8.523
  265WAT      O 1036   1.272   5.626   1.595
  265WAT     H1 1037   1.370   5.607   1.590
  265WAT     H2 1038   1.254   5.688   1.671
  266WAT      O 1039   2.262   7.208   4.810
  266WAT     H1 1040   2.218   7.133   4.859
  266WAT     H2 1041   2.332   7.171   4.749
  267WAT      O 1042   8.017   1.256   9.635
  267WAT     H1 1043   8.095   1.217   9.684
  267WAT     H2 1044   7.988   1.193   9.562
  268WAT      O 1045   2.799   8.267   5.315
  268WAT     H1 1046   2.870   8.254   5.384
  268WAT     H2 1047   2.839   8.308   5.233
  269WAT      O 1048   3.300   1.319   2.370
  269WAT     H1 1049   3.355   1.374   2.307
  269WAT     H2 1050   3.208   1.357   2.376
  270WAT      O 1051   0.009   0.270   0.068
  270WAT     H1 1052  -0.075   0.233   0.107
  270WAT     H2 1053   0.031   0.358   0.111
  271WAT      O 1054   4.121   9.381   5.342
  271WAT     H1 1055   4.045   9.339   5.392
  271WAT     H2 1056   4.100   9.383   5.245
  272WAT      O 1057   2.575   1.590   2.746
  272WAT     H1 1058   2.571   1.642   2.660
  272WAT     H2 1059   2.498   1.618   2.804
  273WAT      O 1060   1.817   2.077   4.589
  273WAT     H1 1061   1.763   2.154   4.624
  273WAT     H2 1062   1.910   2.082   4.624
  274WAT      O 1063   2.632   7.623   2.407
  274WAT     H1 1064   2.684   7.683   2.347
  274WAT     H2 1065   2.691   7.549   2.440
  275WAT      O 1066   6.310   4.078   7.783
  275WAT     H1 1067   6.376   4.009   7.813
  275WAT     H2 1068   6.348   4.170   7.798
  276WAT      O 1069   1.192   2.372   5.171
  276WAT     H1 1070   1.261   2.402   5.237
  276WAT     H2 1071   1.107   2.422   5.186
  277WAT      O 1072   5.039   8.510   7.990
  277WAT     H1 1073   5.047   8.519   7.891
  277WAT     H2 1074   5.127   8.481   8.029
  278WAT      O 1075   9.612   0.622   0.188
  278WAT     H1 1076   9.583   0.584   0.276
  278WAT     H2 1077   9.706   0.593   0.169
  279WAT      O 1078   2.984   6.864   9.514
  279WAT     H1 1079   2.942   6.938   9.566
  279WAT     H2 1080   2.915   6.792   9.496
  280WAT      O 1081   3.764   8.639   2.543
  280WAT     H1 1082   3.795   8.616   2.635
  280WAT     H2 1083   3.841   8.635   2.480
  281WAT      O 1084   7.890   0.640   2.890
  281WAT     H1 1085   7.917   0.619   2.797
  281WAT     H2 1086   7.959   0.698   2.933
  282WAT      O 1087   1.758   8.204   2.290
  282WAT     H1 1088   1.767   8.128   2.354
  282WAT     H2 1089   1.729   8.170   2.201
  283WAT      O 1090   3.243   8.261   3.708
  283WAT     H1 1091   3.298   8.316   3.645
  283WAT     H2 1092   3.295   8.180   3.736
  284WAT      O 1093   7.695   2.043   3.097
  284WAT     H1 1094   7.754   2.040   3.016
  284WAT     H2 1095   7.656   1.952   3.112
  285WAT      O 1096   5.498   3.165   6.118
  285WAT     H1 1097   5.547   3.120   6.193
  285WAT     H2 1098   5.513   3.263   6.122
  286WAT      O 1099   9.885   4.169   3.792
  286WAT     H1 1100   9.956   4.209   3.850
  286WAT     H2 1101   9.864   4.077   3.823
  287WAT      O 1102   6.881   9.179   8.993
  287WAT     H1 1103   6.890   9.112   8.919
  287WAT     H2 1104   6.969   9.189   9.039
  288WAT      O 1105   1.879   1.310   0.537
  288WAT     H1 1106   1.896   1.404   0.565
  288WAT     H2 1107   1.889   1.249   0.615
  289WAT      O 1108   6.181   5.693   7.246
  289WAT     H1 1109   6.194   5.594   7.247
  289WAT     H2 1110   6.089   5.714   7.213
  290WAT      O 1111   8.866   9.301   7.957
  290WAT     H1 1112   8.954   9.326   7.998
  290WAT     H2 1113   8.849   9.359   7.877
  291WAT      O 1114   4.576   2.315   3.559
  291WAT     H1 1115   4.514   2.270   3.495
  291WAT     H2 1116   4.563   2.414   3.552
  292WAT      O 1117   0.330   2.450   0.188
  292WAT     H1 1118   0.394   2.460   0.113
  292WAT     H2 1119   0.309   2.539   0.228
  293WAT      O 1120   9.137   8.271   5.961
  293WAT     H1 1121   9.157   8.187   6.012
  293WAT     H2 1122   9.221   8.324   5.951
  294WAT      O 1123   5.711   2.601   0.721
  294WAT     H1 1124   5.741   2.548   0.800
  294WAT     H2 1125   5.679   2.539   0.649
  295WAT      O 1126   4.141   2.295   0.980
  295WAT     H1 1127   4.099   2.370   1.030
  295WAT     H2 1128   4.176   2.227   1.045
  296WAT      O 1129   2.828   8.800   7.387
  296WAT     H1 1130   2.818   8.719   7.330
  296WAT     H2 1131   2.911   8.791   7.443
  297WAT      O 1132   2.994   9.075   6.474
  297WAT     H1 1133   3.042   9.133   6.539
  297WAT     H2 1134   2.897   9.069   6.498
  298WAT      O 1135   5.793   7.023   1.484
  298WAT     H1 1136   5.887   7.031   1.517
  298WAT     H2 1137   5.772   7.100   1.424
  299WAT      O 1138   8.830   3.519   5.146
  299WAT     H1 1139   8.866   3.425   5.148
  299WAT     H2 1140   8.808   3.544   5.051
  300WAT      O 1141   7.620   1.477   7.088
  300WAT     H1 1142   7.542   1.431   7.130
  300WAT     H2 1143   7.590   1.520   7.002
  301WAT      O 1144   9.543   2.321   0.402
  301WAT     H1 1145   9.589   2.271   0.476
  301WAT     H2 1146   9.591   2.304   0.316
  302WAT      O 1147   8.482   6.622   2.814
  302WAT     H1 1148   8.496   6.717   2.844
  302WAT     H2 1149   8.471   6.620   2.714
  303WAT      O 1150   9.419   7.829   9.260
  303WAT     H1 1151   9.460   7.745   9.297
  303WAT     H2 1152   9.400   7.817   9.163
  304WAT      O 1153   7.843   3.560   2.310
  304WAT     H1 1154   7.806   3.618   2.237
  304WAT     H2 1155   7.900   3.488   2.270
  305WAT      O 1156   0.626   4.791   0.187
  305WAT     H1 1157   0.688   4.751   0.120
  305WAT     H2 1158   0.590   4.720   0.247
  306WAT      O 1159   5.712   3.039   7.451
  306WAT     H1 1160   5.782   3.059   7.382
  306WAT     H2 1161   5.654   3.120   7.463
  307WAT      O 1162   8.347   9.404   6.268
  307WAT     H1 1163   8.297   9.444   6.344
  307WAT     H2 1164   8.416   9.340   6.303
  308WAT      O 1165   9.790   1.262   9.459
  308WAT     H1 1166   9.754   1.234   9.548
  308WAT     H2 1167   9.807   1.181   9.403
  309WAT      O 1168   9.640   8.535   5.165
  309WAT     H1 1169   9.660   8.616   5.109
  309WAT     H2 1170   9.682   8.545   5.255
  310WAT      O 1171   2.828   6.782   5.668
  310WAT     H1 1172   2.772   6.723   5.609
  310WAT     H2 1173   2.769   6.849   5.713
  311WAT      O 1174   0.832   5.043   2.737
  311WAT     H1 1175   0.926   5.073   2.752
  311WAT     H2 1176   0.805   5.066   2.644
  312WAT      O 1177   2.955   7.478   0.887
  312WAT     H1 1178   3.006   7.474   0.973
  312WAT     H2 1179   2.860   7.453   0.904
  313WAT      O 1180   2.510   5.584   9.272
  313WAT     H1 1181   2.464   5.673   9.278
  313WAT     H2 1182   2.563   5.580   9.188
  314WAT      O 1183   6.543   6.434   6.041
  314WAT     H1 1184   6.500   6.366   6.100
  314WAT     H2 1185   6.593   6.388   5.967
  315WAT      O 1186   1.218   8.658   4.866
  315WAT     H1 1187   1.194   8.581   4.927
  315WAT     H2 1188   1.214   8.743   4.918
  316WAT      O 1189   6.917   8.204   9.777
  316WAT     H1 1190   6.865   8.286   9.801
  316WAT     H2 1191   6.927   8.146   9.858
  317WAT      O 1192   6.315   1.307   2.671
  317WAT     H1 1193   6.322   1.386   2.611
  317WAT     H2 1194   6.237   1.250   2.643
  318WAT      O 1195   1.227   7.500   6.174
  318WAT     H1 1196   1.194   7.542   6.259
  318WAT     H2 1197   1.281   7.419   6.195
  319WAT      O 1198   6.762   6.911   8.242
  319WAT     H1 1199   6.818   6.979   8.289
  319WAT     H2 1200   6.768   6.926   8.143
  320WAT      O 1201   4.560   5.534   9.566
  320WAT     H1 1202   4.622   5.577   9.501
  320WAT     H2 1203   4.608   5.461   9.615
  321WAT      O 1204   1.719   6.453   3.764
  321WAT     H1 1205   1.752   6.528   3.822
  321WAT     H2 1206   1.769   6.453   3.678
  322WAT      O 1207   4.720   9.739   8.547
  322WAT     H1 1208   4.678   9.785   8.625
  322WAT     H2 1209   4.701   9.641   8.551
  323WAT      O 1210   9.766   6.720   1.967
  323WAT     H1 1211   9.799   6.813   1.953
  323WAT     H2 1212   9.666   6.720   1.973
  324WAT      O 1213   7.237   3.231   8.188
  324WAT     H1 1214   7.142   3.248   8.162
  324WAT     H2 1215   7.274   3.313   8.232
  325WAT      O 1216   6.171   4.981   6.756
  325WAT     H1 1217   6.211   5.041   6.687
  325WAT     H2 1218   6.078   5.011   6.777
  326WAT      O 1219   7.717   8.903   2.601
  326WAT     H1 1220   7.635   8.892   2.545
  326WAT     H2 1221   7.797   8.914   2.542
  327WAT      O 1222   1.441   6.587   2.845
  327WAT     H1 1223   1.476   6.633   2.764
  327WAT     H2 1224   1.482   6.496   2.852
  328WAT      O 1225   8.529   5.435   2.689
  328WAT     H1 1226   8.506   5.338   2.687
  328WAT     H2 1227   8.625   5.448   2.664
  329WAT      O 1228   0.723   7.761   1.610
  329WAT     H1 1229   0.729   7.662   1.594
  329WAT     H2 1230   0.653   7.800   1.550
  330WAT      O 1231   5.057   4.089   2.632
  330WAT     H1 1232   5.019   4.176   2.601
  330WAT     H2 1233   4.982   4.027   2.655
  331WAT      O 1234   7.907   4.932   8.306
  331WAT     H1 1235   7.846   4.903   8.380
  331WAT     H2 1236   7.890   5.028   8.285
  332WAT      O 1237   5.577   1.259   8.424
  332WAT     H1 1238   5.490   1.253   8.376
  332WAT     H2 1239   5.560   1.269   8.522
  333WAT      O 1240   1.540   8.579   1.262
  333WAT     H1 1241   1.640   8.573   1.265
  333WAT     H2 1242   1.512   8.672   1.287
  334WAT      O 1243   7.943   1.930   8.028
  334WAT     H1 1244   7.866   1.908   7.968
  334WAT     H2 1245   7.956   1.857   8.095
  335WAT      O 1246   7.114   7.332   7.360
  335WAT     H1 1247   7.120   7.238   7.391
  335WAT     H2 1248   7.081   7.390   7.434
  336WAT      O 1249   3.788   0.480   7.880
  336WAT     H1 1250   3.872   0.456   7.831
  336WAT     H2 1251   3.713   0.491   7.814
  337WAT      O 1252   7.287   9.706   3.459
  337WAT     H1 1253   7.231   9.624   3.447
  337WAT     H2 1254   7.351   9.692   3.534
  338WAT      O 1255   7.404   0.462   2.542
  338WAT     H1 1256   7.363   0.489   2.629
  338WAT     H2 1257   7.462   0.382   2.556
  339WAT      O 1258   2.544   3.040   6.541
  339WAT     H1 1259   2.555   3.061   6.444
  339WAT     H2 1260   2.530   2.942   6.553
  340WAT      O 1261   7.748   5.393   5.017
  340WAT     H1 1262   7.782   5.485   4.996
  340WAT     H2 1263   7.686   5.363   4.945
  341WAT      O 1264   4.122   6.266   1.016
  341WAT     H1 1265   4.151   6.299   1.105
  341WAT     H2 1266   4.167   6.318   0.944
  342WAT      O 1267   6.269   5.728   2.314
  342WAT     H1 1268   6.323   5.789   2.256
  342WAT     H2 1269   6.279   5.756   2.410
  343WAT      O 1270   6.933   4.488   3.453
  343WAT     H1 1271   7.028   4.505   3.428
  343WAT     H2 1272   6.925   4.478   3.552
  344WAT      O 1273   4.173   5.202   1.133
  344WAT     H1 1274   4.150   5.234   1.041
  344WAT     H2 1275   4.093   5.212   1.192
  345WAT      O 1276   4.649   9.382   4.013
  345WAT     H1 1277   4.595   9.428   3.944
  345WAT     H2 1278   4.628   9.420   4.103
  346WAT      O 1279   6.326   4.669   4.620
  346WAT     H1 1280   6.319   4.751   4.676
  346WAT     H2 1281   6.277   4.594   4.664
  347WAT      O 1282   5.055   3.766   5.335
  347WAT     H1 1283   5.029   3.860   5.357
  347WAT     H2 1284   5.119   3.766   5.259
  348WAT      O 1285  -0.000   9.674   8.713
  348WAT     H1 1286  -0.011   9.592   8.656
  348WAT     H2 1287   0.097   9.699   8.718
  349WAT      O 1288   9.210   2.926   4.830
  349WAT     H1 1289   9.158   2.964   4.753
  349WAT     H2 1290   9.212   2.992   4.905
  350WAT      O 1291   1.518   6.572   1.775
  350WAT     H1 1292   1.539   6.635   1.700
  350WAT     H2 1293   1.603   6.538   1.815
  351WAT      O 1294   8.154   7.373   8.446
  351WAT     H1 1295   8.242   7.396   8.405
  351WAT     H2 1296   8.159   7.282   8.486
  352WAT      O 1297   0.472   8.934   1.743
  352WAT     H1 1298   0.408   9.010   1.755
  352WAT     H2 1299   0.494   8.925   1.646
  353WAT      O 1300   4.418   0.543   7.097
  353WAT     H1 1301   4.325   0.507   7.090
  353WAT     H2 1302   4.473   0.483   7.155
  354WAT      O 1303   3.660   4.155   8.885
  354WAT     H1 1304   3.646   4.175   8.788
  354WAT     H2 1305   3.739   4.206   8.918
  355WAT      O 1306   8.165   1.943   3.525
  355WAT     H1 1307   8.158   2.042   3.509
  355WAT     H2 1308   8.102   1.917   3.599
  356WAT      O 1309   6.046   8.372   4.658
  356WAT     H1 1310   6.028   8.274   4.654
  356WAT     H2 1311   6.145   8.388   4.654
  357WAT      O 1312   8.749   9.421   7.221
  357WAT     H1 1313   8.722   9.358   7.148
  357WAT     H2 1314   8.790   9.502   7.181
  358WAT      O 1315   6.799   4.333   1.866
  358WAT     H1 1316   6.830   4.289   1.782
  358WAT     H2 1317   6.728   4.276   1.909
  359WAT      O 1318   3.694   2.070   2.081
  359WAT     H1 1319   3.728   1.979   2.105
  359WAT     H2 1320   3.691   2.079   1.982
  360WAT      O 1321   4.913   4.930   0.595
  360WAT     H1 1322   4.892   4.964   0.503
  360WAT     H2 1323   4.843   4.962   0.659
  361WAT      O 1324   8.079   3.265   3.851
  361WAT     H1 1325   8.055   3.333   3.920
  361WAT     H2 1326   8.177   3.244   3.858
  362WAT      O 1327   9.695   3.318   0.847
  362WAT     H1 1328   9.678   3.344   0.942
  362WAT     H2 1329   9.635   3.370   0.787
  363WAT      O 1330   0.322   9.598   5.003
  363WAT     H1 1331   0.247   9.593   5.068
  363WAT     H2 1332   0.343   9.694   4.983
  364WAT      O 1333   7.464   4.656   5.916
  364WAT     H1 1334   7.551   4.704   5.930
  364WAT     H2 1335   7.476   4.559   5.937
  365WAT      O 1336   5.357   3.947   5.017
  365WAT     H1 1337   5.418   3.885   4.967
  365WAT     H2 1338   5.408   3.992   5.090
  366WAT      O 1339   5.853   0.461   3.127
  366WAT     H1 1340   5.880   0.402   3.204
  366WAT     H2 1341   5.934   0.503   3.087
  367WAT      O 1342   7.565   1.682   2.524
  367WAT     H1 1343   7.561   1.656   2.620
  367WAT     H2 1344   7.528   1.608   2.468
  368WAT      O 1345   5.734   1.293   0.862
  368WAT     H1 1346   5.739   1.201   0.899
  368WAT     H2 1347   5.639   1.323   0.858
  369WAT      O 1348   2.443   9.605   3.405
  369WAT     H1 1349   2.525   9.552   3.426
  369WAT     H2 1350   2.466   9.676   3.338
  370WAT      O 1351   5.367   7.455   6.526
  370WAT     H1 1352   5.279   7.410   6.510
  370WAT     H2 1353   5.391   7.511   6.447
  371WAT      O 1354   5.150   5.078   3.985
  371WAT     H1 1355   5.097   5.162   3.981
  371WAT     H2 1356   5.093   5.001   3.957
  372WAT      O 1357   9.096   6.883   4.954
  372WAT     H1 1358   9.019   6.821   4.966
  372WAT     H2 1359   9.123   6.886   4.858
  373WAT      O 1360   8.640   2.958   0.970
  373WAT     H1 1361   8.603   2.864   0.970
  373WAT     H2 1362   8.739   2.954   0.976
  374WAT      O 1363   0.362   4.501   1.590
  374WAT     H1 1364   0.350   4.450   1.505
  374WAT     H2 1365   0.274   4.533   1.623
  375WAT      O 1366   8.971   4.000   7.455
  375WAT     H1 1367   8.940   3.991   7.360
  375WAT     H2 1368   8.974   4.097   7.480
  376WAT      O 1369   9.219   2.679   8.086
  376WAT     H1 1370   9.133   2.635   8.113
  376WAT     H2 1371   9.212   2.777   8.102
  377WAT      O 1372   6.159   6.010   9.235
  377WAT     H1 1373   6.184   6.033   9.330
  377WAT     H2 1374   6.093   5.935   9.235
  378WAT      O 1375   1.540   2.191   5.412
  378WAT     H1 1376   1.595   2.211   5.494
  378WAT     H2 1377   1.482   2.112   5.430
  379WAT      O 1378   6.907   9.623   0.140
  379WAT     H1 1379   6.834   9.579   0.088
  379WAT     H2 1380   6.919   9.576   0.228
  380WAT      O 1381   7.296   4.131   0.616
  380WAT     H1 1382   7.287   4.031   0.608
  380WAT     H2 1383   7.210   4.169   0.650
  381WAT      O 1384   4.304   4.510   2.089
  381WAT     H1 1385   4.392   4.478   2.056
  381WAT     H2 1386   4.232   4.446   2.062
  382WAT      O 1387   2.838   9.826   4.619
  382WAT     H1 1388   2.761   9.762   4.620
  382WAT     H2 1389   2.922   9.777   4.598
  383WAT      O 1390   4.972   6.670   5.173
  383WAT     H1 1391   5.042   6.609   5.210
  383WAT     H2 1392   5.007   6.763   5.167
  384WAT      O 1393   8.426   4.567   5.133
  384WAT     H1 1394   8.449   4.507   5.056
  384WAT     H2 1395   8.428   4.514   5.218
  385WAT      O 1396   5.418   0.920   9.384
  385WAT     H1 1397   5.486   0.851   9.360
  385WAT     H2 1398   5.333   0.902   9.334
  386WAT      O 1399   2.748   0.521   5.772
  386WAT     H1 1400   2.749   0.498   5.675
  386WAT     H2 1401   2.839   0.504   5.811
  387WAT      O 1402   9.712   7.315   2.531
  387WAT     H1 1403   9.764   7.383   2.583
  387WAT     H2 1404   9.669   7.251   2.595
  388WAT      O 1405   1.770   8.739   2.253
  388WAT     H1 1406   1.675   8.709   2.250
  388WAT     H2 1407   1.829   8.663   2.280
  389WAT      O 1408   1.365   4.392   6.730
  389WAT     H1 1409   1.289   4.443   6.690
  389WAT     H2 1410   1.416   4.345   6.658
  390WAT      O 1411   5.304   7.587   3.083
  390WAT     H1 1412   5.300   7.684   3.106
  390WAT     H2 1413   5.230   7.565   3.019
  391WAT      O 1414   4.558   4.844   9.670
  391WAT     H1 1415   4.503   4.772   9.713
  391WAT     H2 1416   4.566   4.921   9.733
  392WAT      O 1417   1.422   7.651   6.552
  392WAT     H1 1418   1.442   7.719   6.482
  392WAT     H2 1419   1.339   7.601   6.527
  393WAT      O 1420   9.295   4.483   3.015
  393WAT     H1 1421   9.327   4.470   3.109
  393WAT     H2 1422   9.292   4.580   2.994
  394WAT      O 1423   5.512   0.733   6.924
  394WAT     H1 1424   5.443   0.661   6.931
  394WAT     H2 1425   5.467   0.823   6.922
  395WAT      O 1426   3.728   0.163   9.726
  395WAT     H1 1427   3.817   0.186   9.687
  395WAT     H2 1428   3.656   0.207   9.672
  396WAT      O 1429   2.059   6.851   4.730
  396WAT     H1 1430   2.152   6.831   4.698
  396WAT     H2 1431   2.007   6.766   4.739
  397WAT      O 1432   0.608   0.451   0.950
  397WAT     H1 1433   0.676   0.520   0.975
  397WAT     H2 1434   0.641   0.401   0.869
  398WAT      O 1435   9.741   0.457   2.965
  398WAT     H1 1436   9.776   0.473   3.058
  398WAT     H2 1437   9.768   0.366   2.935
  399WAT      O 1438   5.145   3.864   2.243
  399WAT     H1 1439   5.241   3.837   2.242
  399WAT     H2 1440   5.092   3.797   2.296
  400WAT      O 1441   4.101   6.854   9.813
  400WAT     H1 1442   4.178   6.790   9.817
  400WAT     H2 1443   4.038   6.827   9.741
  401WAT      O 1444   2.555   6.959   1.308
  401WAT     H1 1445   2.636   6.970   1.365
  401WAT     H2 1446   2.575   6.895   1.234
  402WAT      O 1447   3.320   0.120   2.082
  402WAT     H1 1448   3.252   0.175   2.034
  402WAT     H2 1449   3.299   0.120   2.180
  403WAT      O 1450   7.475   9.606   8.585
  403WAT     H1 1451   7.399   9.628   8.524
  403WAT     H2 1452   7.479   9.507   8.600
  404WAT      O 1453   1.764   0.937   0.891
  404WAT     H1 1454   1.726   0.923   0.799
  404WAT     H2 1455   1.696   0.983   0.948
  405WAT      O 1456   3.995   7.994   6.428
  405WAT     H1 1457   4.005   7.991   6.329
  405WAT     H2 1458   4.083   8.017   6.470
  406WAT      O 1459   6.300   7.940   4.909
  406WAT     H1 1460   6.377   7.999   4.886
  406WAT     H2 1461   6.321   7.846   4.883
  407WAT      O 1462   3.534   0.765   0.983
  407WAT     H1 1463   3.623   0.809   0.975
  407WAT     H2 1464   3.488   0.798   1.066
  408WAT      O 1465   4.482   7.508   8.226
  408WAT     H1 1466   4.488   7.486   8.129
  408WAT     H2 1467   4.469   7.424   8.279
  409WAT      O 1468   8.738   8.762   9.668
  409WAT     H1 1469   8.676   8.837   9.689
  409WAT     H2 1470   8.686   8.685   9.630
  410WAT      O 1471   9.459   2.078   9.022
  410WAT     H1 1472   9.423   1.986   9.004
  410WAT     H2 1473   9.397   2.128   9.082
  411WAT      O 1474   0.957   4.039   8.939
  411WAT     H1 1475   1.040   3.991   8.969
  411WAT     H2 1476   0.910   3.984   8.870
  412WAT      O 1477   3.567   7.093   0.536
  412WAT     H1 1478   3.605   7.185   0.541
  412WAT     H2 1479   3.516   7.074   0.619
  413WAT      O 1480   7.806   7.430   6.297
  413WAT     H1 1481   7.798   7.521   6.338
  413WAT     H2 1482   7.846   7.438   6.205
  414WAT      O 1483   5.594   6.319   5.133
  414WAT     H1 1484   5.506   6.290   5.096
  414WAT     H2 1485   5.665   6.307   5.063
  415WAT      O 1486   0.482   8.414   8.592
  415WAT     H1 1487   0.396   8.387   8.637
  415WAT     H2 1488   0.557   8.409   8.658
  416WAT      O 1489   8.978   2.120   4.300
  416WAT     H1 1490   8.965   2.219   4.291
  416WAT     H2 1491   9.060   2.093   4.251
  417WAT      O 1492   9.211   2.387   3.784
  417WAT     H1 1493   9.240   2.483   3.786
  417WAT     H2 1494   9.242   2.345   3.698
  418WAT      O 1495   1.558   7.984   5.063
  418WAT     H1 1496   1.658   7.984   5.067
  418WAT     H2 1497   1.524   8.077   5.080
  419WAT      O 1498   5.143   3.884   1.385
  419WAT     H1 1499   5.125   3.981   1.398
  419WAT     H2 1500   5.174   3.843   1.470
  420WAT      O 1501   2.186   2.509   0.012
  420WAT     H1 1502   2.099   2.462  -0.004
  420WAT     H2 1503   2.183   2.557   0.099
  421WAT      O 1504   0.288   7.490   8.022
  421WAT     H1 1505   0.288   7.553   8.100
  421WAT     H2 1506   0.249   7.402   8.051
  422WAT      O 1507   3.412   8.603   9.373
  422WAT     H1 1508   3.406   8.572   9.278
  422WAT     H2 1509   3.442   8.527   9.431
  423WAT      O 1510   4.408   5.423   8.554
  423WAT     H1 1511   4.420   5.336   8.505
  423WAT     H2 1512   4.486   5.437   8.615
  424WAT      O 1513   0.341   7.624   3.614
  424WAT     H1 1514   0.387   7.671   3.689
  424WAT     H2 1515   0.242   7.635   3.624
  425WAT      O 1516   3.932   9.773   4.818
  425WAT     H1 1517   3.920   9.842   4.890
  425WAT     H2 1518   4.007   9.800   4.758
  426WAT      O 1519   5.706   8.078   4.122
  426WAT     H1 1520   5.674   8.172   4.106
  426WAT     H2 1521   5.650   8.035   4.193
  427WAT      O 1522   3.853   5.170   6.962
  427WAT     H1 1523   3.885   5.096   6.903
  427WAT     H2 1524   3.919   5.245   6.961
  428WAT      O 1525   3.092   6.312   8.020
  428WAT     H1 1526   3.115   6.368   8.099
  428WAT     H2 1527   2.993   6.304   8.011
  429WAT      O 1528   8.768   3.941   9.873
  429WAT     H1 1529   8.701   4.015   9.867
  429WAT     H2 1530   8.730   3.866   9.927
  430WAT      O 1531   8.989   2.097   0.486
  430WAT     H1 1532   8.920   2.059   0.548
  430WAT     H2 1533   8.975   2.060   0.394
  431WAT      O 1534   7.133   0.772   8.309
  431WAT     H1 1535   7.164   0.852   8.259
  431WAT     H2 1536   7.194   0.695   8.290
  432WAT      O 1537   0.227   2.721   5.934
  432WAT     H1 1538   0.176   2.765   5.860
  432WAT     H2 1539   0.313   2.685   5.899
  433WAT      O 1540   5.749   4.710   7.971
  433WAT     H1 1541   5.711   4.701   7.879
  433WAT     H2 1542   5.727   4.628   8.024
  434WAT      O 1543   3.934   3.037   6.145
  434WAT     H1 1544   4.005   3.081   6.089
  434WAT     H2 1545   3.960   2.942   6.162
  435WAT      O 1546   6.536   7.638   6.602
  435WAT     H1 1547   6.442   7.663   6.625
  435WAT     H2 1548   6.599   7.698   6.651
  436WAT      O 1549   9.008   9.033   4.802
  436WAT     H1 1550   8.951   9.015   4.722
  436WAT     H2 1551   9.097   9.067   4.773
  437WAT      O 1552   8.844   5.458   2.241
  437WAT     H1 1553   8.887   5.527   2.183
  437WAT     H2 1554   8.750   5.485   2.260
  438WAT      O 1555   5.506   3.894   7.641
  438WAT     H1 1556   5.569   3.969   7.622
  438WAT     H2 1557   5.424   3.905   7.586
  439WAT      O 1558   9.686   5.985   7.513
  439WAT     H1 1559   9.652   5.937   7.594
  439WAT     H2 1560   9.613   6.041   7.474
  440WAT      O 1561   4.990   3.506   7.506
  440WAT     H1 1562   5.044   3.530   7.587
  440WAT     H2 1563   5.007   3.410   7.483
  441WAT      O 1564   1.999   2.400   3.923
  441WAT     H1 1565   1.952   2.473   3.973
  441WAT     H2 1566   1.974   2.403   3.826
  442WAT      O 1567   6.674   1.318   1.612
  442WAT     H1 1568   6.671   1.412   1.645
  442WAT     H2 1569   6.756   1.273   1.647
  443WAT      O 1570   2.996   5.371   8.490
  443WAT     H1 1571   2.998   5.389   8.392
  443WAT     H2 1572   3.006   5.272   8.506
  444WAT      O 1573   6.483   5.268   5.326
  444WAT     H1 1574   6.535   5.352   5.341
  444WAT     H2 1575   6.385   5.290   5.323
  445WAT      O 1576   9.208   4.397   4.151
  445WAT     H1 1577   9.277   4.456   4.109
  445WAT     H2 1578   9.221   4.395   4.250
  446WAT      O 1579   3.660   3.168   0.481
  446WAT     H1 1580   3.607   3.099   0.430
  446WAT     H2 1581   3.634   3.165   0.577
  447WAT      O 1582   6.634   7.518   4.380
  447WAT     H1 1583   6.631   7.454   4.457
  447WAT     H2 1584   6.636   7.466   4.295
  448WAT      O 1585   3.119   6.508   2.426
  448WAT     H1 1586   3.157   6.561   2.502
  448WAT     H2 1587   3.045   6.559   2.384
  449WAT      O 1588   6.768   6.638   4.556
  449WAT     H1 1589   6.779   6.594   4.646
  449WAT     H2 1590   6.856   6.641   4.510
  450WAT      O 1591   1.930   3.601   6.704
  450WAT     H1 1592   1.851   3.590   6.644
  450WAT     H2 1593   1.963   3.512   6.734
  451WAT      O 1594   6.213   8.231   5.637
  451WAT     H1 1595   6.215   8.164   5.711
  451WAT     H2 1596   6.160   8.311   5.665
  452WAT      O 1597   2.764   2.417   3.385
  452WAT     H1 1598   2.813   2.501   3.364
  452WAT     H2 1599   2.666   2.432   3.373
  453WAT      O 1600   3.289   0.556   4.509
  453WAT     H1 1601   3.337   0.631   4.464
  453WAT     H2 1602   3.234   0.507   4.441
  454WAT      O 1603   8.721   4.780   4.915
  454WAT     H1 1604   8.630   4.787   4.954
  454WAT     H2 1605   8.787   4.825   4.976
  455WAT      O 1606   4.015   1.235   7.213
  455WAT     H1 1607   4.080   1.193   7.276
  455WAT     H2 1608   4.058   1.243   7.123
  456WAT      O 1609   8.087   3.279   0.613
  456WAT     H1 1610   8.059   3.339   0.688
  456WAT     H2 1611   8.047   3.189   0.626
  457WAT      O 1612   1.451   5.496   5.733
  457WAT     H1 1613   1.531   5.512   5.790
  457WAT     H2 1614   1.392   5.576   5.734
  458WAT      O 1615   8.070   9.674   8.274
  458WAT     H1 1616   8.097   9.579   8.258
  458WAT     H2 1617   8.127   9.713   8.347
  459WAT      O 1618   4.682   5.321   3.571
  459WAT     H1 1619   4.734   5.244   3.534
  459WAT     H2 1620   4.587   5.316   3.540
  460WAT      O 1621   4.073   1.078   8.571
  460WAT     H1 1622   3.992   1.136   8.556
  460WAT     H2 1623   4.066   0.996   8.514
  461WAT      O 1624   1.105   3.334   8.260
  461WAT     H1 1625   1.058   3.347   8.172
  461WAT     H2 1626   1.039   3.345   8.334
  462WAT      O 1627   8.879   4.872   9.761
  462WAT     H1 1628   8.933   4.913   9.834
  462WAT     H2 1629   8.938   4.815   9.704
  463WAT      O 1630   2.897   3.247   6.174
  463WAT     H1 1631   2.978   3.306   6.176
  463WAT     H2 1632   2.924   3.152   6.157
  464WAT      O 1633   1.074   5.723   0.326
  464WAT     H1 1634   0.991   5.745   0.276
  464WAT     H2 1635   1.108   5.805   0.372
  465WAT      O 1636   4.647   3.529   4.683
  465WAT     H1 1637   4.553   3.500   4.665
  465WAT     H2 1638   4.693   3.460   4.739
  466WAT      O 1639   4.349   7.539   8.646
  466WAT     H1 1640   4.394   7.589   8.573
  466WAT     H2 1641   4.253   7.568   8.652
  467WAT      O 1642   5.592   6.653   9.600
  467WAT     H1 1643   5.672   6.675   9.543
  467WAT     H2 1644   5.515   6.711   9.574
  468WAT      O 1645   2.934   3.507   8.863
  468WAT     H1 1646   2.881   3.448   8.924
  468WAT     H2 1647   2.912   3.603   8.883
  469WAT      O 1648   4.208   6.946   5.098
  469WAT     H1 1649   4.292   6.984   5.060
  469WAT     H2 1650   4.200   6.972   5.194
  470WAT      O 1651   8.931   4.122   1.845
  470WAT     H1 1652   8.926   4.101   1.943
  470WAT     H2 1653   9.009   4.074   1.805
  471WAT      O 1654   7.767   0.829   9.238
  471WAT     H1 1655   7.800   0.832   9.333
  471WAT     H2 1656   7.798   0.744   9.195
  472WAT      O 1657   6.940   1.581   1.546
  472WAT     H1 1658   6.922   1.622   1.456
  472WAT     H2 1659   6.857   1.587   1.602
  473WAT      O 1660   2.185   5.339   8.346
  473WAT     H1 1661   2.098   5.295   8.366
  473WAT     H2 1662   2.186   5.369   8.250
  474WAT      O 1663   5.108   4.527   7.862
  474WAT     H1 1664   5.016   4.565   7.872
  474WAT     H2 1665   5.170   4.599   7.831
  475WAT      O 1666   0.140   0.901   6.589
  475WAT     H1 1667   0.166   0.805   6.575
  475WAT     H2 1668   0.197   0.941   6.660
  476WAT      O 1669   9.266   5.484   3.797
  476WAT     H1 1670   9.173   5.452   3.814
  476WAT     H2 1671   9.268   5.540   3.714
  477WAT      O 1672   1.618   2.218   4.787
  477WAT     H1 1673   1.630   2.300   4.842
  477WAT     H2 1674   1.602   2.139   4.846
  478WAT      O 1675   8.423   0.107   1.176
  478WAT     H1 1676   8.412   0.009   1.194
  478WAT     H2 1677   8.348   0.139   1.118
  479WAT      O 1678   4.352   4.208   9.784
  479WAT     H1 1679   4.450   4.219   9.771
  479WAT     H2 1680   4.323   4.259   9.866
  480WAT      O 1681   8.075   8.635   1.601
  480WAT     H1 1682   8.132   8.626   1.683
  480WAT     H2 1683   8.113   8.580   1.527
  481WAT      O 1684   7.043   2.097   9.706
  481WAT     H1 1685   6.954   2.121   9.745
  481WAT     H2 1686   7.044   2.121   9.609
  482WAT      O 1687   8.998   2.727   3.885
  482WAT     H1 1688   8.959   2.682   3.804
  482WAT     H2 1689   9.019   2.822   3.863
  483WAT      O 1690   2.029   5.122   8.090
  483WAT     H1 1691   1.950   5.131   8.151
  483WAT     H2 1692   2.003   5.068   8.010
  484WAT      O 1693   1.309   2.845   0.059
  484WAT     H1 1694   1.317   2.785  -0.021
  484WAT     H2 1695   1.395   2.891   0.075
  485WAT      O 1696   5.807   2.903   6.690
  485WAT     H1 1697   5.813   2.824   6.751
  485WAT     H2 1698   5.739   2.884   6.619
  486WAT      O 1699   0.563   0.258   2.707
  486WAT     H1 1700   0.541   0.239   2.611
  486WAT     H2 1701   0.491   0.313   2.747
  487WAT      O 1702   7.900   8.511   5.400
  487WAT     H1 1703   7.941   8.420   5.396
  487WAT     H2 1704   7.800   8.502   5.398
  488WAT      O 1705   8.195   5.803   7.605
  488WAT     H1 1706   8.260   5.735   7.640
  488WAT     H2 1707   8.104   5.783   7.641
  489WAT      O 1708   6.190   0.314   0.618
  489WAT     H1 1709   6.251   0.377   0.666
  489WAT     H2 1710   6.108   0.364   0.588
  490WAT      O 1711   2.060   3.143   9.644
  490WAT     H1 1712   2.133   3.201   9.679
  490WAT     H2 1713   2.058   3.057   9.695
  491WAT      O 1714   8.897   2.516   6.934
  491WAT     H1 1715   8.844   2.555   7.009
  491WAT     H2 1716   8.854   2.540   6.847
  492WAT      O 1717   6.614   8.855   8.128
  492WAT     H1 1718   6.533   8.819   8.081
  492WAT     H2 1719   6.692   8.794   8.112
  493WAT      O 1720   1.461   0.574   7.898
  493WAT     H1 1721   1.448   0.576   7.997
  493WAT     H2 1722   1.428   0.486   7.862
  494WAT      O 1723   6.066   7.691   5.042
  494WAT     H1 1724   6.158   7.718   5.073
  494WAT     H2 1725   6.070   7.670   4.944
  495WAT      O 1726   2.686   7.636   5.123
  495WAT     H1 1727   2.693   7.546   5.166
  495WAT     H2 1728   2.608   7.685   5.160
  496WAT      O 1729   1.157   5.091   7.861
  496WAT     H1 1730   1.194   5.171   7.814
  496WAT     H2 1731   1.132   5.021   7.794
  497WAT      O 1732   2.798   7.115   9.277
  497WAT     H1 1733   2.882   7.106   9.223
  497WAT     H2 1734   2.820   7.157   9.365
  498WAT      O 1735   3.892   0.596   3.726
  498WAT     H1 1736   3.809   0.625   3.679
  498WAT     H2 1737   3.892   0.631   3.819
  499WAT      O 1738   7.994   5.965   3.637
  499WAT     H1 1739   7.972   5.868   3.653
  499WAT     H2 1740   7.986   6.015   3.723
  500WAT      O 1741   0.361   2.060   1.284
  500WAT     H1 1742   0.284   2.101   1.334
  500WAT     H2 1743   0.418   2.008   1.347
  501WAT      O 1744   6.450   8.848   7.048
  501WAT     H1 1745   6.400   8.917   7.099
  501WAT     H2 1746   6.459   8.876   6.952
  502WAT      O 1747   0.251   1.679   2.003
  502WAT     H1 1748   0.291   1.757   2.051
  502WAT     H2 1749   0.203   1.712   1.921
  503WAT      O 1750   0.154   4.831   6.668
  503WAT     H1 1751   0.195   4.795   6.584
  503WAT     H2 1752   0.119   4.923   6.651
  504WAT      O 1753   9.726   3.678   0.313
  504WAT     H1 1754   9.676   3.624   0.245
  504WAT     H2 1755   9.669   3.754   0.344
  505WAT      O 1756   0.810   4.056   3.265
  505WAT     H1 1757   0.831   4.014   3.353
  505WAT     H2 1758   0.876   4.026   3.197
  506WAT      O 1759   6.806   4.259   3.390
  506WAT     H1 1760   6.865   4.335   3.418
  506WAT     H2 1761   6.713   4.293   3.374
  507WAT      O 1762   4.970   4.346   7.688
  507WAT     H1 1763   4.884   4.305   7.719
  507WAT     H2 1764   5.014   4.395   7.764
  508WAT      O 1765   2.670   8.514   8.893
  508WAT     H1 1766   2.621   8.531   8.979
  508WAT     H2 1767   2.695   8.417   8.887
  509WAT      O 1768   2.688   8.974   6.283
  509WAT     H1 1769   2.694   9.012   6.375
  509WAT     H2 1770   2.778   8.981   6.238
  510WAT      O 1771   8.780   3.611   7.778
  510WAT     H1 1772   8.828   3.524   7.768
  510WAT     H2 1773   8.821   3.679   7.716
  511WAT      O 1774   5.905   6.034   4.861
  511WAT     H1 1775   5.997   6.053   4.827
  511WAT     H2 1776   5.874   6.108   4.920
  512WAT      O 1777   5.355   1.317   4.528
  512WAT     H1 1778   5.441   1.354   4.564
  512WAT     H2 1779   5.375   1.239   4.468
  513WAT      O 1780   1.006   3.903   4.487
  513WAT     H1 1781   1.026   3.862   4.576
  513WAT     H2 1782   0.992   3.830   4.419
  514WAT      O 1783   1.946   6.348   9.007
  514WAT     H1 1784   1.923   6.333   9.103
  514WAT     H2 1785   1.993   6.435   8.997
  515WAT      O 1786   0.816   1.396   9.472
  515WAT     H1 1787   0.786   1.388   9.377
  515WAT     H2 1788   0.762   1.467   9.518
  516WAT      O 1789   1.061   8.499   7.794
  516WAT     H1 1790   0.993   8.462   7.857
  516WAT     H2 1791   1.105   8.424   7.745
  517WAT      O 1792   7.515   2.433   9.807
  517WAT     H1 1793   7.438   2.369   9.807
  517WAT     H2 1794   7.601   2.382   9.809
  518WAT      O 1795   9.819   2.317   4.412
  518WAT     H1 1796   9.776   2.241   4.460
  518WAT     H2 1797   9.781   2.324   4.320
  519WAT      O 1798   6.563   7.084   3.314
  519WAT     H1 1799   6.511   7.127   3.388
  519WAT     H2 1800   6.529   6.991   3.299
  520WAT      O 1801   4.148   6.130   8.226
  520WAT     H1 1802   4.203   6.200   8.182
  520WAT     H2 1803   4.051   6.150   8.210
  521WAT      O 1804   3.878   8.945   7.409
  521WAT     H1 1805   3.954   8.946   7.475
  521WAT     H2 1806   3.791   8.942   7.459
  522WAT      O 1807   1.047   1.472   1.119
  522WAT     H1 1808   0.966   1.477   1.179
  522WAT     H2 1809   1.126   1.507   1.168
  523WAT      O 1810   8.515   7.318   9.880
  523WAT     H1 1811   8.602   7.273   9.903
  523WAT     H2 1812   8.445   7.248   9.865
  524WAT      O 1813   5.132   7.907   7.016
  524WAT     H1 1814   5.041   7.893   6.976
  524WAT     H2 1815   5.196   7.843   6.976
  525WAT      O 1816   8.736   3.901   2.542
  525WAT     H1 1817   8.694   3.929   2.456
  525WAT     H2 1818   8.665   3.866   2.603
  526WAT      O 1819   0.774   7.872   1.202
  526WAT     H1 1820   0.858   7.925   1.213
  526WAT     H2 1821   0.796   7.781   1.166
  527WAT      O 1822   3.226   6.076   9.539
  527WAT     H1 1823   3.168   6.130   9.478
  527WAT     H2 1824   3.261   6.135   9.612
  528WAT      O 1825   6.589   8.301   8.066
  528WAT     H1 1826   6.575   8.336   7.974
  528WAT     H2 1827   6.587   8.377   8.132
  529WAT      O 1828   9.536   7.867   6.505
  529WAT     H1 1829   9.584   7.834   6.586
  529WAT     H2 1830   9.522   7.966   6.512
  530WAT      O 1831   4.729   7.226   4.249
  530WAT     H1 1832   4.779   7.205   4.333
  530WAT     H2 1833   4.698   7.321   4.252
  531WAT      O 1834   3.516   5.573   1.754
  531WAT     H1 1835   3.547   5.557   1.847
  531WAT     H2 1836   3.541   5.496   1.696
  532WAT      O 1837   1.418   1.520   3.169
  532WAT     H1 1838   1.365   1.501   3.251
  532WAT     H2 1839   1.385   1.604   3.126
  533WAT      O 1840   7.371   9.762   6.462
  533WAT     H1 1841   7.308   9.702   6.412
  533WAT     H2 1842   7.425   9.708   6.526
  534WAT      O 1843   4.279   8.617   9.836
  534WAT     H1 1844   4.362   8.580   9.794
  534WAT     H2 1845   4.304   8.672   9.916
  535WAT      O 1846   8.274   1.070   2.488
  535WAT     H1 1847   8.365   1.041   2.459
  535WAT     H2 1848   8.259   1.046   2.584
  536WAT      O 1849   4.037   9.405   5.090
  536WAT     H1 1850   4.085   9.437   5.009
  536WAT     H2 1851   3.954   9.460   5.104
  537WAT      O 1852   4.002   0.543   1.755
  537WAT     H1 1853   4.022   0.639   1.739
  537WAT     H2 1854   4.060   0.508   1.829
  538WAT      O 1855   5.420   8.069   3.621
  538WAT     H1 1856   5.485   7.993   3.628
  538WAT     H2 1857   5.461   8.151   3.661
  539WAT      O 1858   3.245   4.004   1.912
  539WAT     H1 1859   3.175   3.988   1.842
  539WAT     H2 1860   3.206   3.990   2.002
  540WAT      O 1861   0.796   1.752   1.942
  540WAT     H1 1862   0.892   1.782   1.944
  540WAT     H2 1863   0.789   1.667   1.890
  541WAT      O 1864   2.781   4.375   5.156
  541WAT     H1 1865   2.764   4.386   5.058
  541WAT     H2 1866   2.706   4.322   5.197
  542WAT      O 1867   3.167   8.735   2.339
  542WAT     H1 1868   3.180   8.778   2.249
  542WAT     H2 1869   3.092   8.780   2.387
  543WAT      O 1870   8.991   3.048   5.688
  543WAT     H1 1871   8.966   3.131   5.738
  543WAT     H2 1872   8.925   3.033   5.615
  544WAT      O 1873   5.720   0.348   7.397
  544WAT     H1 1874   5.631   0.377   7.434
  544WAT     H2 1875   5.719   0.249   7.381
  545WAT      O 1876   3.300   0.370   3.977
  545WAT     H1 1877   3.341   0.447   4.025
  545WAT     H2 1878   3.282   0.396   3.882
  546WAT      O 1879   0.570   1.513   9.845
  546WAT     H1 1880   0.643   1.535   9.909
  546WAT     H2 1881   0.543   1.417   9.857
  547WAT      O 1882   2.509   0.877   2.380
  547WAT     H1 1883   2.410   0.866   2.389
  547WAT     H2 1884   2.530   0.917   2.290
  548WAT      O 1885   7.592   6.754   8.258
  548WAT     H1 1886   7.656   6.716   8.325
  548WAT     H2 1887   7.622   6.845   8.232
  549WAT      O 1888   9.075   8.175   4.808
  549WAT     H1 1889   9.099   8.264   4.845
  549WAT     H2 1890   9.050   8.184   4.712
  550WAT      O 1891   2.105   6.861   0.486
  550WAT     H1 1892   2.068   6.824   0.571
  550WAT     H2 1893   2.033   6.864   0.416
  551WAT      O 1894   5.178   5.678   8.299
  551WAT     H1 1895   5.108   5.749   8.290
  551WAT     H2 1896   5.250   5.711   8.361
  552WAT      O 1897   8.110   5.204   5.721
  552WAT     H1 1898   8.132   5.147   5.642
  552WAT     H2 1899   8.084   5.296   5.690
  553WAT      O 1900   7.129   1.489   2.060
  553WAT     H1 1901   7.161   1.580   2.032
  553WAT     H2 1902   7.072   1.451   1.988
  554WAT      O 1903   5.382   6.736   9.884
  554WAT     H1 1904   5.320   6.801   9.840
  554WAT     H2 1905   5.382   6.651   9.831
  555WAT      O 1906   3.096   9.770   4.564
  555WAT     H1 1907   3.186   9.804   4.589
  555WAT     H2 1908   3.091   9.672   4.583
  556WAT      O 1909   7.675   5.284   9.686
  556WAT     H1 1910   7.649   5.332   9.771
  556WAT     H2 1911   7.596   5.278   9.625
  557WAT      O 1912   7.249   2.561   0.699
  557WAT     H1 1913   7.296   2.546   0.786
  557WAT     H2 1914   7.313   2.547   0.624
  558WAT      O 1915   1.712   3.464   5.739
  558WAT     H1 1916   1.792   3.515   5.769
  558WAT     H2 1917   1.730   3.422   5.650
  559WAT      O 1918   7.174   3.749   1.057
  559WAT     H1 1919   7.184   3.789   1.147
  559WAT     H2 1920   7.228   3.801   0.991
  560WAT      O 1921   1.072   5.367   7.176
  560WAT     H1 1922   1.022   5.452   7.157
  560WAT     H2 1923   1.170   5.385   7.179
  561WAT      O 1924   9.804   9.298   1.368
  561WAT     H1 1925   9.784   9.265   1.276
  561WAT     H2 1926   9.902   9.317   1.376
  562WAT      O 1927   1.753   3.069   3.922
  562WAT     H1 1928   1.762   3.157   3.967
  562WAT     H2 1929   1.814   3.002   3.966
  563WAT      O 1930   2.669   8.486   6.821
  563WAT     H1 1931   2.759   8.528   6.809
  563WAT     H2 1932   2.678   8.387   6.812
  564WAT      O 1933   5.414   6.564   4.491
  564WAT     H1 1934   5.432   6.488   4.553
  564WAT     H2 1935   5.438   6.537   4.398
  565WAT      O 1936   0.071   2.609   5.548
  565WAT     H1 1937   0.115   2.526   5.585
  565WAT     H2 1938   0.118   2.636   5.464
  566WAT      O 1939   8.726   5.245   7.565
  566WAT     H1 1940   8.814   5.248   7.610
  566WAT     H2 1941   8.737   5.211   7.471
  567WAT      O 1942   4.520   1.329   0.369
  567WAT     H1 1943   4.474   1.414   0.393
  567WAT     H2 1944   4.607   1.323   0.418
  568WAT      O 1945   4.947   0.655   0.336
  568WAT     H1 1946   5.034   0.686   0.298
  568WAT     H2 1947   4.951   0.662   0.436
  569WAT      O 1948   0.093   6.127   3.688
  569WAT     H1 1949   0.175   6.072   3.671
  569WAT     H2 1950   0.077   6.134   3.786
  570WAT      O 1951   1.723   0.755   3.287
  570WAT     H1 1952   1.781   0.776   3.209
  570WAT     H2 1953   1.647   0.819   3.291
  571WAT      O 1954   4.623   4.846   7.321
  571WAT     H1 1955   4.649   4.910   7.393
  571WAT     H2 1956   4.693   4.846   7.249
  572WAT      O 1957   9.407   3.258   2.442
  572WAT     H1 1958   9.467   3.181   2.418
  572WAT     H2 1959   9.324   3.222   2.486
  573WAT      O 1960   6.909   3.537   2.703
  573WAT     H1 1961   6.855   3.576   2.778
  573WAT     H2 1962   6.935   3.609   2.639
  574WAT      O 1963   0.422   3.393   1.092
  574WAT     H1 1964   0.361   3.442   1.030
  574WAT     H2 1965   0.440   3.451   1.172
  575WAT      O 1966   0.482   6.335   9.641
  575WAT     H1 1967   0.519   6.354   9.549
  575WAT     H2 1968   0.538   6.382   9.709
  576WAT      O 1969   4.298   5.710   3.004
  576WAT     H1 1970   4.386   5.737   2.967
  576WAT     H2 1971   4.298   5.612   3.022
  577WAT      O 1972   1.346   7.237   6.595
  577WAT     H1 1973   1.304   7.201   6.511
  577WAT     H2 1974   1.279   7.236   6.669
  578WAT      O 1975   4.864   8.754   4.405
  578WAT     H1 1976   4.781   8.798   4.441
  578WAT     H2 1977   4.916   8.715   4.480
  579WAT      O 1978   2.011   9.141   8.034
  579WAT     H1 1979   2.008   9.064   7.970
  579WAT     H2 1980   1.941   9.130   8.104
  580WAT      O 1981   4.764   7.096   6.353
  580WAT     H1 1982   4.744   7.193   6.341
  580WAT     H2 1983   4.679   7.044   6.358
  581WAT      O 1984   0.195   6.342   5.859
  581WAT     H1 1985   0.154   6.430   5.881
  581WAT     H2 1986   0.260   6.317   5.931
  582WAT      O 1987   2.810   9.766   5.289
  582WAT     H1 1988   2.901   9.796   5.263
  582WAT     H2 1989   2.784   9.807   5.376
  583WAT      O 1990   6.713   2.983   1.825
  583WAT     H1 1991   6.777   3.051   1.858
  583WAT     H2 1992   6.751   2.937   1.744
  584WAT      O 1993   8.615   0.915   4.971
  584WAT     H1 1994   8.661   0.853   5.035
  584WAT     H2 1995   8.544   0.967   5.020
  585WAT      O 1996   8.041   3.952   9.257
  585WAT     H1 1997   8.020   4.017   9.330
  585WAT     H2 1998   8.140   3.939   9.251
  586WAT      O 1999   4.429   6.033   7.772
  586WAT     H1 2000   4.394   6.122   7.741
  586WAT     H2 2001   4.529   6.036   7.775
  587WAT      O 2002   6.562   3.294   1.998
  587WAT     H1 2003   6.523   3.287   1.907
  587WAT     H2 2004   6.559   3.389   2.029
  588WAT      O 2005   1.204   0.860   0.458
  588WAT     H1 2006   1.184   0.958   0.455
  588WAT     H2 2007   1.233   0.829   0.368
  589WAT      O 2008   7.491   7.191   4.284
  589WAT     H1 2009   7.520   7.128   4.356
  589WAT     H2 2010   7.539   7.277   4.292
  590WAT      O 2011   0.725   0.333   4.811
  590WAT     H1 2012   0.815   0.353   4.774
  590WAT     H2 2013   0.701   0.402   4.879
  591WAT      O 2014   1.747   4.696   2.302
  591WAT     H1 2015   1.733   4.646   2.217
  591WAT     H2 2016   1.833   4.746   2.298
  592WAT      O 2017   8.287   7.443   9.010
  592WAT     H1 2018   8.221   7.512   8.981
  592WAT     H2 2019   8.296   7.374   8.938
  593WAT      O 2020   4.920   0.441   5.041
  593WAT     H1 2021   4.851   0.378   5.077
  593WAT     H2 2022   5.009   0.397   5.042
  594WAT      O 2023   1.387   3.434   5.365
  594WAT     H1 2024   1.322   3.495   5.318
  594WAT     H2 2025   1.473   3.483   5.380
  595WAT      O 2026   8.904   6.809   5.789
  595WAT     H1 2027   8.938   6.804   5.882
  595WAT     H2 2028   8.815   6.855   5.788
  596WAT      O 2029   6.497   3.503   4.203
  596WAT     H1 2030   6.426   3.557   4.156
  596WAT     H2 2031   6.472   3.490   4.299
  597WAT      O 2032   2.613   1.254  -0.002
  597WAT     H1 2033   2.679   1.180  -0.012
  597WAT     H2 2034   2.629   1.302   0.084
  598WAT      O 2035   3.077   6.454   9.574
  598WAT     H1 2036   3.097   6.496   9.663
  598WAT     H2 2037   3.151   6.475   9.511
  599WAT      O 2038   8.817   6.713   8.924
  599WAT     H1 2039   8.834   6.708   9.023
  599WAT     H2 2040   8.897   6.678   8.875
  600WAT      O 2041   9.073   9.121   5.050
  600WAT     H1 2042   9.024   9.073   4.978
  600WAT     H2 2043   9.019   9.199   5.081
  601WAT      O 2044   6.091   3.819   1.558
  601WAT     H1 2045   6.155   3.866   1.619
  601WAT     H2 2046   6.038   3.888   1.507
  602WAT      O 2047   2.151   8.588   0.000
  602WAT     H1 2048   2.172   8.661   0.066
  602WAT     H2 2049   2.060   8.552   0.019
  603WAT      O 2050   5.586   9.473   2.151
  603WAT     H1 2051   5.539   9.385   2.149
  603WAT     H2 2052   5.679   9.460   2.186
  604WAT      O 2053   1.098   0.927   4.290
  604WAT     H1 2054   1.195   0.944   4.308
  604WAT     H2 2055   1.055   0.893   4.374
  605WAT      O 2056   1.201   1.674   0.375
  605WAT     H1 2057   1.112   1.713   0.399
  605WAT     H2 2058   1.240   1.724   0.298
  606WAT      O 2059   3.764   0.403   8.744
  606WAT     H1 2060   3.705   0.322   8.745
  606WAT     H2 2061   3.790   0.427   8.837
  607WAT      O 2062   3.806   8.785   1.667
  607WAT     H1 2063   3.722   8.802   1.616
  607WAT     H2 2064   3.788   8.794   1.765
  608WAT      O 2065   0.497   7.709   5.217
  608WAT     H1 2066   0.540   7.765   5.288
  608WAT     H2 2067   0.541   7.619   5.214
  609WAT      O 2068   7.477   7.959   9.354
  609WAT     H1 2069   7.443   8.051   9.371
  609WAT     H2 2070   7.561   7.964   9.300
  610WAT      O 2071   6.804   5.769   6.756
  610WAT     H1 2072   6.830   5.677   6.727
  610WAT     H2 2073   6.783   5.825   6.676
  611WAT      O 2074   6.495   0.001   9.718
  611WAT     H1 2075   6.579   0.046   9.750
  611WAT     H2 2076   6.443  -0.032   9.797
  612WAT      O 2077   0.157   0.107   1.720
  612WAT     H1 2078   0.240   0.053   1.732
  612WAT     H2 2079   0.125   0.099   1.625
  613WAT      O 2080   9.407   2.148   0.195
  613WAT     H1 2081   9.376   2.236   0.160
  613WAT     H2 2082   9.333   2.081   0.188
  614WAT      O 2083   9.656   4.186   0.153
  614WAT     H1 2084   9.569   4.162   0.112
  614WAT     H2 2085   9.724   4.201   0.082
  615WAT      O 2086   4.888   2.538   3.713
  615WAT     H1 2087   4.815   2.528   3.780
  615WAT     H2 2088   4.877   2.471   3.640
  616WAT      O 2089   2.206   4.728   3.194
  616WAT     H1 2090   2.193   4.647   3.251
  616WAT     H2 2091   2.200   4.704   3.098
  617WAT      O 2092   4.306   9.018   1.393
  617WAT     H1 2093   4.278   9.099   1.445
  617WAT     H2 2094   4.227   8.959   1.379
  618WAT      O 2095   4.616   6.232   1.995
  618WAT     H1 2096   4.570   6.313   1.958
  618WAT     H2 2097   4.646   6.173   1.920
  619WAT      O 2098   7.386   1.830   8.915
  619WAT     H1 2099   7.357   1.826   8.819
  619WAT     H2 2100   7.322   1.886   8.967
  620WAT      O 2101   2.884   7.075   9.672
  620WAT     H1 2102   2.894   7.145   9.601
  620WAT     H2 2103   2.787   7.055   9.684
  621WAT      O 2104   0.156   6.976   7.105
  621WAT     H1 2105   0.141   6.936   7.014
  621WAT     H2 2106   0.243   7.025   7.106
  622WAT      O 2107   7.494   0.547   0.368
  622WAT     H1 2108   7.394   0.548   0.373
  622WAT     H2 2109   7.529   0.474   0.426
  623WAT      O 2110   2.621   4.234   3.313
  623WAT     H1 2111   2.698   4.285   3.352
  623WAT     H2 2112   2.572   4.187   3.386
  624WAT      O 2113   7.956   9.542   7.307
  624WAT     H1 2114   7.959   9.575   7.213
  624WAT     H2 2115   7.879   9.479   7.318
  625WAT      O 2116   7.731   8.055   8.970
  625WAT     H1 2117   7.790   8.092   8.898
  625WAT     H2 2118   7.703   8.129   9.031
  626WAT      O 2119   7.919   6.657   8.895
  626WAT     H1 2120   7.844   6.604   8.935
  626WAT     H2 2121   7.883   6.741   8.854
  627WAT      O 2122   5.672   0.922   5.286
  627WAT     H1 2123   5.753   0.981   5.281
  627WAT     H2 2124   5.590   0.977   5.271
  628WAT      O 2125   3.422   2.542   1.018
  628WAT     H1 2126   3.508   2.491   1.015
  628WAT     H2 2127   3.378   2.528   1.107
  629WAT      O 2128   0.309   0.814   6.964
  629WAT     H1 2129   0.210   0.803   6.960
  629WAT     H2 2130   0.338   0.824   7.059
  630WAT      O 2131   2.293   7.448   9.349
  630WAT     H1 2132   2.367   7.425   9.412
  630WAT     H2 2133   2.218   7.382   9.360
  631WAT      O 2134   4.035   6.092   6.163
  631WAT     H1 2135   4.066   6.121   6.072
  631WAT     H2 2136   4.009   6.172   6.217
  632WAT      O 2137   3.302   9.486   7.193
  632WAT     H1 2138   3.304   9.501   7.095
  632WAT     H2 2139   3.235   9.415   7.215
  633WAT      O 2140   7.073   0.264   4.890
  633WAT     H1 2141   7.170   0.241   4.890
  633WAT     H2 2142   7.025   0.206   4.825
  634WAT      O 2143   4.886   7.871   9.661
  634WAT     H1 2144   4.900   7.809   9.739
  634WAT     H2 2145   4.809   7.931   9.680
  635WAT      O 2146   1.939   3.405   4.126
  635WAT     H1 2147   1.932   3.348   4.208
  635WAT     H2 2148   1.870   3.477   4.130
  636WAT      O 2149   5.850   3.218   5.006
  636WAT     H1 2150   5.845   3.318   5.005
  636WAT     H2 2151   5.902   3.186   4.926
  637WAT      O 2152   3.492   4.578   3.005
  637WAT     H1 2153   3.541   4.540   2.927
  637WAT     H2 2154   3.489   4.677   2.998
  638WAT      O 2155   4.011   0.187   4.017
  638WAT     H1 2156   4.083   0.129   3.980
  638WAT     H2 2157   3.945   0.209   3.945
  639WAT      O 2158   2.239   3.650   3.943
  639WAT     H1 2159   2.182   3.693   4.012
  639WAT     H2 2160   2.225   3.695   3.855
  640WAT      O 2161   4.452   8.229   0.648
  640WAT     H1 2162   4.528   8.168   0.667
  640WAT     H2 2163   4.454   8.306   0.712
  641WAT      O 2164   7.537   5.531   6.945
  641WAT     H1 2165   7.619   5.588   6.940
  641WAT     H2 2166   7.489   5.533   6.857
  642WAT      O 2167   4.236   4.486   3.026
  642WAT     H1 2168   4.146   4.528   3.015
  642WAT     H2 2169   4.265   4.496   3.121
  643WAT      O 2170   4.372   6.334   8.610
  643WAT     H1 2171   4.297   6.342   8.544
  643WAT     H2 2172   4.383   6.239   8.636
  644WAT      O 2173   2.118   8.440   3.785
  644WAT     H1 2174   2.067   8.396   3.859
  644WAT     H2 2175   2.208   8.467   3.818
  645WAT      O 2176   8.742   5.387   4.658
  645WAT     H1 2177   8.686   5.452   4.606
  645WAT     H2 2178   8.817   5.353   4.601
  646WAT      O 2179   0.374   6.324   0.284
  646WAT     H1 2180   0.356   6.422   0.275
  646WAT     H2 2181   0.414   6.290   0.199
  647WAT      O 2182   4.876   4.370   2.445
  647WAT     H1 2183   4.947   4.438   2.425
  647WAT     H2 2184   4.847   4.380   2.540
  648WAT      O 2185   5.957   0.148   7.399
  648WAT     H1 2186   5.923   0.178   7.310
  648WAT     H2 2187   6.049   0.184   7.414
  649WAT      O 2188   9.441   0.526   6.703
  649WAT     H1 2189   9.511   0.594   6.679
  649WAT     H2 2190   9.368   0.571   6.754
  650WAT      O 2191   7.532   0.670   2.409
  650WAT     H1 2192   7.500   0.590   2.460
  650WAT     H2 2193   7.630   0.683   2.423
  651WAT      O 2194   5.519   1.026   0.825
  651WAT     H1 2195   5.473   0.952   0.873
  651WAT     H2 2196   5.614   1.032   0.855
  652WAT      O 2197   4.436   3.410   3.033
  652WAT     H1 2198   4.512   3.366   3.081
  652WAT     H2 2199   4.358   3.419   3.095
  653WAT      O 2200   3.124   4.541   9.216
  653WAT     H1 2201   3.128   4.448   9.180
  653WAT     H2 2202   3.184   4.600   9.163
  654WAT      O 2203   4.103   4.397   6.473
  654WAT     H1 2204   4.018   4.435   6.508
  654WAT     H2 2205   4.124   4.311   6.520
  655WAT      O 2206   6.056   0.738   7.804
  655WAT     H1 2207   6.122   0.692   7.863
  655WAT     H2 2208   6.063   0.703   7.711
  656WAT      O 2209   4.632   9.733   3.998
  656WAT     H1 2210   4.626   9.745   3.899
  656WAT     H2 2211   4.541   9.723   4.036
  657WAT      O 2212   3.303   1.881   9.683
  657WAT     H1 2213   3.323   1.972   9.647
  657WAT     H2 2214   3.218   1.884   9.737
  658WAT      O 2215   8.694   7.569   0.964
  658WAT     H1 2216   8.759   7.494   0.962
  658WAT     H2 2217   8.607   7.539   0.923
  659WAT      O 2218   1.012   6.384   3.956
  659WAT     H1 2219   1.014   6.402   4.054
  659WAT     H2 2220   0.994   6.470   3.907
  660WAT      O 2221   7.349   6.321   7.148
  660WAT     H1 2222   7.411   6.390   7.112
  660WAT     H2 2223   7.257   6.335   7.110
  661WAT      O 2224   4.076   2.693   8.610
  661WAT     H1 2225   4.036   2.680   8.519
  661WAT     H2 2226   4.154   2.755   8.604
  662WAT      O 2227   9.131   6.637   6.285
  662WAT     H1 2228   9.153   6.695   6.364
  662WAT     H2 2229   9.178   6.673   6.204
  663WAT      O 2230   8.612   7.373   3.182
  663WAT     H1 2231   8.634   7.289   3.232
  663WAT     H2 2232   8.513   7.390   3.187
  664WAT      O 2233   1.890   4.248   7.443
  664WAT     H1 2234   1.830   4.322   7.475
  664WAT     H2 2235   1.920   4.268   7.350
  665WAT      O 2236   8.245   0.438   9.771
  665WAT     H1 2237   8.166   0.395   9.814
  665WAT     H2 2238   8.327   0.386   9.792
  666WAT      O 2239   7.765   5.901   7.574
  666WAT     H1 2240   7.845   5.917   7.517
  666WAT     H2 2241   7.791   5.849   7.655
  667WAT      O 2242   8.897   3.912   1.642
  667WAT     H1 2243   8.877   3.988   1.704
  667WAT     H2 2244   8.981   3.932   1.591
  668WAT      O 2245   2.233   5.453   3.978
  668WAT     H1 2246   2.229   5.472   4.076
  668WAT     H2 2247   2.262   5.536   3.930
  669WAT      O 2248   8.482   9.238   4.792
  669WAT     H1 2249   8.525   9.148   4.796
  669WAT     H2 2250   8.526   9.294   4.722
  670WAT      O 2251   5.813   3.755   1.540
  670WAT     H1 2252   5.760   3.834   1.572
  670WAT     H2 2253   5.910   3.771   1.555
  671WAT      O 2254   1.140   8.259   2.329
  671WAT     H1 2255   1.082   8.177   2.327
  671WAT     H2 2256   1.193   8.266   2.245
  672WAT      O 2257   7.393   9.103   0.718
  672WAT     H1 2258   7.352   9.177   0.666
  672WAT     H2 2259   7.323   9.059   0.774
  673WAT      O 2260   6.224   5.833   9.473
  673WAT     H1 2261   6.151   5.764   9.470
  673WAT     H2 2262   6.313   5.787   9.473
  674WAT      O 2263   8.993   5.378   4.881
  674WAT     H1 2264   8.929   5.324   4.936
  674WAT     H2 2265   8.943   5.451   4.834
  675WAT      O 2266   6.773   7.244   1.689
  675WAT     H1 2267   6.819   7.296   1.762
  675WAT     H2 2268   6.806   7.150   1.689
  676WAT      O 2269   0.137   7.154   5.299
  676WAT     H1 2270   0.165   7.192   5.211
  676WAT     H2 2271   0.060   7.206   5.335
  677WAT      O 2272   8.225   4.442   4.371
  677WAT     H1 2273   8.171   4.463   4.452
  677WAT     H2 2274   8.168   4.396   4.303
  678WAT      O 2275   8.084   1.507   8.093
  678WAT     H1 2276   8.135   1.557   8.023
  678WAT     H2 2277   8.025   1.570   8.143
  679WAT      O 2278   2.591   0.692   1.708
  679WAT     H1 2279   2.688   0.682   1.688
  679WAT     H2 2280   2.564   0.788   1.693
  680WAT      O 2281   0.165   2.274   9.632
  680WAT     H1 2282   0.151   2.369   9.658
  680WAT     H2 2283   0.263   2.258   9.618
  681WAT      O 2284   7.880   0.790   5.344
  681WAT     H1 2285   7.835   0.714   5.390
  681WAT     H2 2286   7.978   0.786   5.360
  682WAT      O 2287   9.253   9.250   1.890
  682WAT     H1 2288   9.188   9.196   1.837
  682WAT     H2 2289   9.346   9.227   1.862
  683WAT      O 2290   8.987   9.281   3.118
  683WAT     H1 2291   8.945   9.349   3.057
  683WAT     H2 2292   8.942   9.192   3.105
  684WAT      O 2293   0.720   8.500   7.634
  684WAT     H1 2294   0.761   8.458   7.715
  684WAT     H2 2295   0.745   8.597   7.631
  685WAT      O 2296   9.176   1.559   6.654
  685WAT     H1 2297   9.220   1.637   6.609
  685WAT     H2 2298   9.085   1.586   6.686
  686WAT      O 2299   6.695   5.360   1.705
  686WAT     H1 2300   6.632   5.369   1.628
  686WAT     H2 2301   6.645   5.334   1.787
  687WAT      O 2302   9.783   1.848   3.035
  687WAT     H1 2303   9.686   1.872   3.031
  687WAT     H2 2304   9.794   1.749   3.035
  688WAT      O 2305   1.080   9.319   8.597
  688WAT     H1 2306   0.986   9.344   8.619
  688WAT     H2 2307   1.142   9.391   8.629
  689WAT      O 2308   0.271   9.525   5.699
  689WAT     H1 2309   0.218   9.459   5.752
  689WAT     H2 2310   0.361   9.486   5.679
  690WAT      O 2311   9.615   0.095   4.385
  690WAT     H1 2312   9.527   0.101   4.433
  690WAT     H2 2313   9.689   0.116   4.449
  691WAT      O 2314   1.372   6.620   6.476
  691WAT     H1 2315   1.349   6.528   6.508
  691WAT     H2 2316   1.394   6.678   6.555
  692WAT      O 2317   7.635   6.219   0.211
  692WAT     H1 2318   7.655   6.121   0.214
  692WAT     H2 2319   7.537   6.234   0.223
  693WAT      O 2320   6.336   4.183   1.213
  693WAT     H1 2321   6.385   4.142   1.290
  693WAT     H2 2322   6.319   4.280   1.233
  694WAT      O 2323   0.998   5.598   6.400
  694WAT     H1 2324   1.089   5.633   6.381
  694WAT     H2 2325   0.951   5.658   6.465
  695WAT      O 2326   5.070   6.061   8.403
  695WAT     H1 2327   5.064   6.065   8.502
  695WAT     H2 2328   5.021   5.980   8.369
  696WAT      O 2329   6.962   5.523   5.731
  696WAT     H1 2330   6.932   5.541   5.825
  696WAT     H2 2331   6.973   5.610   5.682
  697WAT      O 2332   6.001   5.494   9.677
  697WAT     H1 2333   6.019   5.396   9.671
  697WAT     H2 2334   6.034   5.539   9.594
  698WAT      O 2335   3.775   0.612   5.639
  698WAT     H1 2336   3.845   0.641   5.704
  698WAT     H2 2337   3.740   0.692   5.590
  699WAT      O 2338   8.001   5.207   2.594
  699WAT     H1 2339   8.099   5.199   2.573
  699WAT     H2 2340   7.986   5.286   2.653
  700WAT      O 2341   8.728   7.121   0.351
  700WAT     H1 2342   8.685   7.096   0.265
  700WAT     H2 2343   8.717   7.220   0.366
  701WAT      O 2344   5.446   4.211   8.790
  701WAT     H1 2345   5.492   4.270   8.856
  701WAT     H2 2346   5.348   4.229   8.792
  702WAT      O 2347   1.121   9.712   2.818
  702WAT     H1 2348   1.179   9.707   2.899
  702WAT     H2 2349   1.156   9.650   2.748
  703WAT      O 2350   0.456   7.425   0.100
  703WAT     H1 2351   0.400   7.356   0.052
  703WAT     H2 2352   0.552   7.400   0.093
  704WAT      O 2353   6.890   1.045   7.771
  704WAT     H1 2354   6.835   1.114   7.818
  704WAT     H2 2355   6.912   1.077   7.679
  705WAT      O 2356   3.250   6.132   6.841
  705WAT     H1 2357   3.263   6.213   6.898
  705WAT     H2 2358   3.152   6.115   6.828
  706WAT      O 2359   2.697   3.246   4.371
  706WAT     H1 2360   2.665   3.334   4.405
  706WAT     H2 2361   2.692   3.245   4.271
  707WAT      O 2362   1.306   8.024   9.316
  707WAT     H1 2363   1.295   7.950   9.382
  707WAT     H2 2364   1.347   7.988   9.232
  708WAT      O 2365   2.969   5.224   1.234
  708WAT     H1 2366   2.961   5.249   1.331
  708WAT     H2 2367   3.060   5.248   1.201
  709WAT      O 2368   1.039   3.039   2.723
  709WAT     H1 2369   1.043   2.958   2.781
  709WAT     H2 2370   1.131   3.060   2.690
  710WAT      O 2371   8.017   3.447   1.810
  710WAT     H1 2372   8.100   3.413   1.855
  710WAT     H2 2373   7.961   3.370   1.780
  711WAT      O 2374   1.874   5.554   6.263
  711WAT     H1 2375   1.820   5.470   6.250
  711WAT     H2 2376   1.892   5.568   6.360
  712WAT      O 2377   8.843   9.096   4.323
  712WAT     H1 2378   8.787   9.131   4.247
  712WAT     H2 2379   8.890   9.013   4.293
  713WAT      O 2380   7.222   3.073   7.765
  713WAT     H1 2381   7.134   3.033   7.791
  713WAT     H2 2382   7.226   3.083   7.666
  714WAT      O 2383   1.146   9.180   6.124
  714WAT     H1 2384   1.199   9.263   6.110
  714WAT     H2 2385   1.091   9.162   6.042
  715WAT      O 2386   7.889   5.922   5.066
  715WAT     H1 2387   7.937   5.954   4.984
  715WAT     H2 2388   7.864   6.001   5.122
  716WAT      O 2389   8.503   7.501   4.240
  716WAT     H1 2390   8.579   7.449   4.280
  716WAT     H2 2391   8.471   7.569   4.306
  717WAT      O 2392   9.418   4.654   9.377
  717WAT     H1 2393   9.331   4.605   9.363
  717WAT     H2 2394   9.494   4.589   9.371
  718WAT      O 2395   7.754   6.154   6.574
  718WAT     H1 2396   7.823   6.166   6.645
  718WAT     H2 2397   7.690   6.231   6.575
  719WAT      O 2398   0.884   4.439   1.490
  719WAT     H1 2399   0.917   4.444   1.585
  719WAT     H2 2400   0.873   4.343   1.464
  720WAT      O 2401   3.486   3.087   7.893
  720WAT     H1 2402   3.507   3.120   7.801
  720WAT     H2 2403   3.533   3.143   7.960
  721WAT      O 2404   2.711   4.506   7.958
  721WAT     H1 2405   2.623   4.552   7.944
  721WAT     H2 2406   2.785   4.572   7.951
  722WAT      O 2407   9.256   9.769   4.253
  722WAT     H1 2408   9.350   9.795   4.229
  722WAT     H2 2409   9.224   9.827   4.328
  723WAT      O 2410   3.252   1.649   6.520
  723WAT     H1 2411   3.215   1.556   6.521
  723WAT     H2 2412   3.347   1.647   6.550
  724WAT      O 2413   5.980   5.959   3.846
  724WAT     H1 2414   6.050   5.904   3.892
  724WAT     H2 2415   6.022   6.040   3.806
  725WAT      O 2416   2.546   6.291   3.848
  725WAT     H1 2417   2.630   6.317   3.800
  725WAT     H2 2418   2.467   6.306   3.787
  726WAT      O 2419   3.494   2.488   3.990
  726WAT     H1 2420   3.527   2.574   4.028
  726WAT     H2 2421   3.396   2.479   4.006
  727WAT      O 2422   1.929   8.058   6.270
  727WAT     H1 2423   1.907   8.149   6.304
  727WAT     H2 2424   2.019   8.059   6.225
  728WAT      O 2425   5.160   6.413   7.884
  728WAT     H1 2426   5.257   6.402   7.866
  728WAT     H2 2427   5.110   6.334   7.850
  729WAT      O 2428   8.409   8.525   2.070
  729WAT     H1 2429   8.503   8.553   2.052
  729WAT     H2 2430   8.409   8.441   2.123
  730WAT      O 2431   4.279   3.183   9.860
  730WAT     H1 2432   4.212   3.244   9.818
  730WAT     H2 2433   4.346   3.237   9.911
  731WAT      O 2434   9.781   3.746   5.300
  731WAT     H1 2435   9.774   3.658   5.252
  731WAT     H2 2436   9.803   3.729   5.397
  732WAT      O 2437   9.610   3.090   6.473
  732WAT     H1 2438   9.516   3.122   6.461
  732WAT     H2 2439   9.609   3.002   6.520
  733WAT      O 2440   8.144   3.806   8.751
  733WAT     H1 2441   8.160   3.759   8.664
  733WAT     H2 2442   8.105   3.742   8.817
  734WAT      O 2443   8.050   2.880   9.198
  734WAT     H1 2444   8.131   2.905   9.145
  734WAT     H2 2445   8.050   2.781   9.215
  735WAT      O 2446   8.549   8.372   5.611
  735WAT     H1 2447   8.523   8.303   5.678
  735WAT     H2 2448   8.532   8.337   5.519
  736WAT      O 2449   9.212   6.314   6.035
  736WAT     H1 2450   9.231   6.349   6.126
  736WAT     H2 2451   9.284   6.250   6.008
  737WAT      O 2452   7.057   5.541   4.893
  737WAT     H1 2453   6.977   5.591   4.860
  737WAT     H2 2454   7.119   5.604   4.941
  738WAT      O 2455   0.089   7.727   9.803
  738WAT     H1 2456   0.177   7.680   9.814
  738WAT     H2 2457   0.105   7.819   9.769
  739WAT      O 2458   3.144   1.155   9.872
  739WAT     H1 2459   3.083   1.187   9.800
  739WAT     H2 2460   3.236   1.192   9.856
  740WAT      O 2461   3.945   7.813   5.876
  740WAT     H1 2462   3.981   7.772   5.793
  740WAT     H2 2463   3.900   7.900   5.854
  741WAT      O 2464   6.200   3.152   1.802
  741WAT     H1 2465   6.246   3.065   1.781
  741WAT     H2 2466   6.104   3.146   1.774
  742WAT      O 2467   7.215   3.460   6.850
  742WAT     H1 2468   7.311   3.482   6.833
  742WAT     H2 2469   7.159   3.543   6.842
  743WAT      O 2470   6.101   1.842   8.845
  743WAT     H1 2471   6.192   1.810   8.819
  743WAT     H2 2472   6.032   1.787   8.800
  744WAT      O 2473   7.888   0.393   0.661
  744WAT     H1 2474   7.828   0.326   0.617
  744WAT     H2 2475   7.858   0.406   0.756
  745WAT      O 2476   3.068   3.061   5.145
  745WAT     H1 2477   3.052   3.032   5.239
  745WAT     H2 2478   3.155   3.110   5.139
  746WAT      O 2479   8.012   6.094   2.203
  746WAT     H1 2480   8.010   6.006   2.250
  746WAT     H2 2481   8.106   6.117   2.178
  747WAT      O 2482   4.062   3.345   3.977
  747WAT     H1 2483   4.088   3.338   4.073
  747WAT     H2 2484   4.076   3.438   3.945
  748WAT      O 2485   0.257   3.125   9.195
  748WAT     H1 2486   0.316   3.074   9.258
  748WAT     H2 2487   0.228   3.211   9.238
  749WAT      O 2488   3.757   2.330   2.698
  749WAT     H1 2489   3.839   2.385   2.684
  749WAT     H2 2490   3.734   2.280   2.614
  750WAT      O 2491   3.462   1.651   9.137
  750WAT     H1 2492   3.418   1.735   9.170
  750WAT     H2 2493   3.434   1.574   9.195
  751WAT      O 2494   2.700   4.024   6.176
  751WAT     H1 2495   2.620   4.062   6.130
  751WAT     H2 2496   2.675   3.939   6.222
  752WAT      O 2497   6.906   0.622   5.335
  752WAT     H1 2498   6.915   0.541   5.393
  752WAT     H2 2499   6.819   0.667   5.354
  753WAT      O 2500   7.408   9.770   0.022
  753WAT     H1 2501   7.474   9.700   0.050
  753WAT     H2 2502   7.372   9.748  -0.068
  754WAT      O 2503   7.692   6.479   8.663
  754WAT     H1 2504   7.595   6.464   8.644
  754WAT     H2 2505   7.712   6.577   8.661
  755WAT      O 2506   6.420   4.673   7.847
  755WAT     H1 2507   6.401   4.601   7.914
  755WAT     H2 2508   6.348   4.742   7.852
  756WAT      O 2509   6.882   6.448   3.907
  756WAT     H1 2510   6.882   6.355   3.870
  756WAT     H2 2511   6.794   6.491   3.890
  757WAT      O 2512   1.422   3.375   4.434
  757WAT     H1 2513   1.383   3.462   4.403
  757WAT     H2 2514   1.420   3.371   4.534
  758WAT      O 2515   2.404   4.369   6.921
  758WAT     H1 2516   2.475   4.420   6.872
  758WAT     H2 2517   2.319   4.423   6.922
  759WAT      O 2518   1.093   2.168   5.025
  759WAT     H1 2519   1.004   2.199   4.989
  759WAT     H2 2520   1.133   2.240   5.081
  760WAT      O 2521   4.253   0.873   0.881
  760WAT     H1 2522   4.345   0.912   0.884
  760WAT     H2 2523   4.232   0.843   0.788
  761WAT      O 2524   7.705   9.259   8.949
  761WAT     H1 2525   7.767   9.283   8.875
  761WAT     H2 2526   7.755   9.260   9.036
  762WAT      O 2527   4.191   5.030   7.589
  762WAT     H1 2528   4.200   4.930   7.588
  762WAT     H2 2529   4.265   5.070   7.536
  763WAT      O 2530   7.634   5.741   1.697
  763WAT     H1 2531   7.685   5.742   1.611
  763WAT     H2 2532   7.541   5.709   1.680
  764WAT      O 2533   5.135   3.245   4.425
  764WAT     H1 2534   5.208   3.178   4.432
  764WAT     H2 2535   5.082   3.228   4.342
  765WAT      O 2536   5.193   0.340   8.701
  765WAT     H1 2537   5.121   0.278   8.732
  765WAT     H2 2538   5.152   0.416   8.650
  766WAT      O 2539   4.329   9.231   5.258
  766WAT     H1 2540   4.254   9.290   5.288
  766WAT     H2 2541   4.416   9.268   5.292
  767WAT      O 2542   3.269   4.064   0.435
  767WAT     H1 2543   3.293   3.997   0.366
  767WAT     H2 2544   3.279   4.156   0.397
  768WAT      O 2545   2.613   3.657   1.574
  768WAT     H1 2546   2.627   3.568   1.531
  768WAT     H2 2547   2.605   3.645   1.673
  769WAT      O 2548   8.052   7.213   1.339
  769WAT     H1 2549   8.091   7.305   1.334
  769WAT     H2 2550   8.102   7.158   1.406
  770WAT      O 2551   7.508   3.882   3.212
  770WAT     H1 2552   7.546   3.871   3.303
  770WAT     H2 2553   7.573   3.934   3.155
  771WAT      O 2554   0.328   6.791   5.222
  771WAT     H1 2555   0.304   6.832   5.310
  771WAT     H2 2556   0.340   6.692   5.234
  772WAT      O 2557   0.183   8.029   8.428
  772WAT     H1 2558   0.199   8.127   8.441
  772WAT     H2 2559   0.257   7.977   8.470
  773WAT      O 2560   7.213   8.088   7.966
  773WAT     H1 2561   7.131   8.032   7.950
  773WAT     H2 2562   7.292   8.028   7.977
  774WAT      O 2563   7.549   1.623   4.074
  774WAT     H1 2564   7.506   1.633   3.984
  774WAT     H2 2565   7.648   1.612   4.063
  775WAT      O 2566   2.187   6.179   9.575
  775WAT     H1 2567   2.198   6.138   9.666
  775WAT     H2 2568   2.103   6.146   9.533
  776WAT      O 2569   7.050   6.474   4.680
  776WAT     H1 2570   7.058   6.570   4.654
  776WAT     H2 2571   6.969   6.462   4.737
  777WAT      O 2572   7.095   4.461   0.825
  777WAT     H1 2573   7.039   4.526   0.877
  777WAT     H2 2574   7.191   4.480   0.843
  778WAT      O 2575   6.786   7.360   1.445
  778WAT     H1 2576   6.799   7.308   1.529
  778WAT     H2 2577   6.751   7.451   1.467
  779WAT      O 2578   7.921   6.619   1.954
  779WAT     H1 2579   7.868   6.595   2.036
  779WAT     H2 2580   7.911   6.547   1.886
  780WAT      O 2581   0.072   1.684   6.052
  780WAT     H1 2582   0.119   1.771   6.068
  780WAT     H2 2583   0.057   1.638   6.139
  781WAT      O 2584   9.320   2.880   9.308
  781WAT     H1 2585   9.363   2.949   9.251
  781WAT     H2 2586   9.368   2.793   9.297
  782WAT      O 2587   9.693   9.756   8.534
  782WAT     H1 2588   9.751   9.784   8.458
  782WAT     H2 2589   9.749   9.743   8.616
  783WAT      O 2590   9.406   1.289   8.982
  783WAT     H1 2591   9.392   1.368   8.921
  783WAT     H2 2592   9.326   1.278   9.040
  784WAT      O 2593   7.789   6.704   4.055
  784WAT     H1 2594   7.700   6.711   4.098
  784WAT     H2 2595   7.820   6.796   4.029
  785WAT      O 2596   9.365   0.758   6.890
  785WAT     H1 2597   9.381   0.830   6.957
  785WAT     H2 2598   9.345   0.799   6.801
  786WAT      O 2599   2.508   2.031   5.349
  786WAT     H1 2600   2.590   2.043   5.405
  786WAT     H2 2601   2.492   1.933   5.334
  787WAT      O 2602   0.100   1.486   0.785
  787WAT     H1 2603   0.001   1.472   0.786
  787WAT     H2 2604   0.145   1.408   0.828
  788WAT      O 2605   4.461   0.205   3.951
  788WAT     H1 2606   4.444   0.288   4.004
  788WAT     H2 2607   4.377   0.152   3.945
  789WAT      O 2608   3.889   3.653   2.146
  789WAT     H1 2609   3.938   3.726   2.099
  789WAT     H2 2610   3.856   3.586   2.080
  790WAT      O 2611   6.268   1.330   1.843
  790WAT     H1 2612   6.267   1.430   1.837
  790WAT     H2 2613   6.264   1.291   1.751
  791WAT      O 2614   6.398   3.225   4.861
  791WAT     H1 2615   6.326   3.195   4.923
  791WAT     H2 2616   6.482   3.176   4.881
  792WAT      O 2617   2.581   0.266   8.785
  792WAT     H1 2618   2.653   0.334   8.775
  792WAT     H2 2619   2.492   0.312   8.793
  793WAT      O 2620   7.365   3.346   6.481
  793WAT     H1 2621   7.308   3.265   6.490
  793WAT     H2 2622   7.451   3.332   6.530
  794WAT      O 2623   1.813   2.858   3.069
  794WAT     H1 2624   1.820   2.777   3.011
  794WAT     H2 2625   1.789   2.937   3.012
  795WAT      O 2626   4.445   7.403   1.157
  795WAT     H1 2627   4.535   7.426   1.192
  795WAT     H2 2628   4.446   7.402   1.057
  796WAT      O 2629   9.883   1.397   4.542
  796WAT     H1 2630   9.983   1.394   4.552
  796WAT     H2 2631   9.843   1.318   4.589
  797WAT      O 2632   9.178   4.736   6.162
  797WAT     H1 2633   9.118   4.812   6.140
  797WAT     H2 2634   9.270   4.754   6.127
  798WAT      O 2635   2.529   7.643   8.734
  798WAT     H1 2636   2.476   7.559   8.747
  798WAT     H2 2637   2.515   7.703   8.812
  799WAT      O 2638   1.654   3.473   2.260
  799WAT     H1 2639   1.675   3.533   2.337
  799WAT     H2 2640   1.739   3.443   2.217
  800WAT      O 2641   8.553   9.261   5.356
  800WAT     H1 2642   8.524   9.262   5.261
  800WAT     H2 2643   8.491   9.203   5.409
  801WAT      O 2644   1.432   5.754   4.556
  801WAT     H1 2645   1.399   5.724   4.467
  801WAT     H2 2646   1.449   5.674   4.614
  802WAT      O 2647   8.132   0.545   7.590
  802WAT     H1 2648   8.202   0.501   7.535
  802WAT     H2 2649   8.090   0.619   7.538
  803WAT      O 2650   9.639   3.333   6.612
  803WAT     H1 2651   9.684   3.333   6.701
  803WAT     H2 2652   9.607   3.241   6.591
  804WAT      O 2653   0.313   6.642   8.046
  804WAT     H1 2654   0.400   6.628   8.092
  804WAT     H2 2655   0.302   6.738   8.022
  805WAT      O 2656   5.311   7.761   0.869
  805WAT     H1 2657   5.353   7.701   0.937
  805WAT     H2 2658   5.307   7.715   0.781
  806WAT      O 2659   5.169   2.796   1.489
  806WAT     H1 2660   5.189   2.706   1.450
  806WAT     H2 2661   5.183   2.793   1.588
  807WAT      O 2662   6.574   5.260   4.978
  807WAT     H1 2663   6.529   5.341   5.015
  807WAT     H2 2664   6.672   5.274   4.976
  808WAT      O 2665   8.983   3.324   1.891
  808WAT     H1 2666   8.905   3.321   1.829
  808WAT     H2 2667   9.056   3.267   1.856
  809WAT      O 2668   7.229   1.839   0.172
  809WAT     H1 2669   7.276   1.917   0.130
  809WAT     H2 2670   7.295   1.768   0.195
  810WAT      O 2671   4.714   2.366   4.675
  810WAT     H1 2672   4.769   2.296   4.721
  810WAT     H2 2673   4.619   2.338   4.674
  811WAT      O 2674   0.072   2.039   8.597
  811WAT     H1 2675   0.150   2.098   8.615
  811WAT     H2 2676   0.076   1.959   8.658
  812WAT      O 2677   5.035   1.956   6.799
  812WAT     H1 2678   5.083   2.014   6.734
  812WAT     H2 2679   4.937   1.973   6.793
  813WAT      O 2680   6.179   5.580   5.341
  813WAT     H1 2681   6.082   5.577   5.366
  813WAT     H2 2682   6.233   5.536   5.412
  814WAT      O 2683   2.180   0.571   2.461
  814WAT     H1 2684   2.211   0.565   2.366
  814WAT     H2 2685   2.086   0.540   2.467
  815WAT      O 2686   1.515   0.397   1.745
  815WAT     H1 2687   1.438   0.365   1.689
  815WAT     H2 2688   1.554   0.479   1.704
  816WAT      O 2689   7.856   0.860   0.943
  816WAT     H1 2690   7.791   0.857   0.867
  816WAT     H2 2691   7.811   0.833   1.027
  817WAT      O 2692   9.485   7.112   5.511
  817WAT     H1 2693   9.424   7.083   5.438
  817WAT     H2 2694   9.542   7.034   5.540
  818WAT      O 2695   5.216   7.410   4.681
  818WAT     H1 2696   5.280   7.486   4.667
  818WAT     H2 2697   5.139   7.442   4.736
  819WAT      O 2698   1.941   8.642   7.830
  819WAT     H1 2699   1.844   8.620   7.826
  819WAT     H2 2700   1.977   8.650   7.737
  820WAT      O 2701   8.656   4.886   0.278
  820WAT     H1 2702   8.720   4.946   0.324
  820WAT     H2 2703   8.677   4.791   0.301
  821WAT      O 2704   4.474   7.426   2.077
  821WAT     H1 2705   4.377   7.405   2.076
  821WAT     H2 2706   4.508   7.422   2.170
  822WAT      O 2707   9.442   8.125   9.811
  822WAT     H1 2708   9.473   8.111   9.905
  822WAT     H2 2709   9.344   8.107   9.805
  823WAT      O 2710   6.234   6.608   7.611
  823WAT     H1 2711   6.209   6.604   7.708
  823WAT     H2 2712   6.156   6.577   7.555
  824WAT      O 2713   9.599   6.872   6.661
  824WAT     H1 2714   9.651   6.806   6.606
  824WAT     H2 2715   9.502   6.850   6.655
  825WAT      O 2716   6.997   5.024   7.531
  825WAT     H1 2717   7.092   5.051   7.547
  825WAT     H2 2718   6.945   5.102   7.498
  826WAT      O 2719   5.640   5.644   4.784
  826WAT     H1 2720   5.575   5.587   4.834
  826WAT     H2 2721   5.620   5.639   4.686
  827WAT      O 2722   5.472   5.472   4.888
  827WAT     H1 2723   5.457   5.382   4.846
  827WAT     H2 2724   5.388   5.500   4.935
  828WAT      O 2725   7.986   7.886   9.804
  828WAT     H1 2726   7.956   7.981   9.808
  828WAT     H2 2727   7.995   7.858   9.709
  829WAT      O 2728   3.995   1.935   0.317
  829WAT     H1 2729   3.949   2.022   0.332
  829WAT     H2 2730   3.933   1.871   0.271
  830WAT      O 2731   5.875   1.757   3.892
  830WAT     H1 2732   5.802   1.704   3.935
  830WAT     H2 2733   5.956   1.756   3.951
  831WAT      O 2734   0.961   1.905   3.677
  831WAT     H1 2735   0.903   1.986   3.673
  831WAT     H2 2736   0.904   1.823   3.666
  832WAT      O 2737   2.747   9.627   0.426
  832WAT     H1 2738   2.683   9.606   0.352
  832WAT     H2 2739   2.828   9.672   0.389
  833WAT      O 2740   8.845   2.749   5.982
  833WAT     H1 2741   8.911   2.689   5.936
  833WAT     H2 2742   8.753   2.727   5.950
  834WAT      O 2743   1.967   8.897   3.955
  834WAT     H1 2744   2.052   8.950   3.957
  834WAT     H2 2745   1.909   8.932   3.881
  835WAT      O 2746   4.468   1.934   8.755
  835WAT     H1 2747   4.493   1.966   8.664
  835WAT     H2 2748   4.454   1.836   8.754
  836WAT      O 2749   4.259   1.127   2.100
  836WAT     H1 2750   4.315   1.210   2.092
  836WAT     H2 2751   4.205   1.115   2.017
  837WAT      O 2752   3.919   3.008   2.388
  837WAT     H1 2753   3.960   3.005   2.296
  837WAT     H2 2754   3.973   2.951   2.450
  838WAT      O 2755   9.032   1.200   0.983
  838WAT     H1 2756   8.964   1.130   0.959
  838WAT     H2 2757   9.083   1.225   0.901
  839WAT      O 2758   1.436   3.631   3.834
  839WAT     H1 2759   1.368   3.588   3.775
  839WAT     H2 2760   1.523   3.583   3.825
  840WAT      O 2761   5.742   8.980   4.461
  840WAT     H1 2762   5.757   9.077   4.438
  840WAT     H2 2763   5.685   8.938   4.391
  841WAT      O 2764   1.740   1.278   9.858
  841WAT     H1 2765   1.737   1.352   9.790
  841WAT     H2 2766   1.675   1.297   9.931
  842WAT      O 2767   2.542   9.606   7.596
  842WAT     H1 2768   2.622   9.605   7.657
  842WAT     H2 2769   2.524   9.700   7.567
  843WAT      O 2770   9.287   4.761   7.617
  843WAT     H1 2771   9.309   4.717   7.704
  843WAT     H2 2772   9.306   4.860   7.624
  844WAT      O 2773   0.899   7.553   4.109
  844WAT     H1 2774   0.946   7.555   4.021
  844WAT     H2 2775   0.809   7.510   4.098
  845WAT      O 2776   3.788   8.443   4.992
  845WAT     H1 2777   3.800   8.351   5.030
  845WAT     H2 2778   3.866   8.500   5.017
  846WAT      O 2779   1.443   5.104   4.178
  846WAT     H1 2780   1.487   5.023   4.217
  846WAT     H2 2781   1.384   5.077   4.102
  847WAT      O 2782   0.125   7.399   1.513
  847WAT     H1 2783   0.219   7.364   1.501
  847WAT     H2 2784   0.101   7.396   1.610
  848WAT      O 2785   1.331   0.855   8.253
  848WAT     H1 2786   1.371   0.932   8.204
  848WAT     H2 2787   1.242   0.882   8.290
  849WAT      O 2788   3.060   7.870   4.620
  849WAT     H1 2789   3.008   7.952   4.645
  849WAT     H2 2790   3.072   7.812   4.700
  850WAT      O 2791   3.876   9.151   2.647
  850WAT     H1 2792   3.927   9.070   2.678
  850WAT     H2 2793   3.924   9.193   2.570
  851WAT      O 2794   0.362   6.305   5.279
  851WAT     H1 2795   0.442   6.256   5.245
  851WAT     H2 2796   0.309   6.246   5.340
  852WAT      O 2797   0.804   1.468   2.682
  852WAT     H1 2798   0.875   1.400   2.701
  852WAT     H2 2799   0.714   1.426   2.689
  853WAT      O 2800   3.821   5.872   7.879
  853WAT     H1 2801   3.777   5.854   7.791
  853WAT     H2 2802   3.759   5.924   7.938
  854WAT      O 2803   5.139   4.397   3.027
  854WAT     H1 2804   5.220   4.340   3.035
  854WAT     H2 2805   5.121   4.416   2.930
  855WAT      O 2806   8.318   5.738   0.273
  855WAT     H1 2807   8.309   5.644   0.239
  855WAT     H2 2808   8.297   5.802   0.199
  856WAT      O 2809   1.801   7.652   4.096
  856WAT     H1 2810   1.714   7.604   4.107
  856WAT     H2 2811   1.849   7.656   4.184
  857WAT      O 2812   6.698   4.579   8.764
  857WAT     H1 2813   6.657   4.517   8.832
  857WAT     H2 2814   6.646   4.664   8.761
  858WAT      O 2815   4.747   0.269   3.558
  858WAT     H1 2816   4.681   0.341   3.535
  858WAT     H2 2817   4.832   0.311   3.590
  859WAT      O 2818   0.802   8.755   2.458
  859WAT     H1 2819   0.753   8.839   2.434
  859WAT     H2 2820   0.751   8.706   2.529
  860WAT      O 2821   7.355   5.202   1.629
  860WAT     H1 2822   7.437   5.186   1.574
  860WAT     H2 2823   7.297   5.121   1.625
  861WAT      O 2824   8.806   2.012   3.852
  861WAT     H1 2825   8.792   1.978   3.759
  861WAT     H2 2826   8.896   1.983   3.885
  862WAT      O 2827   1.023   5.862   1.820
  862WAT     H1 2828   0.973   5.917   1.753
  862WAT     H2 2829   1.022   5.908   1.908
  863WAT      O 2830   9.553   5.601   0.871
  863WAT     H1 2831   9.516   5.682   0.826
  863WAT     H2 2832   9.576   5.532   0.802
  864WAT      O 2833   3.207   6.023   0.772
  864WAT     H1 2834   3.249   5.961   0.837
  864WAT     H2 2835   3.263   6.106   0.764
  865WAT      O 2836   1.081   6.396   8.159
  865WAT     H1 2837   1.007   6.330   8.172
  865WAT     H2 2838   1.164   6.363   8.204
  866WAT      O 2839   3.934   4.100   6.027
  866WAT     H1 2840   3.912   4.197   6.028
  866WAT     H2 2841   3.935   4.065   6.120
  867WAT      O 2842   9.860   8.366   4.423
  867WAT     H1 2843   9.780   8.423   4.438
  867WAT     H2 2844   9.896   8.382   4.331
  868WAT      O 2845   7.771   4.992   3.687
  868WAT     H1 2846   7.850   4.934   3.707
  868WAT     H2 2847   7.776   5.024   3.593
  869WAT      O 2848   3.033   6.754   8.873
  869WAT     H1 2849   3.044   6.770   8.971
  869WAT     H2 2850   2.964   6.817   8.837
  870WAT      O 2851   1.589   1.874   7.203
  870WAT     H1 2852   1.647   1.954   7.222
  870WAT     H2 2853   1.521   1.865   7.276
  871WAT      O 2854   1.185   2.259   6.099
  871WAT     H1 2855   1.273   2.221   6.130
  871WAT     H2 2856   1.119   2.185   6.087
  872WAT      O 2857   8.215   6.219   4.550
  872WAT     H1 2858   8.295   6.225   4.610
  872WAT     H2 2859   8.134   6.249   4.600
  873WAT      O 2860   0.172   6.218   4.175
  873WAT     H1 2861   0.109   6.296   4.174
  873WAT     H2 2862   0.266   6.252   4.182
  874WAT      O 2863   5.483   7.882   2.628
  874WAT     H1 2864   5.525   7.807   2.680
  874WAT     H2 2865   5.448   7.847   2.541
  875WAT      O 2866   4.275   7.219   1.431
  875WAT     H1 2867   4.207   7.155   1.467
  875WAT     H2 2868   4.238   7.312   1.436
  876WAT      O 2869   7.275   3.437   2.631
  876WAT     H1 2870   7.199   3.376   2.650
  876WAT     H2 2871   7.281   3.456   2.533
  877WAT      O 2872   4.227   4.569   4.874
  877WAT     H1 2873   4.260   4.555   4.780
  877WAT     H2 2874   4.282   4.514   4.937
  878WAT      O 2875   7.048   8.935   2.011
  878WAT     H1 2876   6.995   9.019   2.000
  878WAT     H2 2877   7.108   8.943   2.091
  879WAT      O 2878   2.268   9.738   2.867
  879WAT     H1 2879   2.346   9.751   2.806
  879WAT     H2 2880   2.183   9.745   2.815
  880WAT      O 2881   0.055   9.491   3.812
  880WAT     H1 2882  -0.041   9.516   3.824
  880WAT     H2 2883   0.092   9.538   3.732
  881WAT      O 2884   3.356   3.545   7.324
  881WAT     H1 2885   3.377   3.513   7.417
  881WAT     H2 2886   3.403   3.632   7.308
  882WAT      O 2887   8.351   6.762   3.094
  882WAT     H1 2888   8.269   6.814   3.071
  882WAT     H2 2889   8.429   6.798   3.043
  883WAT      O 2890   3.045   0.508   6.843
  883WAT     H1 2891   3.053   0.573   6.918
  883WAT     H2 2892   3.020   0.418   6.879
  884WAT      O 2893   0.335   7.819   6.333
  884WAT     H1 2894   0.374   7.778   6.416
  884WAT     H2 2895   0.409   7.846   6.271
  885WAT      O 2896   2.782   8.326   2.326
  885WAT     H1 2897   2.869   8.290   2.294
  885WAT     H2 2898   2.775   8.314   2.425
  886WAT      O 2899   9.206   6.697   5.794
  886WAT     H1 2900   9.191   6.623   5.729
  886WAT     H2 2901   9.258   6.770   5.750
  887WAT      O 2902   1.098   5.162   2.968
  887WAT     H1 2903   1.118   5.151   3.065
  887WAT     H2 2904   1.121   5.078   2.920
  888WAT      O 2905   8.702   0.082   0.949
  888WAT     H1 2906   8.680  -0.009   0.985
  888WAT     H2 2907   8.619   0.136   0.941
  889WAT      O 2908   8.865   4.736   2.681
  889WAT     H1 2909   8.914   4.675   2.743
  889WAT     H2 2910   8.835   4.683   2.601
  890WAT      O 2911   1.701   1.656   2.754
  890WAT     H1 2912   1.614   1.616   2.726
  890WAT     H2 2913   1.759   1.585   2.793
  891WAT      O 2914   0.504   4.107   9.749
  891WAT     H1 2915   0.422   4.054   9.730
  891WAT     H2 2916   0.542   4.142   9.663
  892WAT      O 2917   3.924   7.393   5.901
  892WAT     H1 2918   4.009   7.434   5.869
  892WAT     H2 2919   3.904   7.311   5.846
  893WAT      O 2920   3.053   9.269   5.672
  893WAT     H1 2921   3.103   9.336   5.728
  893WAT     H2 2922   3.117   9.200   5.638
  894WAT      O 2923   2.297   3.158   3.860
  894WAT     H1 2924   2.254   3.209   3.935
  894WAT     H2 2925   2.247   3.073   3.844
  895WAT      O 2926   1.224   0.979   6.587
  895WAT     H1 2927   1.148   0.959   6.649
  895WAT     H2 2928   1.254   0.894   6.543
  896WAT      O 2929   0.695   3.667   5.273
  896WAT     H1 2930   0.771   3.636   5.216
  896WAT     H2 2931   0.632   3.591   5.289
  897WAT      O 2932   3.937   9.553   7.773
  897WAT     H1 2933   3.884   9.608   7.838
  897WAT     H2 2934   4.032   9.550   7.803
  898WAT      O 2935   1.184   4.481   8.739
  898WAT     H1 2936   1.170   4.532   8.824
  898WAT     H2 2937   1.121   4.513   8.669
  899WAT      O 2938   2.337   4.636   1.850
  899WAT     H1 2939   2.268   4.696   1.890
  899WAT     H2 2940   2.428   4.666   1.877
  900WAT      O 2941   7.614   7.160   9.372
  900WAT     H1 2942   7.623   7.130   9.467
  900WAT     H2 2943   7.623   7.082   9.311
  901WAT      O 2944   3.537   8.296   9.690
  901WAT     H1 2945   3.618   8.272   9.637
  901WAT     H2 2946   3.510   8.391   9.670
  902WAT      O 2947   7.259   6.448   8.843
  902WAT     H1 2948   7.314   6.472   8.923
  902WAT     H2 2949   7.162   6.460   8.864
  903WAT      O 2950   7.693   6.337   5.153
  903WAT     H1 2951   7.633   6.351   5.231
  903WAT     H2 2952   7.754   6.260   5.171
  904WAT      O 2953   2.384   7.153   2.860
  904WAT     H1 2954   2.454   7.157   2.788
  904WAT     H2 2955   2.423   7.112   2.942
  905WAT      O 2956   6.672   9.678   4.232
  905WAT     H1 2957   6.734   9.720   4.299
  905WAT     H2 2958   6.590   9.645   4.279
  906WAT      O 2959   3.089   6.660   3.963
  906WAT     H1 2960   3.186   6.661   3.937
  906WAT     H2 2961   3.033   6.643   3.882
  907WAT      O 2962   3.750   6.573   7.513
  907WAT     H1 2963   3.780   6.664   7.540
  907WAT     H2 2964   3.650   6.569   7.515
  908WAT      O 2965   8.930   1.129   9.143
  908WAT     H1 2966   8.931   1.170   9.051
  908WAT     H2 2967   8.863   1.055   9.145
  909WAT      O 2968   2.921   8.343   3.985
  909WAT     H1 2969   2.868   8.428   3.992
  909WAT     H2 2970   2.964   8.324   4.072
  910WAT      O 2971   5.347   6.459   9.788
  910WAT     H1 2972   5.413   6.421   9.724
  910WAT     H2 2973   5.264   6.484   9.739
  911WAT      O 2974   6.293   4.097   4.920
  911WAT     H1 2975   6.306   4.122   4.824
  911WAT     H2 2976   6.283   3.998   4.927
  912WAT      O 2977   3.356   0.953   8.742
  912WAT     H1 2978   3.260   0.931   8.759
  912WAT     H2 2979   3.384   0.912   8.655
  913WAT      O 2980   4.356   7.988   2.032
  913WAT     H1 2981   4.279   7.929   2.055
  913WAT     H2 2982   4.355   8.006   1.933
  914WAT      O 2983   1.159   0.627   6.150
  914WAT     H1 2984   1.075   0.602   6.198
  914WAT     H2 2985   1.161   0.581   6.061
  915WAT      O 2986   6.628   0.922   6.453
  915WAT     H1 2987   6.570   0.845   6.428
  915WAT     H2 2988   6.630   0.988   6.378
  916WAT      O 2989   3.940   6.924   0.216
  916WAT     H1 2990   3.968   6.942   0.310
  916WAT     H2 2991   4.016   6.887   0.164
  917WAT      O 2992   4.851   2.332   5.668
  917WAT     H1 2993   4.875   2.428   5.672
  917WAT     H2 2994   4.839   2.303   5.573
  918WAT      O 2995   6.091   4.491   0.859
  918WAT     H1 2996   6.005   4.528   0.824
  918WAT     H2 2997   6.084   4.476   0.957
  919WAT      O 2998   8.143   3.575   4.184
  919WAT     H1 2999   8.094   3.502   4.136
  919WAT     H2 3000   8.099   3.663   4.164
  920WAT      O 3001   4.585   3.945   1.047
  920WAT     H1 3002   4.672   3.975   1.087
  920WAT     H2 3003   4.542   4.022   1.000
  921WAT      O 3004   4.470   2.282   9.229
  921WAT     H1 3005   4.540   2.270   9.300
  921WAT     H2 3006   4.434   2.376   9.235
  922WAT      O 3007   1.948   1.446   2.171
  922WAT     H1 3008   1.961   1.438   2.270
  922WAT     H2 3009   1.852   1.466   2.151
  923WAT      O 3010   9.859   6.422   1.223
  923WAT     H1 3011   9.905   6.371   1.150
  923WAT     H2 3012   9.796   6.488   1.182
  924WAT      O 3013   1.344   5.775   7.074
  924WAT     H1 3014   1.366   5.685   7.113
  924WAT     H2 3015   1.428   5.817   7.039
  925WAT      O 3016   5.826   1.575   3.673
  925WAT     H1 3017   5.835   1.606   3.767
  925WAT     H2 3018   5.867   1.642   3.611
  926WAT      O 3019   4.458   4.234   8.513
  926WAT     H1 3020   4.549   4.252   8.475
  926WAT     H2 3021   4.464   4.161   8.581
  927WAT      O 3022   1.468   5.305   6.410
  927WAT     H1 3023   1.458   5.392   6.362
  927WAT     H2 3024   1.535   5.316   6.484
  928WAT      O 3025   7.826   5.015   0.240
  928WAT     H1 3026   7.774   5.100   0.239
  928WAT     H2 3027   7.909   5.025   0.185
  929WAT      O 3028   7.333   7.183   7.232
  929WAT     H1 3029   7.338   7.146   7.140
  929WAT     H2 3030   7.318   7.282   7.228
  930WAT      O 3031   2.672   9.466   6.113
  930WAT     H1 3032   2.743   9.395   6.110
  930WAT     H2 3033   2.595   9.439   6.056
  931WAT      O 3034   5.302   5.960   3.707
  931WAT     H1 3035   5.378   5.927   3.763
  931WAT     H2 3036   5.291   5.900   3.627
  932WAT      O 3037   3.533   7.800   1.909
  932WAT     H1 3038   3.537   7.855   1.826
  932WAT     H2 3039   3.453   7.741   1.907
  933WAT      O 3040   3.349   3.249   4.919
  933WAT     H1 3041   3.323   3.192   4.997
  933WAT     H2 3042   3.436   3.217   4.881
  934WAT      O 3043   6.979   8.575   2.720
  934WAT     H1 3044   6.983   8.656   2.779
  934WAT     H2 3045   6.959   8.494   2.775
  935WAT      O 3046   8.006   9.066   6.760
  935WAT     H1 3047   8.012   8.993   6.692
  935WAT     H2 3048   8.087   9.124   6.753
  936WAT      O 3049   2.838   1.546   2.829
  936WAT     H1 3050   2.740   1.560   2.814
  936WAT     H2 3051   2.881   1.633   2.852
  937WAT      O 3052   5.525   1.976   9.385
  937WAT     H1 3053   5.598   1.908   9.390
  937WAT     H2 3054   5.482   1.972   9.294
  938WAT      O 3055   2.163   0.449   6.709
  938WAT     H1 3056   2.172   0.491   6.799
  938WAT     H2 3057   2.216   0.503   6.643
  939WAT      O 3058   9.417   3.245   8.200
  939WAT     H1 3059   9.511   3.277   8.206
  939WAT     H2 3060   9.359   3.301   8.259
  940WAT      O 3061   4.073   3.364   3.636
  940WAT     H1 3062   3.983   3.364   3.680
  940WAT     H2 3063   4.064   3.391   3.540
  941WAT      O 3064   4.164   5.816   1.802
  941WAT     H1 3065   4.261   5.825   1.782
  941WAT     H2 3066   4.140   5.719   1.806
  942WAT      O 3067   2.893   1.372   8.802
  942WAT     H1 3068   2.984   1.389   8.764
  942WAT     H2 3069   2.888   1.409   8.895
  943WAT      O 3070   0.177   4.618   5.370
  943WAT     H1 3071   0.131   4.704   5.388
  943WAT     H2 3072   0.140   4.577   5.286
  944WAT      O 3073   2.801   5.961   3.455
  944WAT     H1 3074   2.757   5.878   3.422
  944WAT     H2 3075   2.885   5.938   3.504
  945WAT      O 3076   6.900   1.179   3.770
  945WAT     H1 3077   6.923   1.090   3.730
  945WAT     H2 3078   6.839   1.165   3.848
  946WAT      O 3079   7.278   3.651   1.430
  946WAT     H1 3080   7.260   3.573   1.490
  946WAT     H2 3081   7.371   3.643   1.394
  947WAT      O 3082   7.114   0.070   4.116
  947WAT     H1 3083   7.129   0.069   4.215
  947WAT     H2 3084   7.081  -0.020   4.086
  948WAT      O 3085   4.007   7.736   7.998
  948WAT     H1 3086   4.010   7.779   8.088
  948WAT     H2 3087   4.097   7.743   7.954
  949WAT      O 3088   1.459   4.771   3.348
  949WAT     H1 3089   1.478   4.865   3.376
  949WAT     H2 3090   1.524   4.709   3.391
  950WAT      O 3091   3.428   2.794   3.656
  950WAT     H1 3092   3.380   2.731   3.718
  950WAT     H2 3093   3.381   2.794   3.568
  951WAT      O 3094   6.577   1.482   8.094
  951WAT     H1 3095   6.505   1.470   8.024
  951WAT     H2 3096   6.534   1.501   8.182
  952WAT      O 3097   5.378   4.536   2.213
  952WAT     H1 3098   5.472   4.531   2.247
  952WAT     H2 3099   5.374   4.500   2.119
  953WAT      O 3100   1.180   7.163   8.209
  953WAT     H1 3101   1.204   7.107   8.289
  953WAT     H2 3102   1.202   7.113   8.126
  954WAT      O 3103   8.556   5.200   9.646
  954WAT     H1 3104   8.639   5.254   9.636
  954WAT     H2 3105   8.580   5.104   9.663
  955WAT      O 3106   2.808   4.376   3.439
  955WAT     H1 3107   2.806   4.401   3.535
  955WAT     H2 3108   2.866   4.441   3.389
  956WAT      O 3109   8.714   1.718   2.431
  956WAT     H1 3110   8.691   1.751   2.339
  956WAT     H2 3111   8.653   1.642   2.454
  957WAT      O 3112   3.471   0.937   1.664
  957WAT     H1 3113   3.570   0.946   1.657
  957WAT     H2 3114   3.444   0.934   1.760
  958WAT      O 3115   6.108   3.705   3.875
  958WAT     H1 3116   6.013   3.729   3.858
  958WAT     H2 3117   6.122   3.608   3.851
  959WAT      O 3118   1.829   5.380   4.357
  959WAT     H1 3119   1.839   5.325   4.274
  959WAT     H2 3120   1.767   5.456   4.339
  960WAT      O 3121   0.803   3.911   8.782
  960WAT     H1 3122   0.800   3.813   8.762
  960WAT     H2 3123   0.710   3.947   8.788
  961WAT      O 3124   2.301   3.715   9.433
  961WAT     H1 3125   2.341   3.807   9.433
  961WAT     H2 3126   2.214   3.717   9.385
  962WAT      O 3127   8.273   2.755   5.229
  962WAT     H1 3128   8.248   2.803   5.313
  962WAT     H2 3129   8.373   2.758   5.217
  963WAT      O 3130   0.564   0.095   0.742
  963WAT     H1 3131   0.552   0.001   0.774
  963WAT     H2 3132   0.511   0.158   0.799
  964WAT      O 3133   5.851   2.033   3.932
  964WAT     H1 3134   5.895   1.946   3.954
  964WAT     H2 3135   5.754   2.018   3.914
  965WAT      O 3136   4.045   2.942   8.209
  965WAT     H1 3137   4.136   2.901   8.200
  965WAT     H2 3138   4.012   2.930   8.302
  966WAT      O 3139   8.969   6.127   6.416
  966WAT     H1 3140   8.959   6.027   6.408
  966WAT     H2 3141   8.894   6.172   6.367
  967WAT      O 3142   1.105   8.866   0.938
  967WAT     H1 3143   1.179   8.848   1.003
  967WAT     H2 3144   1.134   8.936   0.872
  968WAT      O 3145   6.574   8.254   9.469
  968WAT     H1 3146   6.593   8.350   9.492
  968WAT     H2 3147   6.561   8.245   9.371
  969WAT      O 3148   5.298   2.977   0.152
  969WAT     H1 3149   5.302   2.893   0.207
  969WAT     H2 3150   5.339   2.959   0.063
  970WAT      O 3151   3.540   2.320   8.825
  970WAT     H1 3152   3.577   2.384   8.759
  970WAT     H2 3153   3.615   2.273   8.871
  971WAT      O 3154   2.385   3.385   7.739
  971WAT     H1 3155   2.484   3.404   7.738
  971WAT     H2 3156   2.358   3.350   7.649
  972WAT      O 3157   5.033   5.075   1.476
  972WAT     H1 3158   4.952   5.018   1.488
  972WAT     H2 3159   5.011   5.150   1.413
  973WAT      O 3160   3.603   4.259   5.690
  973WAT     H1 3161   3.521   4.205   5.669
  973WAT     H2 3162   3.585   4.356   5.674
  974WAT      O 3163   8.428   1.909   3.595
  974WAT     H1 3164   8.339   1.935   3.556
  974WAT     H2 3165   8.424   1.918   3.695
  975WAT      O 3166   7.452   4.059   7.091
  975WAT     H1 3167   7.470   4.094   7.183
  975WAT     H2 3168   7.539   4.038   7.046
  976WAT      O 3169   5.512   5.241   8.585
  976WAT     H1 3170   5.517   5.255   8.684
  976WAT     H2 3171   5.567   5.311   8.539
  977WAT      O 3172   4.803   4.678   8.287
  977WAT     H1 3173   4.811   4.776   8.270
  977WAT     H2 3174   4.744   4.664   8.367
  978WAT      O 3175   8.081   4.063   0.040
  978WAT     H1 3176   8.051   4.031   0.130
  978WAT     H2 3177   8.039   4.151   0.020
  979WAT      O 3178   1.157   5.001   7.474
  979WAT     H1 3179   1.079   5.063   7.463
  979WAT     H2 3180   1.200   4.986   7.385
  980WAT      O 3181   2.751   1.278   2.916
  980WAT     H1 3182   2.793   1.188   2.903
  980WAT     H2 3183   2.760   1.332   2.832
  981WAT      O 3184   7.309   3.281   6.228
  981WAT     H1 3185   7.309   3.368   6.179
  981WAT     H2 3186   7.368   3.288   6.308
  982WAT      O 3187   1.906   6.933   0.284
  982WAT     H1 3188   1.819   6.907   0.241
  982WAT     H2 3189   1.978   6.931   0.215
  983WAT      O 3190   8.487   3.803   8.787
  983WAT     H1 3191   8.471   3.877   8.853
  983WAT     H2 3192   8.401   3.753   8.772
  984WAT      O 3193   5.744   6.881   2.499
  984WAT     H1 3194   5.647   6.859   2.497
  984WAT     H2 3195   5.796   6.800   2.526
  985WAT      O 3196   0.969   8.541   5.243
  985WAT     H1 3197   0.883   8.489   5.246
  985WAT     H2 3198   0.954   8.631   5.284
  986WAT      O 3199   6.548   0.036   8.256
  986WAT     H1 3200   6.460  -0.001   8.226
  986WAT     H2 3201   6.576  -0.006   8.342
  987WAT      O 3202   6.932   8.633   7.836
  987WAT     H1 3203   6.835   8.614   7.816
  987WAT     H2 3204   6.948   8.618   7.934
  988WAT      O 3205   9.128   3.549   4.820
  988WAT     H1 3206   9.092   3.569   4.729
  988WAT     H2 3207   9.090   3.615   4.886
  989WAT      O 3208   6.243   2.226   5.083
  989WAT     H1 3209   6.286   2.202   4.996
  989WAT     H2 3210   6.175   2.157   5.107
  990WAT      O 3211   5.091   6.690   1.791
  990WAT     H1 3212   5.114   6.607   1.842
  990WAT     H2 3213   5.174   6.738   1.765
  991WAT      O 3214   9.690   8.619   4.687
  991WAT     H1 3215   9.665   8.579   4.599
  991WAT     H2 3216   9.608   8.658   4.730
  992WAT      O 3217   3.226   1.021   3.000
  992WAT     H1 3218   3.323   1.002   2.985
  992WAT     H2 3219   3.207   1.023   3.098
  993WAT      O 3220   9.560   8.116   7.964
  993WAT     H1 3221   9.474   8.069   7.945
  993WAT     H2 3222   9.637   8.057   7.939
  994WAT      O 3223   7.415   0.810   2.222
  994WAT     H1 3224   7.394   0.902   2.254
  994WAT     H2 3225   7.463   0.759   2.294
  995WAT      O 3226   0.660   8.904   7.938
  995WAT     H1 3227   0.605   8.987   7.931
  995WAT     H2 3228   0.693   8.879   7.847
  996WAT      O 3229   0.545   5.154   4.306
  996WAT     H1 3230   0.538   5.198   4.396
  996WAT     H2 3231   0.619   5.196   4.254
  997WAT      O 3232   6.629   0.615   6.502
  997WAT     H1 3233   6.576   0.534   6.475
  997WAT     H2 3234   6.713   0.585   6.547
  998WAT      O 3235   2.746   5.849   2.560
  998WAT     H1 3236   2.767   5.943   2.589
  998WAT     H2 3237   2.658   5.821   2.599
  999WAT      O 3238   2.069   5.743   3.246
  999WAT     H1 3239   2.159   5.780   3.223
  999WAT     H2 3240   2.071   5.644   3.240
 1000WAT      O 3241   7.466   2.032   3.737
 1000WAT     H1 3242   7.407   2.089   3.794
 1000WAT     H2 3243   7.561   2.060   3.749
 1001WAT      O 3244   2.225   2.282   0.837
 1001WAT     H1 3245   2.149   2.300   0.899
 1001WAT     H2 3246   2.253   2.367   0.792
 1002WAT      O 3247   1.904   5.647   2.318
 1002WAT     H1 3248   1.986   5.693   2.283
 1002WAT     H2 3249   1.877   5.689   2.405
 1003WAT      O 3250   5.745   9.065   4.878
 1003WAT     H1 3251   5.656   9.027   4.901
 1003WAT     H2 3252   5.773   9.130   4.949
 1004WAT      O 3253   3.649   0.826   2.285
 1004WAT     H1 3254   3.581   0.879   2.235
 1004WAT     H2 3255   3.604   0.769   2.353
 1005WAT      O 3256   7.986   7.485   2.829
 1005WAT     H1 3257   7.908   7.423   2.820
 1005WAT     H2 3258   8.021   7.507   2.738
 1006WAT      O 3259   5.171   4.875   2.329
 1006WAT     H1 3260   5.262   4.849   2.294
 1006WAT     H2 3261   5.182   4.934   2.408
 1007WAT      O 3262   5.358   6.773   2.652
 1007WAT     H1 3263   5.447   6.779   2.697
 1007WAT     H2 3264   5.286   6.793   2.718
 1008WAT      O 3265   8.625   3.981   0.442
 1008WAT     H1 3266   8.608   4.056   0.507
 1008WAT     H2 3267   8.713   3.938   0.464
 1009WAT      O 3268   3.968   6.691   9.603
 1009WAT     H1 3269   3.952   6.648   9.692
 1009WAT     H2 3270   3.924   6.636   9.531
 1010WAT      O 3271   7.025   2.402   2.038
 1010WAT     H1 3272   6.951   2.400   2.105
 1010WAT     H2 3273   6.996   2.356   1.954
 1011WAT      O 3274   2.263   9.793   6.825
 1011WAT     H1 3275   2.226   9.714   6.874
 1011WAT     H2 3276   2.291   9.765   6.733
 1012WAT      O 3277   4.291   2.644   0.767
 1012WAT     H1 3278   4.355   2.687   0.830
 1012WAT     H2 3279   4.262   2.711   0.698
 1013WAT      O 3280   4.203   7.015   6.650
 1013WAT     H1 3281   4.196   7.115   6.659
 1013WAT     H2 3282   4.130   6.982   6.591
 1014WAT      O 3283   2.177   5.072   7.728
 1014WAT     H1 3284   2.087   5.115   7.740
 1014WAT     H2 3285   2.165   4.975   7.706
 1015WAT      O 3286   3.274   8.341   2.575
 1015WAT     H1 3287   3.184   8.384   2.585
 1015WAT     H2 3288   3.341   8.390   2.630
 1016WAT      O 3289   5.273   2.089   0.776
 1016WAT     H1 3290   5.197   2.060   0.718
 1016WAT     H2 3291   5.238   2.109   0.868
 1017WAT      O 3292   0.535   1.201   0.269
 1017WAT     H1 3293   0.532   1.255   0.185
 1017WAT     H2 3294   0.594   1.246   0.336
 1018WAT      O 3295   4.406   5.460   5.020
 1018WAT     H1 3296   4.464   5.527   4.974
 1018WAT     H2 3297   4.367   5.500   5.102
 1019WAT      O 3298   2.916   8.239   0.451
 1019WAT     H1 3299   2.987   8.267   0.386
 1019WAT     H2 3300   2.860   8.167   0.410
 1020WAT      O 3301   4.670   1.824   0.436
 1020WAT     H1 3302   4.729   1.795   0.361
 1020WAT     H2 3303   4.661   1.750   0.502
 1021WAT      O 3304   4.813   6.016   3.319
 1021WAT     H1 3305   4.831   6.111   3.344
 1021WAT     H2 3306   4.714   6.002   3.310
 1022WAT      O 3307   4.495   4.842   6.604
 1022WAT     H1 3308   4.417   4.790   6.639
 1022WAT     H2 3309   4.568   4.779   6.576
 1023WAT      O 3310   3.450   7.751   6.552
 1023WAT     H1 3311   3.388   7.681   6.587
 1023WAT     H2 3312   3.511   7.783   6.625
 1024WAT      O 3313   8.990   2.672   8.398
 1024WAT     H1 3314   9.089   2.663   8.403
 1024WAT     H2 3315   8.961   2.752   8.450
 1025WAT      O 3316   7.348   6.255   1.947
 1025WAT     H1 3317   7.417   6.327   1.959
 1025WAT     H2 3318   7.392   6.171   1.917
 1026WAT      O 3319   4.384   5.967   5.160
 1026WAT     H1 3320   4.410   6.005   5.071
 1026WAT     H2 3321   4.414   5.872   5.166
 1027WAT      O 3322   8.699   1.855   6.079
 1027WAT     H1 3323   8.604   1.875   6.055
 1027WAT     H2 3324   8.760   1.897   6.012
 1028WAT      O 3325   2.902   6.513   2.048
 1028WAT     H1 3326   2.907   6.420   2.084
 1028WAT     H2 3327   2.820   6.523   1.992
 1029WAT      O 3328   6.048   9.076   0.151
 1029WAT     H1 3329   6.052   9.161   0.098
 1029WAT     H2 3330   5.985   9.088   0.228
 1030WAT      O 3331   7.544   7.985   7.051
 1030WAT     H1 3332   7.530   7.904   6.993
 1030WAT     H2 3333   7.545   8.067   6.994
 1031WAT      O 3334   0.244   5.448   0.714
 1031WAT     H1 3335   0.306   5.480   0.643
 1031WAT     H2 3336   0.150   5.454   0.682
 1032WAT      O 3337   4.065   4.948   2.606
 1032WAT     H1 3338   4.071   5.048   2.598
 1032WAT     H2 3339   3.982   4.916   2.561
 1033WAT      O 3340   1.837   5.376   3.181
 1033WAT     H1 3341   1.763   5.312   3.162
 1033WAT     H2 3342   1.815   5.465   3.139
 1034WAT      O 3343   4.383   3.847   0.197
 1034WAT     H1 3344   4.325   3.896   0.263
 1034WAT     H2 3345   4.331   3.772   0.157
 1035WAT      O 3346   5.774   7.424   3.346
 1035WAT     H1 3347   5.871   7.415   3.324
 1035WAT     H2 3348   5.737   7.505   3.301
 1036WAT      O 3349   9.546   3.810   0.479
 1036WAT     H1 3350   9.462   3.756   0.471
 1036WAT     H2 3351   9.597   3.780   0.560
 1037WAT      O 3352   3.375   1.708   1.800
 1037WAT     H1 3353   3.438   1.655   1.743
 1037WAT     H2 3354   3.334   1.780   1.745
 1038WAT      O 3355   1.681   7.071   4.939
 1038WAT     H1 3356   1.664   7.124   5.022
 1038WAT     H2 3357   1.608   7.004   4.927
 1039WAT      O 3358   5.273   4.289   7.900
 1039WAT     H1 3359   5.332   4.264   7.977
 1039WAT     H2 3360   5.180   4.303   7.933
 1040WAT      O 3361   2.068   7.048   9.536
 1040WAT     H1 3362   2.010   6.969   9.554
 1040WAT     H2 3363   2.157   7.017   9.501
 1041WAT      O 3364   8.028   5.794   5.771
 1041WAT     H1 3365   8.042   5.709   5.822
 1041WAT     H2 3366   8.026   5.871   5.835
 1042WAT      O 3367   2.897   8.495   7.442
 1042WAT     H1 3368   2.852   8.484   7.354
 1042WAT     H2 3369   2.866   8.424   7.505
 1043WAT      O 3370   2.743   8.580   2.236
 1043WAT     H1 3371   2.812   8.605   2.168
 1043WAT     H2 3372   2.749   8.482   2.256
 1044WAT      O 3373   0.536   3.654   3.737
 1044WAT     H1 3374   0.487   3.706   3.666
 1044WAT     H2 3375   0.622   3.620   3.699
 1045WAT      O 3376   2.579   4.577   4.000
 1045WAT     H1 3377   2.569   4.488   3.955
 1045WAT     H2 3378   2.664   4.579   4.053
 1046WAT      O 3379   5.484   6.397   9.283
 1046WAT     H1 3380   5.459   6.362   9.193
 1046WAT     H2 3381   5.544   6.477   9.272
 1047WAT      O 3382   5.762   6.518   9.272
 1047WAT     H1 3383   5.788   6.551   9.182
 1047WAT     H2 3384   5.785   6.586   9.341
 1048WAT      O 3385   4.195   9.318   8.159
 1048WAT     H1 3386   4.198   9.222   8.131
 1048WAT     H2 3387   4.281   9.343   8.203
 1049WAT      O 3388   3.125   9.729   4.125
 1049WAT     H1 3389   3.127   9.813   4.071
 1049WAT     H2 3390   3.031   9.711   4.155
 1050WAT      O 3391   6.925   9.342   9.873
 1050WAT     H1 3392   6.916   9.427   9.822
 1050WAT     H2 3393   6.992   9.283   9.828
 1051WAT      O 3394   5.196   5.571   4.951
 1051WAT     H1 3395   5.176   5.665   4.979
 1051WAT     H2 3396   5.112   5.529   4.916
 1052WAT      O 3397   1.390   2.951   3.524
 1052WAT     H1 3398   1.330   2.884   3.481
 1052WAT     H2 3399   1.472   2.905   3.559
 1053WAT      O 3400   1.876   7.994   7.427
 1053WAT     H1 3401   1.778   7.980   7.442
 1053WAT     H2 3402   1.909   7.927   7.361
 1054WAT      O 3403   4.822   8.043   4.059
 1054WAT     H1 3404   4.840   8.105   4.136
 1054WAT     H2 3405   4.905   7.992   4.037
 1055WAT      O 3406   1.045   5.345   5.342
 1055WAT     H1 3407   1.069   5.275   5.275
 1055WAT     H2 3408   1.129   5.380   5.384
 1056WAT      O 3409   9.852   5.560   4.617
 1056WAT     H1 3410   9.789   5.511   4.678
 1056WAT     H2 3411   9.912   5.494   4.572
 1057WAT      O 3412   3.505   8.121   0.215
 1057WAT     H1 3413   3.572   8.178   0.167
 1057WAT     H2 3414   3.442   8.081   0.149
 1058WAT      O 3415   2.235   1.384   2.504
 1058WAT     H1 3416   2.257   1.359   2.598
 1058WAT     H2 3417   2.314   1.367   2.445
 1059WAT      O 3418   3.850   8.639   2.117
 1059WAT     H1 3419   3.927   8.608   2.062
 1059WAT     H2 3420   3.871   8.622   2.214
 1060WAT      O 3421   1.712   5.026   4.415
 1060WAT     H1 3422   1.802   5.041   4.455
 1060WAT     H2 3423   1.719   5.020   4.316
 1061WAT      O 3424   2.464   4.345   3.755
 1061WAT     H1 3425   2.484   4.287   3.675
 1061WAT     H2 3426   2.372   4.325   3.788
 1062WAT      O 3427   5.813   6.903   2.812
 1062WAT     H1 3428   5.827   6.960   2.731
 1062WAT     H2 3429   5.865   6.942   2.888
 1063WAT      O 3430   0.125   6.060   7.643
 1063WAT     H1 3431   0.052   6.027   7.703
 1063WAT     H2 3432   0.102   6.040   7.548
 1064WAT      O 3433   2.709   8.257   1.713
 1064WAT     H1 3434   2.680   8.353   1.714
 1064WAT     H2 3435   2.754   8.237   1.626
 1065WAT      O 3436   6.146   8.434   9.193
 1065WAT     H1 3437   6.066   8.488   9.218
 1065WAT     H2 3438   6.225   8.494   9.184
 1066WAT      O 3439   1.857   8.582   0.044
 1066WAT     H1 3440   1.787   8.521   0.008
 1066WAT     H2 3441   1.828   8.677   0.033
 1067WAT      O 3442   2.894   4.802   6.790
 1067WAT     H1 3443   2.958   4.801   6.867
 1067WAT     H2 3444   2.817   4.861   6.811
 1068WAT      O 3445   2.852   7.272   4.993
 1068WAT     H1 3446   2.877   7.250   4.898
 1068WAT     H2 3447   2.923   7.329   5.034
 1069WAT      O 3448   8.702   6.732   9.188
 1069WAT     H1 3449   8.661   6.822   9.171
 1069WAT     H2 3450   8.630   6.664   9.199
 1070WAT      O 3451   1.608   3.638   4.691
 1070WAT     H1 3452   1.508   3.638   4.699
 1070WAT     H2 3453   1.643   3.549   4.721
 1071WAT      O 3454   1.567   8.132   8.622
 1071WAT     H1 3455   1.562   8.199   8.548
 1071WAT     H2 3456   1.613   8.050   8.589
 1072WAT      O 3457   5.378   7.053   7.796
 1072WAT     H1 3458   5.403   7.016   7.706
 1072WAT     H2 3459   5.360   7.151   7.788
 1073WAT      O 3460   2.453   5.091   7.732
 1073WAT     H1 3461   2.369   5.066   7.779
 1073WAT     H2 3462   2.479   5.184   7.759
 1074WAT      O 3463   3.670   4.018   0.701
 1074WAT     H1 3464   3.575   4.046   0.683
 1074WAT     H2 3465   3.728   4.098   0.706
 1075WAT      O 3466   8.880   7.093   6.678
 1075WAT     H1 3467   8.831   7.155   6.739
 1075WAT     H2 3468   8.891   7.135   6.588
 1076WAT      O 3469   5.573   8.364   8.927
 1076WAT     H1 3470   5.669   8.377   8.904
 1076WAT     H2 3471   5.525   8.326   8.848
 1077WAT      O 3472   7.766   4.071   2.252
 1077WAT     H1 3473   7.742   4.166   2.233
 1077WAT     H2 3474   7.685   4.020   2.282
 1078WAT      O 3475   2.624   9.664   5.797
 1078WAT     H1 3476   2.689   9.593   5.824
 1078WAT     H2 3477   2.532   9.625   5.788
 1079WAT      O 3478   0.735   4.057   4.094
 1079WAT     H1 3479   0.813   4.036   4.035
 1079WAT     H2 3480   0.653   4.011   4.058
 1080WAT      O 3481   2.779   6.922   8.151
 1080WAT     H1 3482   2.795   6.938   8.054
 1080WAT     H2 3483   2.726   6.838   8.163
 1081WAT      O 3484   6.042   5.464   4.705
 1081WAT     H1 3485   6.129   5.420   4.683
 1081WAT     H2 3486   5.987   5.404   4.763
 1082WAT      O 3487   6.837   6.849   6.199
 1082WAT     H1 3488   6.759   6.880   6.143
 1082WAT     H2 3489   6.879   6.770   6.155
 1083WAT      O 3490   3.586   0.337   8.249
 1083WAT     H1 3491   3.684   0.317   8.252
 1083WAT     H2 3492   3.557   0.344   8.154
 1084WAT      O 3493   5.552   2.996   5.679
 1084WAT     H1 3494   5.459   3.034   5.685
 1084WAT     H2 3495   5.615   3.055   5.730
 1085WAT      O 3496   5.335   0.892   0.202
 1085WAT     H1 3497   5.281   0.863   0.123
 1085WAT     H2 3498   5.347   0.815   0.265
 1086WAT      O 3499   8.975   3.672   7.306
 1086WAT     H1 3500   9.064   3.702   7.340
 1086WAT     H2 3501   8.904   3.702   7.369
 1087WAT      O 3502   2.761   6.639   7.448
 1087WAT     H1 3503   2.769   6.624   7.547
 1087WAT     H2 3504   2.852   6.633   7.406
 1088WAT      O 3505   2.699   6.670   8.563
 1088WAT     H1 3506   2.660   6.761   8.546
 1088WAT     H2 3507   2.696   6.651   8.661
 1089WAT      O 3508   3.910   4.989   9.699
 1089WAT     H1 3509   3.967   4.950   9.771
 1089WAT     H2 3510   3.874   5.077   9.729
 1090WAT      O 3511   1.236   4.192   1.484
 1090WAT     H1 3512   1.247   4.270   1.546
 1090WAT     H2 3513   1.140   4.164   1.481
 1091WAT      O 3514   9.087   7.214   3.963
 1091WAT     H1 3515   9.067   7.241   4.057
 1091WAT     H2 3516   9.185   7.226   3.946
 1092WAT      O 3517   1.780   9.084   0.475
 1092WAT     H1 3518   1.702   9.142   0.500
 1092WAT     H2 3519   1.856   9.143   0.445
 1093WAT      O 3520   9.212   1.277   0.067
 1093WAT     H1 3521   9.293   1.334   0.053
 1093WAT     H2 3522   9.212   1.240   0.160
 1094WAT      O 3523   7.596   5.706   3.442
 1094WAT     H1 3524   7.629   5.781   3.500
 1094WAT     H2 3525   7.629   5.720   3.349
 1095WAT      O 3526   6.528   2.222   2.928
 1095WAT     H1 3527   6.545   2.321   2.926
 1095WAT     H2 3528   6.432   2.205   2.907
 1096WAT      O 3529   2.895   9.027   7.975
 1096WAT     H1 3530   2.896   9.112   7.922
 1096WAT     H2 3531   2.862   9.048   8.068
 1097WAT      O 3532   7.761   2.851   8.601
 1097WAT     H1 3533   7.735   2.934   8.552
 1097WAT     H2 3534   7.819   2.794   8.543
 1098WAT      O 3535   5.796   6.525   7.775
 1098WAT     H1 3536   5.833   6.556   7.863
 1098WAT     H2 3537   5.713   6.577   7.754
 1099WAT      O 3538   9.179   5.631   3.594
 1099WAT     H1 3539   9.098   5.595   3.548
 1099WAT     H2 3540   9.241   5.672   3.527
 1100WAT      O 3541   8.796   6.649   1.347
 1100WAT     H1 3542   8.713   6.594   1.339
 1100WAT     H2 3543   8.868   6.596   1.392
 1101WAT      O 3544   4.537   1.690   5.830
 1101WAT     H1 3545   4.609   1.743   5.875
 1101WAT     H2 3546   4.474   1.655   5.899
 1102WAT      O 3547   3.296   0.262   5.607
 1102WAT     H1 3548   3.256   0.320   5.678
 1102WAT     H2 3549   3.348   0.188   5.651
 1103WAT      O 3550   1.258   9.111   4.856
 1103WAT     H1 3551   1.252   9.065   4.767
 1103WAT     H2 3552   1.308   9.197   4.846
 1104WAT      O 3553   3.813   6.477   9.437
 1104WAT     H1 3554   3.717   6.504   9.444
 1104WAT     H2 3555   3.823   6.383   9.468
 1105WAT      O 3556   4.657   4.808   0.181
 1105WAT     H1 3557   4.645   4.738   0.251
 1105WAT     H2 3558   4.688   4.765   0.096
 1106WAT      O 3559   6.974   4.000   0.311
 1106WAT     H1 3560   6.961   4.095   0.283
 1106WAT     H2 3561   6.938   3.987   0.403
 1107WAT      O 3562   9.632   5.373   7.591
 1107WAT     H1 3563   9.691   5.293   7.608
 1107WAT     H2 3564   9.686   5.457   7.602
 1108WAT      O 3565   3.244   0.637   0.557
 1108WAT     H1 3566   3.209   0.670   0.645
 1108WAT     H2 3567   3.336   0.672   0.543
 1109WAT      O 3568   6.433   8.064   2.465
 1109WAT     H1 3569   6.342   8.023   2.457
 1109WAT     H2 3570   6.445   8.099   2.557
 1110WAT      O 3571   6.436   6.458   0.552
 1110WAT     H1 3572   6.426   6.358   0.558
 1110WAT     H2 3573   6.353   6.501   0.587
 1111WAT      O 3574   8.017   5.148   7.315
 1111WAT     H1 3575   8.078   5.187   7.246
 1111WAT     H2 3576   8.042   5.053   7.332
 1112WAT      O 3577   0.725   7.111   0.556
 1112WAT     H1 3578   0.786   7.068   0.489
 1112WAT     H2 3579   0.720   7.054   0.638
 1113WAT      O 3580   3.065   1.088   3.463
 1113WAT     H1 3581   3.028   1.039   3.542
 1113WAT     H2 3582   3.095   1.179   3.492
 1114WAT      O 3583   1.383   8.698   6.208
 1114WAT     H1 3584   1.452   8.653   6.266
 1114WAT     H2 3585   1.380   8.796   6.232
 1115WAT      O 3586   0.584   2.965   4.787
 1115WAT     H1 3587   0.615   2.910   4.710
 1115WAT     H2 3588   0.592   2.912   4.871
 1116WAT      O 3589   2.260   6.134   0.890
 1116WAT     H1 3590   2.251   6.189   0.973
 1116WAT     H2 3591   2.357   6.123   0.869
 1117WAT      O 3592   5.951   3.095   1.727
 1117WAT     H1 3593   5.948   3.011   1.672
 1117WAT     H2 3594   5.870   3.098   1.786
 1118WAT      O 3595   7.067   6.726   1.160
 1118WAT     H1 3596   7.159   6.763   1.147
 1118WAT     H2 3597   7.052   6.652   1.094
 1119WAT      O 3598   1.819   4.404   3.435
 1119WAT     H1 3599   1.915   4.384   3.455
 1119WAT     H2 3600   1.763   4.323   3.455
 1120WAT      O 3601   8.244   6.729   7.113
 1120WAT     H1 3602   8.340   6.717   7.141
 1120WAT     H2 3603   8.203   6.639   7.098
 1121WAT      O 3604   9.257   4.415   1.418
 1121WAT     H1 3605   9.241   4.371   1.506
 1121WAT     H2 3606   9.355   4.412   1.397
 1122WAT      O 3607   6.637   3.650   8.202
 1122WAT     H1 3608   6.733   3.675   8.207
 1122WAT     H2 3609   6.609   3.610   8.289
 1123WAT      O 3610   5.491   5.239   3.124
 1123WAT     H1 3611   5.432   5.304   3.174
 1123WAT     H2 3612   5.504   5.157   3.180
 1124WAT      O 3613   4.813   2.630   2.855
 1124WAT     H1 3614   4.754   2.569   2.909
 1124WAT     H2 3615   4.900   2.642   2.902
 1125WAT      O 3616   2.960   5.071   4.121
 1125WAT     H1 3617   3.040   5.072   4.062
 1125WAT     H2 3618   2.912   4.984   4.111
 1126WAT      O 3619   1.161   0.927   4.890
 1126WAT     H1 3620   1.222   0.962   4.962
 1126WAT     H2 3621   1.146   0.829   4.904
 1127WAT      O 3622   5.585   1.192   0.387
 1127WAT     H1 3623   5.517   1.140   0.439
 1127WAT     H2 3624   5.676   1.177   0.427
 1128WAT      O 3625   9.873   9.326   4.201
 1128WAT     H1 3626   9.926   9.390   4.147
 1128WAT     H2 3627   9.877   9.235   4.160
 1129WAT      O 3628   7.380   3.630   5.322
 1129WAT     H1 3629   7.478   3.610   5.327
 1129WAT     H2 3630   7.329   3.562   5.374
 1130WAT      O 3631   6.480   4.407   7.529
 1130WAT     H1 3632   6.447   4.314   7.513
 1130WAT     H2 3633   6.543   4.434   7.456
 1131WAT      O 3634   4.890   3.160   3.159
 1131WAT     H1 3635   4.890   3.182   3.062
 1131WAT     H2 3636   4.804   3.190   3.200
 1132WAT      O 3637   3.065   5.909   6.091
 1132WAT     H1 3638   2.991   5.934   6.029
 1132WAT     H2 3639   3.126   5.988   6.102
 1133WAT      O 3640   9.492   5.154   1.977
 1133WAT     H1 3641   9.415   5.103   1.937
 1133WAT     H2 3642   9.576   5.099   1.969
 1134WAT      O 3643   1.087   9.708   1.535
 1134WAT     H1 3644   1.037   9.783   1.578
 1134WAT     H2 3645   1.185   9.728   1.537
 1135WAT      O 3646   0.222   8.558   5.901
 1135WAT     H1 3647   0.238   8.650   5.938
 1135WAT     H2 3648   0.204   8.564   5.803
 1136WAT      O 3649   8.813   9.804   3.704
 1136WAT     H1 3650   8.724   9.811   3.749
 1136WAT     H2 3651   8.820   9.872   3.632
 1137WAT      O 3652   3.883   3.265   1.053
 1137WAT     H1 3653   3.873   3.361   1.028
 1137WAT     H2 3654   3.895   3.210   0.970
 1138WAT      O 3655   8.792   9.732   0.465
 1138WAT     H1 3656   8.871   9.670   0.470
 1138WAT     H2 3657   8.782   9.780   0.552
 1139WAT      O 3658   4.044   5.588   8.701
 1139WAT     H1 3659   4.036   5.661   8.769
 1139WAT     H2 3660   4.015   5.623   8.612
 1140WAT      O 3661   2.488   1.979   2.746
 1140WAT     H1 3662   2.478   1.929   2.832
 1140WAT     H2 3663   2.489   1.914   2.670
 1141WAT      O 3664   1.525   0.620   0.310
 1141WAT     H1 3665   1.545   0.713   0.339
 1141WAT     H2 3666   1.498   0.620   0.213
 1142WAT      O 3667   9.019   0.541   8.429
 1142WAT     H1 3668   9.053   0.635   8.416
 1142WAT     H2 3669   8.963   0.538   8.511
 1143WAT      O 3670   9.761   7.157   4.856
 1143WAT     H1 3671   9.728   7.241   4.900
 1143WAT     H2 3672   9.778   7.087   4.926
 1144WAT      O 3673   2.426   3.502   3.802
 1144WAT     H1 3674   2.379   3.440   3.740
 1144WAT     H2 3675   2.360   3.566   3.841
 1145WAT      O 3676   0.865   0.803   9.480
 1145WAT     H1 3677   0.960   0.834   9.480
 1145WAT     H2 3678   0.821   0.828   9.566
 1146WAT      O 3679   8.153   6.606   1.552
 1146WAT     H1 3680   8.087   6.553   1.500
 1146WAT     H2 3681   8.188   6.551   1.628
 1147WAT      O 3682   6.316   2.979   2.604
 1147WAT     H1 3683   6.414   2.972   2.586
 1147WAT     H2 3684   6.266   2.917   2.543
 1148WAT      O 3685   6.230   5.658   4.564
 1148WAT     H1 3686   6.201   5.591   4.495
 1148WAT     H2 3687   6.282   5.731   4.520
 1149WAT      O 3688   2.941   3.954   3.223
 1149WAT     H1 3689   3.022   3.940   3.166
 1149WAT     H2 3690   2.969   3.980   3.315
 1150WAT      O 3691   2.260   2.262   1.929
 1150WAT     H1 3692   2.237   2.216   1.843
 1150WAT     H2 3693   2.206   2.222   2.003
 1151WAT      O 3694   3.945   1.562   6.123
 1151WAT     H1 3695   3.892   1.478   6.114
 1151WAT     H2 3696   4.037   1.540   6.156
 1152WAT      O 3697   5.652   3.750   6.394
 1152WAT     H1 3698   5.646   3.764   6.492
 1152WAT     H2 3699   5.561   3.748   6.354
 1153WAT      O 3700   2.152   2.896   5.239
 1153WAT     H1 3701   2.213   2.908   5.317
 1153WAT     H2 3702   2.203   2.911   5.154
 1154WAT      O 3703   0.016   1.491   2.532
 1154WAT     H1 3704   0.065   1.448   2.608
 1154WAT     H2 3705   0.075   1.560   2.490
 1155WAT      O 3706   5.904   7.255   2.108
 1155WAT     H1 3707   5.986   7.216   2.067
 1155WAT     H2 3708   5.849   7.181   2.148
 1156WAT      O 3709   7.310   6.166   9.432
 1156WAT     H1 3710   7.279   6.213   9.349
 1156WAT     H2 3711   7.240   6.102   9.461
 1157WAT      O 3712   3.846   3.131   9.506
 1157WAT     H1 3713   3.867   3.089   9.418
 1157WAT     H2 3714   3.877   3.226   9.506
 1158WAT      O 3715   6.865   4.306   4.838
 1158WAT     H1 3716   6.816   4.255   4.767
 1158WAT     H2 3717   6.842   4.269   4.928
 1159WAT      O 3718   0.077   7.705   3.896
 1159WAT     H1 3719   0.156   7.756   3.863
 1159WAT     H2 3720   0.068   7.718   3.995
 1160WAT      O 3721   3.128   0.159   4.041
 1160WAT     H1 3722   3.051   0.150   3.978
 1160WAT     H2 3723   3.188   0.233   4.011
 1161WAT      O 3724   7.963   0.947   4.709
 1161WAT     H1 3725   7.909   0.974   4.629
 1161WAT     H2 3726   7.909   0.963   4.792
 1162WAT      O 3727   0.123   9.771   7.750
 1162WAT     H1 3728   0.187   9.695   7.743
 1162WAT     H2 3729   0.062   9.758   7.828
 1163WAT      O 3730   2.671   7.066   1.750
 1163WAT     H1 3731   2.662   6.974   1.788
 1163WAT     H2 3732   2.747   7.113   1.794
 1164WAT      O 3733   8.520   9.331   2.779
 1164WAT     H1 3734   8.479   9.243   2.754
 1164WAT     H2 3735   8.465   9.374   2.850
 1165WAT      O 3736   3.941   4.671   0.517
 1165WAT     H1 3737   4.039   4.690   0.525
 1165WAT     H2 3738   3.925   4.573   0.532
 1166WAT      O 3739   9.800   8.888   8.894
 1166WAT     H1 3740   9.846   8.800   8.880
 1166WAT     H2 3741   9.825   8.924   8.984
 1167WAT      O 3742   8.392   7.933   7.621
 1167WAT     H1 3743   8.311   7.922   7.678
 1167WAT     H2 3744   8.412   8.030   7.608
 1168WAT      O 3745   5.677   7.850   6.469
 1168WAT     H1 3746   5.664   7.756   6.439
 1168WAT     H2 3747   5.707   7.850   6.565
 1169WAT      O 3748   9.346   7.731   2.389
 1169WAT     H1 3749   9.326   7.826   2.365
 1169WAT     H2 3750   9.444   7.713   2.376
 1170WAT      O 3751   9.113   6.493   7.088
 1170WAT     H1 3752   9.161   6.569   7.132
 1170WAT     H2 3753   9.174   6.450   7.021
 1171WAT      O 3754   2.345   1.858   4.453
 1171WAT     H1 3755   2.303   1.819   4.534
 1171WAT     H2 3756   2.341   1.792   4.378
 1172WAT      O 3757   1.312   4.362   0.106
 1172WAT     H1 3758   1.333   4.431   0.175
 1172WAT     H2 3759   1.255   4.404   0.035
 1173WAT      O 3760   6.223   5.787   8.016
 1173WAT     H1 3761   6.293   5.725   8.049
 1173WAT     H2 3762   6.170   5.822   8.094
 1174WAT      O 3763   4.938   4.540   3.272
 1174WAT     H1 3764   4.920   4.448   3.238
 1174WAT     H2 3765   4.979   4.534   3.364
 1175WAT      O 3766   4.386   4.807   0.915
 1175WAT     H1 3767   4.363   4.719   0.955
 1175WAT     H2 3768   4.456   4.793   0.844
 1176WAT      O 3769   2.672   4.449   7.121
 1176WAT     H1 3770   2.576   4.445   7.150
 1176WAT     H2 3771   2.679   4.418   7.026
 1177WAT      O 3772   2.889   3.329   4.053
 1177WAT     H1 3773   2.887   3.428   4.070
 1177WAT     H2 3774   2.922   3.313   3.960
 1178WAT      O 3775   6.669   5.245   3.900
 1178WAT     H1 3776   6.695   5.339   3.921
 1178WAT     H2 3777   6.570   5.236   3.901
 1179WAT      O 3778   5.681   8.270   0.623
 1179WAT     H1 3779   5.699   8.338   0.553
 1179WAT     H2 3780   5.745   8.194   0.614
 1180WAT      O 3781   3.363   7.203   8.943
 1180WAT     H1 3782   3.462   7.193   8.939
 1180WAT     H2 3783   3.340   7.284   8.997
 1181WAT      O 3784   0.506   6.004   9.454
 1181WAT     H1 3785   0.509   5.992   9.553
 1181WAT     H2 3786   0.420   6.050   9.428
 1182WAT      O 3787   4.431   0.234   4.874
 1182WAT     H1 3788   4.385   0.257   4.788
 1182WAT     H2 3789   4.529   0.250   4.866
 1183WAT      O 3790   2.668   4.116   6.931
 1183WAT     H1 3791   2.657   4.209   6.897
 1183WAT     H2 3792   2.763   4.102   6.961
 1184WAT      O 3793   0.046   3.083   0.164
 1184WAT     H1 3794  -0.034   3.050   0.214
 1184WAT     H2 3795   0.019   3.162   0.108
 1185WAT      O 3796   7.461   4.762   4.569
 1185WAT     H1 3797   7.456   4.822   4.649
 1185WAT     H2 3798   7.535   4.696   4.581
 1186WAT      O 3799   6.904   9.079   0.709
 1186WAT     H1 3800   6.808   9.051   0.711
 1186WAT     H2 3801   6.909   9.178   0.693
 1187WAT      O 3802   2.429   0.156   0.906
 1187WAT     H1 3803   2.487   0.238   0.897
 1187WAT     H2 3804   2.378   0.142   0.821
 1188WAT      O 3805   4.173   4.185   6.632
 1188WAT     H1 3806   4.091   4.129   6.625
 1188WAT     H2 3807   4.250   4.136   6.591
 1189WAT      O 3808   4.920   8.496   5.923
 1189WAT     H1 3809   4.987   8.426   5.947
 1189WAT     H2 3810   4.847   8.455   5.869
 1190WAT      O 3811   0.995   8.145   9.026
 1190WAT     H1 3812   0.968   8.049   9.016
 1190WAT     H2 3813   1.088   8.149   9.063
 1191WAT      O 3814   6.456   6.606   2.860
 1191WAT     H1 3815   6.419   6.694   2.829
 1191WAT     H2 3816   6.427   6.534   2.796
 1192WAT      O 3817   6.281   1.214   7.195
 1192WAT     H1 3818   6.229   1.159   7.261
 1192WAT     H2 3819   6.242   1.306   7.193
 1193WAT      O 3820   8.419   3.067   1.603
 1193WAT     H1 3821   8.508   3.100   1.572
 1193WAT     H2 3822   8.396   2.982   1.556
 1194WAT      O 3823   9.282   9.150   6.559
 1194WAT     H1 3824   9.224   9.197   6.625
 1194WAT     H2 3825   9.297   9.056   6.589
 1195WAT      O 3826   5.909   4.027   2.386
 1195WAT     H1 3827   5.978   4.042   2.315
 1195WAT     H2 3828   5.930   3.942   2.435
 1196WAT      O 3829   0.951   0.833   4.504
 1196WAT     H1 3830   0.965   0.899   4.578
 1196WAT     H2 3831   0.860   0.845   4.465
 1197WAT      O 3832   0.577   0.704   9.415
 1197WAT     H1 3833   0.503   0.749   9.366
 1197WAT     H2 3834   0.663   0.720   9.367
 1198WAT      O 3835   0.384   6.471   3.825
 1198WAT     H1 3836   0.415   6.555   3.781
 1198WAT     H2 3837   0.298   6.441   3.783
 1199WAT      O 3838   0.113   2.683   0.309
 1199WAT     H1 3839   0.179   2.704   0.381
 1199WAT     H2 3840   0.038   2.630   0.346
 1200WAT      O 3841   8.712   0.724   5.128
 1200WAT     H1 3842   8.714   0.651   5.197
 1200WAT     H2 3843   8.805   0.753   5.106
 1201WAT      O 3844   8.269   5.329   7.748
 1201WAT     H1 3845   8.188   5.308   7.693
 1201WAT     H2 3846   8.338   5.258   7.735
 1202WAT      O 3847   8.669   1.482   4.335
 1202WAT     H1 3848   8.757   1.483   4.383
 1202WAT     H2 3849   8.668   1.553   4.265
 1203WAT      O 3850   6.318   2.702   3.699
 1203WAT     H1 3851   6.378   2.739   3.770
 1203WAT     H2 3852   6.338   2.604   3.687
 1204WAT      O 3853   6.884   2.918   8.877
 1204WAT     H1 3854   6.899   2.962   8.965
 1204WAT     H2 3855   6.954   2.848   8.862
 1205WAT      O 3856   7.202   9.714   9.634
 1205WAT     H1 3857   7.202   9.675   9.541
 1205WAT     H2 3858   7.191   9.641   9.701
 1206WAT      O 3859   8.642   1.469   4.767
 1206WAT     H1 3860   8.710   1.429   4.705
 1206WAT     H2 3861   8.603   1.550   4.725
 1207WAT      O 3862   1.548   3.333   4.185
 1207WAT     H1 3863   1.511   3.342   4.278
 1207WAT     H2 3864   1.600   3.414   4.162
 1208WAT      O 3865   2.209   9.303   4.967
 1208WAT     H1 3866   2.259   9.369   5.023
 1208WAT     H2 3867   2.218   9.212   5.007
 1209WAT      O 3868   9.084   5.799   0.482
 1209WAT     H1 3869   9.016   5.738   0.523
 1209WAT     H2 3870   9.063   5.814   0.386
 1210WAT      O 3871   3.087   7.153   4.438
 1210WAT     H1 3872   3.086   7.107   4.350
 1210WAT     H2 3873   3.069   7.087   4.511
 1211WAT      O 3874   0.288   5.036   7.713
 1211WAT     H1 3875   0.196   4.997   7.721
 1211WAT     H2 3876   0.291   5.123   7.761
 1212WAT      O 3877   5.242   1.861   5.815
 1212WAT     H1 3878   5.236   1.774   5.864
 1212WAT     H2 3879   5.150   1.896   5.797
 1213WAT      O 3880   6.840   0.658   6.329
 1213WAT     H1 3881   6.898   0.715   6.387
 1213WAT     H2 3882   6.757   0.633   6.378
 1214WAT      O 3883   6.077   0.905   5.109
 1214WAT     H1 3884   6.018   0.930   5.032
 1214WAT     H2 3885   6.150   0.973   5.118
 1215WAT      O 3886   8.156   0.608   0.248
 1215WAT     H1 3887   8.206   0.695   0.239
 1215WAT     H2 3888   8.220   0.532   0.237
 1216WAT      O 3889   8.356   4.015   8.935
 1216WAT     H1 3890   8.342   4.035   8.838
 1216WAT     H2 3891   8.282   4.055   8.988
 1217WAT      O 3892   8.750   5.394   5.407
 1217WAT     H1 3893   8.815   5.334   5.453
 1217WAT     H2 3894   8.797   5.445   5.335
 1218WAT      O 3895   3.052   0.024   2.967
 1218WAT     H1 3896   3.151   0.014   2.977
 1218WAT     H2 3897   3.033   0.088   2.893
 1219WAT      O 3898   7.140   9.557   9.855
 1219WAT     H1 3899   7.202   9.489   9.894
 1219WAT     H2 3900   7.076   9.588   9.926
 1220WAT      O 3901   6.687   9.734   3.382
 1220WAT     H1 3902   6.626   9.794   3.329
 1220WAT     H2 3903   6.634   9.692   3.456
 1221WAT      O 3904   8.715   8.179   4.300
 1221WAT     H1 3905   8.634   8.235   4.285
 1221WAT     H2 3906   8.744   8.137   4.214
 1222WAT      O 3907   1.000   1.621   4.897
 1222WAT     H1 3908   0.908   1.609   4.936
 1222WAT     H2 3909   1.013   1.717   4.873
 1223WAT      O 3910   7.188   6.228   1.294
 1223WAT     H1 3911   7.196   6.319   1.335
 1223WAT     H2 3912   7.094   6.195   1.305
 1224WAT      O 3913   2.574   4.952   4.652
 1224WAT     H1 3914   2.564   4.997   4.564
 1224WAT     H2 3915   2.668   4.917   4.662
 1225WAT      O 3916   8.628   1.503   8.872
 1225WAT     H1 3917   8.610   1.405   8.879
 1225WAT     H2 3918   8.543   1.554   8.885
 1226WAT      O 3919   5.141   2.387   6.839
 1226WAT     H1 3920   5.225   2.369   6.789
 1226WAT     H2 3921   5.112   2.303   6.886
 1227WAT      O 3922   2.909   8.490   4.445
 1227WAT     H1 3923   2.917   8.507   4.543
 1227WAT     H2 3924   2.814   8.466   4.423
 1228WAT      O 3925   2.044   9.794   2.724
 1228WAT     H1 3926   2.058   9.809   2.626
 1228WAT     H2 3927   1.953   9.757   2.739
 1229WAT      O 3928   1.616   6.022   4.282
 1229WAT     H1 3929   1.633   6.120   4.294
 1229WAT     H2 3930   1.689   5.982   4.227
 1230WAT      O 3931   2.161   3.265   0.907
 1230WAT     H1 3932   2.124   3.175   0.931
 1230WAT     H2 3933   2.260   3.266   0.924
 1231WAT      O 3934   8.633   4.605   9.671
 1231WAT     H1 3935   8.534   4.611   9.669
 1231WAT     H2 3936   8.670   4.677   9.730
 1232WAT      O 3937   3.598   9.684   6.957
 1232WAT     H1 3938   3.517   9.691   7.015
 1232WAT     H2 3939   3.627   9.589   6.950
 1233WAT      O 3940   1.024   7.451   1.449
 1233WAT     H1 3941   0.944   7.493   1.406
 1233WAT     H2 3942   1.101   7.451   1.385
 1234WAT      O 3943   2.028   4.155   4.464
 1234WAT     H1 3944   2.112   4.134   4.513
 1234WAT     H2 3945   1.949   4.137   4.523
 1235WAT      O 3946   1.386   5.271   1.236
 1235WAT     H1 3947   1.299   5.320   1.232
 1235WAT     H2 3948   1.453   5.326   1.287
 1236WAT      O 3949   4.257   3.495   1.022
 1236WAT     H1 3950   4.345   3.449   1.011
 1236WAT     H2 3951   4.205   3.452   1.095
 1237WAT      O 3952   6.281   2.671   5.184
 1237WAT     H1 3953   6.317   2.754   5.142
 1237WAT     H2 3954   6.184   2.662   5.163
 1238WAT      O 3955   4.565   3.339   5.827
 1238WAT     H1 3956   4.602   3.405   5.892
 1238WAT     H2 3957   4.584   3.369   5.733
 1239WAT      O 3958   7.501   9.766   9.574
 1239WAT     H1 3959   7.532   9.826   9.500
 1239WAT     H2 3960   7.404   9.746   9.561
 1240WAT      O 3961   5.290   8.777   8.813
 1240WAT     H1 3962   5.296   8.793   8.715
 1240WAT     H2 3963   5.342   8.848   8.862
 1241WAT      O 3964   3.880   9.045   8.564
 1241WAT     H1 3965   3.805   9.011   8.506
 1241WAT     H2 3966   3.928   9.118   8.516
 1242WAT      O 3967   8.479   3.365   0.853
 1242WAT     H1 3968   8.476   3.273   0.814
 1242WAT     H2 3969   8.545   3.367   0.928
 1243WAT      O 3970   8.588   3.594   6.956
 1243WAT     H1 3971   8.517   3.533   6.921
 1243WAT     H2 3972   8.608   3.571   7.052
 1244WAT      O 3973   6.548   0.108   1.414
 1244WAT     H1 3974   6.505   0.190   1.376
 1244WAT     H2 3975   6.587   0.054   1.339
 1245WAT      O 3976   4.920   5.142   7.836
 1245WAT     H1 3977   4.936   5.118   7.741
 1245WAT     H2 3978   5.007   5.168   7.879
 1246WAT      O 3979   8.159   2.835   2.992
 1246WAT     H1 3980   8.111   2.811   2.908
 1246WAT     H2 3981   8.157   2.935   3.004
 1247WAT      O 3982   4.999   4.720   0.094
 1247WAT     H1 3983   4.965   4.666   0.018
 1247WAT     H2 3984   5.039   4.660   0.163
 1248WAT      O 3985   0.735   3.638   4.967
 1248WAT     H1 3986   0.732   3.632   4.867
 1248WAT     H2 3987   0.646   3.670   5.001
 1249WAT      O 3988   9.265   9.814   0.557
 1249WAT     H1 3989   9.182   9.767   0.587
 1249WAT     H2 3990   9.292   9.779   0.467
 1250WAT      O 3991   0.096   5.211   8.917
 1250WAT     H1 3992   0.177   5.254   8.877
 1250WAT     H2 3993   0.039   5.172   8.845
 1251WAT      O 3994   5.718   7.995   9.438
 1251WAT     H1 3995   5.649   8.040   9.382
 1251WAT     H2 3996   5.728   8.044   9.525
 1252WAT      O 3997   5.963   2.588   6.423
 1252WAT     H1 3998   5.874   2.634   6.417
 1252WAT     H2 3999   5.960   2.505   6.367
 1253WAT      O 4000   3.241   1.936   0.444
 1253WAT     H1 4001   3.205   1.893   0.361
 1253WAT     H2 4002   3.226   2.034   0.441
 1254WAT      O 4003   0.864   1.513   1.316
 1254WAT     H1 4004   0.877   1.564   1.401
 1254WAT     H2 4005   0.771   1.477   1.312
 1255WAT      O 4006   8.392   4.422   5.365
 1255WAT     H1 4007   8.397   4.325   5.389
 1255WAT     H2 4008   8.448   4.475   5.428
 1256WAT      O 4009   1.067   2.779   2.795
 1256WAT     H1 4010   1.003   2.707   2.822
 1256WAT     H2 4011   1.150   2.737   2.760
 1257WAT      O 4012   6.856   6.429   7.200
 1257WAT     H1 4013   6.876   6.479   7.284
 1257WAT     H2 4014   6.784   6.362   7.217
 1258WAT      O 4015   3.974   6.428   4.031
 1258WAT     H1 4016   4.039   6.370   3.983
 1258WAT     H2 4017   3.910   6.371   4.084
 1259WAT      O 4018   0.936   8.983   6.655
 1259WAT     H1 4019   0.863   9.051   6.645
 1259WAT     H2 4020   0.966   8.953   6.564
 1260WAT      O 4021   5.107   8.241   3.412
 1260WAT     H1 4022   5.131   8.144   3.409
 1260WAT     H2 4023   5.191   8.296   3.404
 1261WAT      O 4024   7.454   8.936   4.526
 1261WAT     H1 4025   7.384   8.872   4.493
 1261WAT     H2 4026   7.512   8.890   4.593
 1262WAT      O 4027   9.206   4.747   3.681
 1262WAT     H1 4028   9.283   4.705   3.730
 1262WAT     H2 4029   9.216   4.730   3.583
 1263WAT      O 4030   8.408   0.578   4.995
 1263WAT     H1 4031   8.333   0.514   4.980
 1263WAT     H2 4032   8.374   0.672   4.990
 1264WAT      O 4033   0.156   0.072   2.167
 1264WAT     H1 4034   0.176   0.137   2.094
 1264WAT     H2 4035   0.113  -0.010   2.128
 1265WAT      O 4036   5.326   2.281   3.540
 1265WAT     H1 4037   5.249   2.295   3.602
 1265WAT     H2 4038   5.328   2.355   3.473
 1266WAT      O 4039   5.903   9.638   0.956
 1266WAT     H1 4040   5.817   9.688   0.965
 1266WAT     H2 4041   5.965   9.688   0.895
 1267WAT      O 4042   6.669   2.425   4.906
 1267WAT     H1 4043   6.575   2.459   4.906
 1267WAT     H2 4044   6.689   2.383   4.995
 1268WAT      O 4045   5.663   8.204   2.490
 1268WAT     H1 4046   5.588   8.188   2.553
 1268WAT     H2 4047   5.694   8.117   2.451
 1269WAT      O 4048   8.011   7.288   0.323
 1269WAT     H1 4049   7.979   7.196   0.344
 1269WAT     H2 4050   7.957   7.355   0.375
 1270WAT      O 4051   4.184   4.944   8.935
 1270WAT     H1 4052   4.184   5.006   9.014
 1270WAT     H2 4053   4.090   4.933   8.902
 1271WAT      O 4054   7.102   9.220   9.724
 1271WAT     H1 4055   7.187   9.241   9.773
 1271WAT     H2 4056   7.105   9.125   9.692
 1272WAT      O 4057   0.924   5.971   4.514
 1272WAT     H1 4058   0.994   5.903   4.533
 1272WAT     H2 4059   0.913   6.031   4.593
 1273WAT      O 4060   2.883   1.222   8.439
 1273WAT     H1 4061   2.967   1.222   8.385
 1273WAT     H2 4062   2.898   1.171   8.524
 1274WAT      O 4063   6.664   0.089   2.786
 1274WAT     H1 4064   6.639   0.185   2.772
 1274WAT     H2 4065   6.759   0.084   2.817
 1275WAT      O 4066   3.369   4.988   3.748
 1275WAT     H1 4067   3.321   5.031   3.824
 1275WAT     H2 4068   3.465   5.016   3.749
 1276WAT      O 4069   8.551   6.866   2.927
 1276WAT     H1 4070   8.544   6.963   2.906
 1276WAT     H2 4071   8.637   6.830   2.890
 1277WAT      O 4072   8.244   2.969   5.469
 1277WAT     H1 4073   8.273   2.932   5.558
 1277WAT     H2 4074   8.262   3.068   5.468
 1278WAT      O 4075   2.503   2.395   2.652
 1278WAT     H1 4076   2.554   2.330   2.708
 1278WAT     H2 4077   2.410   2.403   2.687
 1279WAT      O 4078   5.004   6.627   8.758
 1279WAT     H1 4079   5.074   6.626   8.686
 1279WAT     H2 4080   4.957   6.539   8.760
 1280WAT      O 4081   8.563   5.542   4.530
 1280WAT     H1 4082   8.537   5.633   4.562
 1280WAT     H2 4083   8.481   5.490   4.505
 1281WAT      O 4084   9.812   4.739   0.532
 1281WAT     H1 4085   9.760   4.659   0.562
 1281WAT     H2 4086   9.803   4.812   0.600
 1282WAT      O 4087   6.287   7.048   3.599
 1282WAT     H1 4088   6.253   7.105   3.524
 1282WAT     H2 4089   6.337   7.106   3.665
 1283WAT      O 4090   7.739   9.140   2.115
 1283WAT     H1 4091   7.786   9.141   2.203
 1283WAT     H2 4092   7.794   9.190   2.048
 1284WAT      O 4093   7.989   1.877   5.107
 1284WAT     H1 4094   7.980   1.799   5.168
 1284WAT     H2 4095   7.979   1.847   5.012
 1285WAT      O 4096   3.065   0.320   2.238
 1285WAT     H1 4097   3.127   0.268   2.295
 1285WAT     H2 4098   3.033   0.263   2.162
 1286WAT      O 4099   9.151   7.551   3.159
 1286WAT     H1 4100   9.143   7.650   3.164
 1286WAT     H2 4101   9.072   7.513   3.110
 1287WAT      O 4102   5.817   3.631   4.118
 1287WAT     H1 4103   5.905   3.631   4.166
 1287WAT     H2 4104   5.798   3.723   4.084
 1288WAT      O 4105   7.179   2.453   5.310
 1288WAT     H1 4106   7.082   2.431   5.324
 1288WAT     H2 4107   7.236   2.378   5.342
 1289WAT      O 4108   8.213   8.454   7.109
 1289WAT     H1 4109   8.127   8.483   7.067
 1289WAT     H2 4110   8.209   8.357   7.130
 1290WAT      O 4111   1.391   7.390   3.406
 1290WAT     H1 4112   1.298   7.355   3.404
 1290WAT     H2 4113   1.444   7.350   3.330
 1291WAT      O 4114   0.359   6.029   5.855
 1291WAT     H1 4115   0.261   6.046   5.843
 1291WAT     H2 4116   0.397   6.097   5.918
 1292WAT      O 4117   4.490   0.525   4.803
 1292WAT     H1 4118   4.472   0.524   4.704
 1292WAT     H2 4119   4.567   0.465   4.824
 1293WAT      O 4120   2.147   2.449   0.401
 1293WAT     H1 4121   2.152   2.484   0.308
 1293WAT     H2 4122   2.170   2.522   0.466
 1294WAT      O 4123   8.509   4.023   3.273
 1294WAT     H1 4124   8.430   3.963   3.280
 1294WAT     H2 4125   8.579   3.979   3.216
 1295WAT      O 4126   3.400   4.263   8.965
 1295WAT     H1 4127   3.394   4.322   8.885
 1295WAT     H2 4128   3.464   4.188   8.947
 1296WAT      O 4129   6.344   3.703   6.683
 1296WAT     H1 4130   6.326   3.790   6.728
 1296WAT     H2 4131   6.329   3.713   6.584
 1297WAT      O 4132   5.630   3.266   0.956
 1297WAT     H1 4133   5.628   3.185   0.896
 1297WAT     H2 4134   5.630   3.349   0.900
 1298WAT      O 4135   9.730   5.573   3.334
 1298WAT     H1 4136   9.816   5.595   3.288
 1298WAT     H2 4137   9.654   5.613   3.284
 1299WAT      O 4138   0.545   0.332   6.412
 1299WAT     H1 4139   0.559   0.235   6.429
 1299WAT     H2 4140   0.630   0.382   6.430
 1300WAT      O 4141   5.922   0.850   4.859
 1300WAT     H1 4142   5.840   0.896   4.893
 1300WAT     H2 4143   5.916   0.752   4.877
 1301WAT      O 4144   7.530   5.970   7.307
 1301WAT     H1 4145   7.505   5.966   7.404
 1301WAT     H2 4146   7.620   5.929   7.294
 1302WAT      O 4147   8.736   0.450   8.863
 1302WAT     H1 4148   8.704   0.523   8.922
 1302WAT     H2 4149   8.660   0.390   8.839
 1303WAT      O 4150   8.120   2.790   5.866
 1303WAT     H1 4151   8.052   2.777   5.793
 1303WAT     H2 4152   8.135   2.888   5.880
 1304WAT      O 4153   8.904   5.136   6.079
 1304WAT     H1 4154   8.903   5.037   6.091
 1304WAT     H2 4155   8.992   5.164   6.039
 1305WAT      O 4156   1.448   8.651   8.692
 1305WAT     H1 4157   1.373   8.655   8.626
 1305WAT     H2 4158   1.534   8.670   8.645
 1306WAT      O 4159   6.796   5.063   0.983
 1306WAT     H1 4160   6.879   5.116   0.999
 1306WAT     H2 4161   6.727   5.122   0.940
 1307WAT      O 4162   4.609   7.567   3.994
 1307WAT     H1 4163   4.606   7.663   4.021
 1307WAT     H2 4164   4.687   7.551   3.934
 1308WAT      O 4165   3.973   5.895   1.399
 1308WAT     H1 4166   3.987   5.949   1.316
 1308WAT     H2 4167   3.888   5.844   1.391
 1309WAT      O 4168   4.087   3.966   7.056
 1309WAT     H1 4169   4.030   3.914   6.993
 1309WAT     H2 4170   4.161   4.010   7.006
 1310WAT      O 4171   6.416   0.566   3.182
 1310WAT     H1 4172   6.320   0.592   3.185
 1310WAT     H2 4173   6.424   0.466   3.183
 1311WAT      O 4174   1.387   7.624   2.928
 1311WAT     H1 4175   1.409   7.535   2.887
 1311WAT     H2 4176   1.397   7.617   3.028
 1312WAT      O 4177   6.497   3.863   8.193
 1312WAT     H1 4178   6.556   3.783   8.196
 1312WAT     H2 4179   6.492   3.897   8.099
 1313WAT      O 4180   7.202   3.274   4.667
 1313WAT     H1 4181   7.279   3.211   4.655
 1313WAT     H2 4182   7.219   3.357   4.614
 1314WAT      O 4183   5.953   3.194   6.007
 1314WAT     H1 4184   6.039   3.242   6.022
 1314WAT     H2 4185   5.946   3.117   6.070
 1315WAT      O 4186   9.062   2.044   7.538
 1315WAT     H1 4187   8.969   2.079   7.541
 1315WAT     H2 4188   9.126   2.121   7.530
 1316WAT      O 4189   5.856   1.530   3.002
 1316WAT     H1 4190   5.824   1.482   3.084
 1316WAT     H2 4191   5.809   1.618   2.994
 1317WAT      O 4192   8.929   7.947   8.349
 1317WAT     H1 4193   9.013   7.987   8.312
 1317WAT     H2 4194   8.929   7.959   8.448
 1318WAT      O 4195   7.118   4.549   0.548
 1318WAT     H1 4196   7.098   4.542   0.645
 1318WAT     H2 4197   7.033   4.536   0.496
 1319WAT      O 4198   5.475   5.949   4.933
 1319WAT     H1 4199   5.538   5.964   4.857
 1319WAT     H2 4200   5.517   5.887   4.999
 1320WAT      O 4201   7.968   5.726   6.206
 1320WAT     H1 4202   8.054   5.770   6.230
 1320WAT     H2 4203   7.910   5.791   6.157
 1321WAT      O 4204   3.971   7.561   0.461
 1321WAT     H1 4205   3.924   7.513   0.387
 1321WAT     H2 4206   4.051   7.508   0.490
 1322WAT      O 4207   1.803   9.419   1.801
 1322WAT     H1 4208   1.739   9.492   1.776
 1322WAT     H2 4209   1.878   9.458   1.854
 1323WAT      O 4210   1.546   1.704   6.336
 1323WAT     H1 4211   1.580   1.788   6.378
 1323WAT     H2 4212   1.560   1.628   6.399
 1324WAT      O 4213   0.946   7.884   7.489
 1324WAT     H1 4214   0.900   7.852   7.572
 1324WAT     H2 4215   1.025   7.826   7.470
 1325WAT      O 4216   7.973   4.785   3.712
 1325WAT     H1 4217   7.931   4.694   3.718
 1325WAT     H2 4218   8.061   4.785   3.760
 1326WAT      O 4219   3.992   5.746   9.438
 1326WAT     H1 4220   4.048   5.674   9.479
 1326WAT     H2 4221   4.043   5.790   9.364
 1327WAT      O 4222   8.209   7.269   1.934
 1327WAT     H1 4223   8.133   7.250   1.996
 1327WAT     H2 4224   8.175   7.274   1.840
 1328WAT      O 4225   8.499   1.652   1.896
 1328WAT     H1 4226   8.543   1.616   1.978
 1328WAT     H2 4227   8.463   1.743   1.914
 1329WAT      O 4228   6.788   9.776   4.460
 1329WAT     H1 4229   6.857   9.732   4.519
 1329WAT     H2 4230   6.819   9.867   4.435
 1330WAT      O 4231   8.685   0.567   4.849
 1330WAT     H1 4232   8.640   0.598   4.933
 1330WAT     H2 4233   8.775   0.530   4.871
 1331WAT      O 4234   8.423   6.337   8.645
 1331WAT     H1 4235   8.522   6.341   8.658
 1331WAT     H2 4236   8.378   6.360   8.731
 1332WAT      O 4237   1.645   7.551   0.535
 1332WAT     H1 4238   1.601   7.580   0.620
 1332WAT     H2 4239   1.638   7.623   0.467
 1333WAT      O 4240   1.730   3.398   8.587
 1333WAT     H1 4241   1.705   3.333   8.660
 1333WAT     H2 4242   1.653   3.461   8.571
 1334WAT      O 4243   9.813   6.213   2.570
 1334WAT     H1 4244   9.860   6.159   2.500
 1334WAT     H2 4245   9.869   6.216   2.653
 1335WAT      O 4246   0.406   5.622   7.414
 1335WAT     H1 4247   0.427   5.676   7.332
 1335WAT     H2 4248   0.400   5.682   7.493
 1336WAT      O 4249   9.036   2.718   4.784
 1336WAT     H1 4250   9.115   2.779   4.776
 1336WAT     H2 4251   8.995   2.704   4.693
 1337WAT      O 4252   7.053   9.380   1.289
 1337WAT     H1 4253   6.981   9.359   1.222
 1337WAT     H2 4254   7.083   9.475   1.277
 1338WAT      O 4255   0.711   0.782   8.707
 1338WAT     H1 4256   0.615   0.757   8.721
 1338WAT     H2 4257   0.731   0.866   8.756
 1339WAT      O 4258   1.149   3.231   6.153
 1339WAT     H1 4259   1.055   3.229   6.121
 1339WAT     H2 4260   1.152   3.201   6.249
 1340WAT      O 4261   9.695   6.850   9.874
 1340WAT     H1 4262   9.680   6.793   9.954
 1340WAT     H2 4263   9.777   6.906   9.887
 1341WAT      O 4264   2.527   9.172   9.562
 1341WAT     H1 4265   2.599   9.164   9.631
 1341WAT     H2 4266   2.557   9.129   9.477
 1342WAT      O 4267   8.532   4.896   9.443
 1342WAT     H1 4268   8.554   4.799   9.429
 1342WAT     H2 4269   8.541   4.919   9.540
 1343WAT      O 4270   1.328   8.197   1.491
 1343WAT     H1 4271   1.393   8.245   1.431
 1343WAT     H2 4272   1.285   8.263   1.553
 1344WAT      O 4273   3.105   4.239   6.218
 1344WAT     H1 4274   3.063   4.168   6.161
 1344WAT     H2 4275   3.204   4.226   6.218
 1345WAT      O 4276   8.843   0.067   7.862
 1345WAT     H1 4277   8.876  -0.020   7.896
 1345WAT     H2 4278   8.783   0.052   7.783
 1346WAT      O 4279   2.764   8.259   8.782
 1346WAT     H1 4280   2.805   8.169   8.771
 1346WAT     H2 4281   2.801   8.322   8.714
 1347WAT      O 4282   3.903   4.429   9.337
 1347WAT     H1 4283   3.965   4.367   9.290
 1347WAT     H2 4284   3.956   4.498   9.387
 1348WAT      O 4285   3.004   0.535   9.442
 1348WAT     H1 4286   3.093   0.495   9.421
 1348WAT     H2 4287   2.944   0.466   9.480
 1349WAT      O 4288   1.625   6.174   2.315
 1349WAT     H1 4289   1.545   6.189   2.373
 1349WAT     H2 4290   1.596   6.151   2.223
 1350WAT      O 4291   5.485   4.765   9.461
 1350WAT     H1 4292   5.507   4.668   9.451
 1350WAT     H2 4293   5.548   4.819   9.405
 1351WAT      O 4294   7.104   4.739   3.583
 1351WAT     H1 4295   7.135   4.688   3.502
 1351WAT     H2 4296   7.129   4.835   3.573
 1352WAT      O 4297   1.072   7.016   1.145
 1352WAT     H1 4298   1.126   7.051   1.222
 1352WAT     H2 4299   1.073   7.082   1.070
 1353WAT      O 4300   0.645   2.400   9.161
 1353WAT     H1 4301   0.673   2.424   9.069
 1353WAT     H2 4302   0.571   2.460   9.191
 1354WAT      O 4303   0.506   9.420   3.594
 1354WAT     H1 4304   0.500   9.493   3.662
 1354WAT     H2 4305   0.449   9.343   3.623
 1355WAT      O 4306   6.979   8.480   7.207
 1355WAT     H1 4307   6.908   8.524   7.261
 1355WAT     H2 4308   7.059   8.462   7.264
 1356WAT      O 4309   0.015   6.700   3.567
 1356WAT     H1 4310  -0.072   6.748   3.573
 1356WAT     H2 4311   0.025   6.661   3.475
 1357WAT      O 4312   8.562   1.981   3.288
 1357WAT     H1 4313   8.522   2.064   3.327
 1357WAT     H2 4314   8.535   1.902   3.342
 1358WAT      O 4315   1.738   7.376   3.753
 1358WAT     H1 4316   1.793   7.346   3.832
 1358WAT     H2 4317   1.736   7.303   3.685
 1359WAT      O 4318   9.649   7.877   6.087
 1359WAT     H1 4319   9.704   7.890   6.170
 1359WAT     H2 4320   9.641   7.964   6.039
 1360WAT      O 4321   4.395   5.025   0.298
 1360WAT     H1 4322   4.435   5.088   0.232
 1360WAT     H2 4323   4.461   5.004   0.370
 1361WAT      O 4324   0.849   3.566   0.022
 1361WAT     H1 4325   0.769   3.598  -0.029
 1361WAT     H2 4326   0.915   3.640   0.030
 1362WAT      O 4327   0.300   1.294   8.821
 1362WAT     H1 4328   0.327   1.283   8.725
 1362WAT     H2 4329   0.208   1.258   8.834
 1363WAT      O 4330   2.113   9.058   8.643
 1363WAT     H1 4331   2.029   9.105   8.672
 1363WAT     H2 4332   2.130   8.981   8.703
 1364WAT      O 4333   4.041   1.871   0.772
 1364WAT     H1 4334   4.113   1.908   0.713
 1364WAT     H2 4335   4.065   1.778   0.798
 1365WAT      O 4336   7.926   6.464   1.464
 1365WAT     H1 4337   7.878   6.552   1.470
 1365WAT     H2 4338   7.903   6.419   1.377
 1366WAT      O 4339   2.496   4.263   6.569
 1366WAT     H1 4340   2.423   4.195   6.578
 1366WAT     H2 4341   2.574   4.236   6.625
 1367WAT      O 4342   7.454   0.321   0.925
 1367WAT     H1 4343   7.376   0.281   0.878
 1367WAT     H2 4344   7.480   0.263   1.002
 1368WAT      O 4345   8.074   1.197   4.830
 1368WAT     H1 4346   7.993   1.244   4.866
 1368WAT     H2 4347   8.047   1.109   4.792
 1369WAT      O 4348   9.753   7.109   7.840
 1369WAT     H1 4349   9.665   7.120   7.792
 1369WAT     H2 4350   9.755   7.171   7.919
 1370WAT      O 4351   1.186   8.667   8.871
 1370WAT     H1 4352   1.271   8.620   8.892
 1370WAT     H2 4353   1.119   8.601   8.836
 1371WAT      O 4354   8.101   5.184   8.771
 1371WAT     H1 4355   8.063   5.173   8.863
 1371WAT     H2 4356   8.039   5.241   8.716
 1372WAT      O 4357   6.259   3.546   5.594
 1372WAT     H1 4358   6.289   3.567   5.501
 1372WAT     H2 4359   6.218   3.627   5.635
 1373WAT      O 4360   1.378   7.430   1.859
 1373WAT     H1 4361   1.388   7.529   1.849
 1373WAT     H2 4362   1.354   7.408   1.953
 1374WAT      O 4363   2.344   0.425   6.100
 1374WAT     H1 4364   2.315   0.338   6.140
 1374WAT     H2 4365   2.361   0.412   6.002
 1375WAT      O 4366   1.884   8.361   8.993
 1375WAT     H1 4367   1.858   8.289   9.056
 1375WAT     H2 4368   1.856   8.337   8.900
 1376WAT      O 4369   3.338   4.983   5.325
 1376WAT     H1 4370   3.436   4.995   5.306
 1376WAT     H2 4371   3.324   4.894   5.369
 1377WAT      O 4372   4.039   8.567   1.898
 1377WAT     H1 4373   4.042   8.559   1.799
 1377WAT     H2 4374   4.104   8.638   1.928
 1378WAT      O 4375   9.606   2.486   7.752
 1378WAT     H1 4376   9.646   2.573   7.722
 1378WAT     H2 4377   9.546   2.502   7.830
 1379WAT      O 4378   1.019   5.655   8.693
 1379WAT     H1 4379   1.014   5.748   8.657
 1379WAT     H2 4380   1.047   5.592   8.620
 1380WAT      O 4381   6.747   2.349   0.265
 1380WAT     H1 4382   6.791   2.264   0.236
 1380WAT     H2 4383   6.678   2.329   0.334
 1381WAT      O 4384   1.219   3.539   7.146
 1381WAT     H1 4385   1.286   3.570   7.078
 1381WAT     H2 4386   1.127   3.558   7.112
 1382WAT      O 4387   8.689   7.511   9.255
 1382WAT     H1 4388   8.667   7.590   9.198
 1382WAT     H2 4389   8.629   7.510   9.335
 1383WAT      O 4390   2.436   9.597   5.571
 1383WAT     H1 4391   2.403   9.556   5.657
 1383WAT     H2 4392   2.379   9.676   5.548
 1384WAT      O 4393   7.404   7.867   2.520
 1384WAT     H1 4394   7.321   7.886   2.573
 1384WAT     H2 4395   7.480   7.920   2.557
 1385WAT      O 4396   3.313   9.652   6.671
 1385WAT     H1 4397   3.381   9.578   6.670
 1385WAT     H2 4398   3.329   9.713   6.594
 1386WAT      O 4399   5.599   8.096   6.676
 1386WAT     H1 4400   5.677   8.077   6.616
 1386WAT     H2 4401   5.532   8.151   6.626
 1387WAT      O 4402   7.095   0.756   2.973
 1387WAT     H1 4403   7.027   0.695   2.933
 1387WAT     H2 4404   7.048   0.830   3.021
 1388WAT      O 4405   1.384   3.298   1.053
 1388WAT     H1 4406   1.353   3.387   1.085
 1388WAT     H2 4407   1.320   3.264   0.984
 1389WAT      O 4408   6.968   6.040   1.071
 1389WAT     H1 4409   6.878   6.019   1.034
 1389WAT     H2 4410   6.959   6.112   1.140
 1390WAT      O 4411   8.288   4.926   2.207
 1390WAT     H1 4412   8.297   5.007   2.149
 1390WAT     H2 4413   8.366   4.865   2.192
 1391WAT      O 4414   6.072   1.194   2.259
 1391WAT     H1 4415   6.074   1.275   2.201
 1391WAT     H2 4416   6.143   1.130   2.229
 1392WAT      O 4417   8.934   9.261   4.015
 1392WAT     H1 4418   8.995   9.203   3.962
 1392WAT     H2 4419   8.844   9.217   4.022
 1393WAT      O 4420   1.099   4.854   7.711
 1393WAT     H1 4421   1.106   4.892   7.619
 1393WAT     H2 4422   1.015   4.800   7.720
 1394WAT      O 4423   5.380   4.189   2.795
 1394WAT     H1 4424   5.394   4.145   2.706
 1394WAT     H2 4425   5.468   4.205   2.839
 1395WAT      O 4426   0.770   0.241   0.358
 1395WAT     H1 4427   0.815   0.182   0.291
 1395WAT     H2 4428   0.820   0.328   0.365
 1396WAT      O 4429   5.415   3.210   6.768
 1396WAT     H1 4430   5.414   3.191   6.670
 1396WAT     H2 4431   5.506   3.239   6.795
 1397WAT      O 4432   7.117   6.213   5.265
 1397WAT     H1 4433   7.049   6.268   5.217
 1397WAT     H2 4434   7.081   6.121   5.281
 1398WAT      O 4435   7.127   6.295   8.579
 1398WAT     H1 4436   7.052   6.230   8.588
 1398WAT     H2 4437   7.213   6.250   8.601
 1399WAT      O 4438   4.994   2.978   8.904
 1399WAT     H1 4439   4.913   2.971   8.962
 1399WAT     H2 4440   5.075   2.953   8.958
 1400WAT      O 4441   8.569   1.428   8.450
 1400WAT     H1 4442   8.609   1.488   8.519
 1400WAT     H2 4443   8.513   1.483   8.387
 1401WAT      O 4444   2.799   7.691   9.345
 1401WAT     H1 4445   2.867   7.636   9.296
 1401WAT     H2 4446   2.759   7.758   9.283
 1402WAT      O 4447   7.663   2.338   5.080
 1402WAT     H1 4448   7.629   2.430   5.101
 1402WAT     H2 4449   7.599   2.292   5.019
 1403WAT      O 4450   7.548   1.851   4.996
 1403WAT     H1 4451   7.476   1.915   4.971
 1403WAT     H2 4452   7.532   1.763   4.951
 1404WAT      O 4453   5.623   7.390   7.357
 1404WAT     H1 4454   5.614   7.291   7.341
 1404WAT     H2 4455   5.563   7.439   7.295
 1405WAT      O 4456   8.475   8.524   6.207
 1405WAT     H1 4457   8.499   8.578   6.127
 1405WAT     H2 4458   8.379   8.538   6.230
 1406WAT      O 4459   3.210   8.877   1.788
 1406WAT     H1 4460   3.247   8.801   1.841
 1406WAT     H2 4461   3.140   8.844   1.725
 1407WAT      O 4462   2.325   6.733   8.118
 1407WAT     H1 4463   2.321   6.652   8.059
 1407WAT     H2 4464   2.264   6.720   8.196
 1408WAT      O 4465   4.529   2.468   5.919
 1408WAT     H1 4466   4.469   2.524   5.861
 1408WAT     H2 4467   4.545   2.380   5.874
 1409WAT      O 4468   1.784   6.469   2.496
 1409WAT     H1 4469   1.696   6.423   2.496
 1409WAT     H2 4470   1.829   6.456   2.584
 1410WAT      O 4471   2.379   3.723   4.677
 1410WAT     H1 4472   2.292   3.738   4.630
 1410WAT     H2 4473   2.372   3.642   4.735
 1411WAT      O 4474   9.391   9.333   2.223
 1411WAT     H1 4475   9.302   9.309   2.261
 1411WAT     H2 4476   9.433   9.253   2.180
 1412WAT      O 4477   6.817   4.146   6.583
 1412WAT     H1 4478   6.864   4.095   6.511
 1412WAT     H2 4479   6.731   4.099   6.605
 1413WAT      O 4480   2.927   1.231   7.858
 1413WAT     H1 4481   2.847   1.237   7.917
 1413WAT     H2 4482   2.989   1.161   7.893
 1414WAT      O 4483   0.557   7.068   6.741
 1414WAT     H1 4484   0.631   7.001   6.740
 1414WAT     H2 4485   0.515   7.070   6.832
 1415WAT      O 4486   4.516   8.384   9.381
 1415WAT     H1 4487   4.602   8.428   9.407
 1415WAT     H2 4488   4.495   8.310   9.445
 1416WAT      O 4489   5.542   0.202   0.151
 1416WAT     H1 4490   5.509   0.296   0.146
 1416WAT     H2 4491   5.631   0.195   0.105
 1417WAT      O 4492   1.222   2.792   3.853
 1417WAT     H1 4493   1.256   2.876   3.895
 1417WAT     H2 4494   1.177   2.814   3.766
 1418WAT      O 4495   9.226   7.800   6.666
 1418WAT     H1 4496   9.242   7.787   6.568
 1418WAT     H2 4497   9.303   7.851   6.705
 1419WAT      O 4498   4.711   3.114   1.469
 1419WAT     H1 4499   4.703   3.021   1.434
 1419WAT     H2 4500   4.702   3.112   1.569
 1420WAT      O 4501   0.396   6.839   2.120
 1420WAT     H1 4502   0.468   6.791   2.169
 1420WAT     H2 4503   0.436   6.894   2.047
 1421WAT      O 4504   4.524   0.365   6.893
 1421WAT     H1 4505   4.593   0.436   6.878
 1421WAT     H2 4506   4.561   0.294   6.953
 1422WAT      O 4507   2.328   4.149   1.943
 1422WAT     H1 4508   2.228   4.149   1.946
 1422WAT     H2 4509   2.360   4.071   1.889
 1423WAT      O 4510   5.338   2.005   7.435
 1423WAT     H1 4511   5.283   2.015   7.518
 1423WAT     H2 4512   5.348   2.094   7.391
 1424WAT      O 4513   1.786   4.965   5.372
 1424WAT     H1 4514   1.712   4.905   5.405
 1424WAT     H2 4515   1.768   4.990   5.277
 1425WAT      O 4516   8.639   6.211   1.914
 1425WAT     H1 4517   8.627   6.117   1.945
 1425WAT     H2 4518   8.717   6.252   1.962
 1426WAT      O 4519   0.606   8.092   8.408
 1426WAT     H1 4520   0.520   8.071   8.453
 1426WAT     H2 4521   0.618   8.191   8.401
 1427WAT      O 4522   3.550   5.888   4.094
 1427WAT     H1 4523   3.492   5.958   4.051
 1427WAT     H2 4524   3.638   5.884   4.047
 1428WAT      O 4525   2.543   4.949   0.862
 1428WAT     H1 4526   2.564   4.869   0.918
 1428WAT     H2 4527   2.475   4.925   0.793
 1429WAT      O 4528   0.542   4.273   4.110
 1429WAT     H1 4529   0.606   4.212   4.063
 1429WAT     H2 4530   0.497   4.223   4.184
 1430WAT      O 4531   8.132   1.529   6.149
 1430WAT     H1 4532   8.201   1.582   6.100
 1430WAT     H2 4533   8.177   1.465   6.211
 1431WAT      O 4534   8.202   8.935   4.793
 1431WAT     H1 4535   8.140   8.907   4.719
 1431WAT     H2 4536   8.294   8.902   4.773
 1432WAT      O 4537   3.055   2.514   8.849
 1432WAT     H1 4538   3.139   2.467   8.876
 1432WAT     H2 4539   3.077   2.591   8.791
 1433WAT      O 4540   7.000   6.592   8.946
 1433WAT     H1 4541   7.008   6.668   9.010
 1433WAT     H2 4542   6.964   6.512   8.995
 1434WAT      O 4543   7.423   2.619   8.588
 1434WAT     H1 4544   7.487   2.542   8.582
 1434WAT     H2 4545   7.424   2.671   8.503
 1435WAT      O 4546   2.378   2.306   0.395
 1435WAT     H1 4547   2.299   2.368   0.392
 1435WAT     H2 4548   2.436   2.322   0.315
 1436WAT      O 4549   6.039   0.308   8.385
 1436WAT     H1 4550   5.985   0.389   8.361
 1436WAT     H2 4551   6.085   0.324   8.472
 1437WAT      O 4552   5.374   2.937   1.341
 1437WAT     H1 4553   5.344   2.896   1.255
 1437WAT     H2 4554   5.309   2.914   1.414
 1438WAT      O 4555   5.582   0.801   5.984
 1438WAT     H1 4556   5.635   0.717   5.988
 1438WAT     H2 4557   5.530   0.812   6.069
 1439WAT      O 4558   7.420   6.418   8.618
 1439WAT     H1 4559   7.363   6.423   8.701
 1439WAT     H2 4560   7.373   6.465   8.543
 1440WAT      O 4561   1.501   6.169   2.075
 1440WAT     H1 4562   1.407   6.135   2.068
 1440WAT     H2 4563   1.502   6.267   2.052
 1441WAT      O 4564   4.720   9.713   9.334
 1441WAT     H1 4565   4.726   9.735   9.236
 1441WAT     H2 4566   4.809   9.683   9.367
 1442WAT      O 4567   7.618   4.409   7.684
 1442WAT     H1 4568   7.631   4.363   7.596
 1442WAT     H2 4569   7.677   4.368   7.753
 1443WAT      O 4570   6.663   3.287   9.042
 1443WAT     H1 4571   6.726   3.228   8.991
 1443WAT     H2 4572   6.710   3.370   9.071
 1444WAT      O 4573   8.303   5.472   5.591
 1444WAT     H1 4574   8.320   5.438   5.683
 1444WAT     H2 4575   8.204   5.472   5.573
 1445WAT      O 4576   7.340   1.924   2.283
 1445WAT     H1 4577   7.313   1.890   2.373
 1445WAT     H2 4578   7.269   1.985   2.249
 1446WAT      O 4579   7.623   9.712   6.186
 1446WAT     H1 4580   7.558   9.776   6.227
 1446WAT     H2 4581   7.572   9.641   6.136
 1447WAT      O 4582   0.178   7.214   2.282
 1447WAT     H1 4583   0.211   7.125   2.313
 1447WAT     H2 4584   0.122   7.202   2.200
 1448WAT      O 4585   9.691   3.415   1.164
 1448WAT     H1 4586   9.660   3.470   1.242
 1448WAT     H2 4587   9.706   3.321   1.194
 1449WAT      O 4588   1.040   6.951   6.656
 1449WAT     H1 4589   1.059   6.903   6.570
 1449WAT     H2 4590   1.097   6.913   6.728
 1450WAT      O 4591   5.710   7.459   3.054
 1450WAT     H1 4592   5.760   7.376   3.077
 1450WAT     H2 4593   5.629   7.435   2.999
 1451WAT      O 4594   6.452   2.413   3.945
 1451WAT     H1 4595   6.395   2.333   3.931
 1451WAT     H2 4596   6.537   2.386   3.991
 1452WAT      O 4597   4.604   5.975   7.306
 1452WAT     H1 4598   4.529   6.015   7.359
 1452WAT     H2 4599   4.653   6.047   7.258
 1453WAT      O 4600   9.583   2.146   5.994
 1453WAT     H1 4601   9.607   2.051   6.015
 1453WAT     H2 4602   9.593   2.162   5.896
 1454WAT      O 4603   1.293   3.264   9.780
 1454WAT     H1 4604   1.226   3.211   9.832
 1454WAT     H2 4605   1.309   3.351   9.826
 1455WAT      O 4606   5.410   0.345   7.486
 1455WAT     H1 4607   5.449   0.311   7.572
 1455WAT     H2 4608   5.375   0.268   7.433
 1456WAT      O 4609   0.725   4.703   4.204
 1456WAT     H1 4610   0.823   4.693   4.225
 1456WAT     H2 4611   0.699   4.637   4.134
 1457WAT      O 4612   0.508   4.427   0.685
 1457WAT     H1 4613   0.481   4.413   0.590
 1457WAT     H2 4614   0.426   4.440   0.741
 1458WAT      O 4615   0.958   8.505   2.183
 1458WAT     H1 4616   0.957   8.603   2.202
 1458WAT     H2 4617   1.047   8.467   2.205
 1459WAT      O 4618   3.902   2.197   9.620
 1459WAT     H1 4619   3.904   2.192   9.720
 1459WAT     H2 4620   3.991   2.169   9.584
 1460WAT      O 4621   3.353   2.271   4.257
 1460WAT     H1 4622   3.327   2.282   4.161
 1460WAT     H2 4623   3.400   2.183   4.269
 1461WAT      O 4624   6.989   6.991   0.064
 1461WAT     H1 4625   7.072   6.941   0.038
 1461WAT     H2 4626   7.011   7.056   0.137
 1462WAT      O 4627   1.435   8.045   5.894
 1462WAT     H1 4628   1.500   8.077   5.826
 1462WAT     H2 4629   1.475   8.053   5.985
 1463WAT      O 4630   3.886   2.549   2.386
 1463WAT     H1 4631   3.804   2.604   2.371
 1463WAT     H2 4632   3.876   2.461   2.339
 1464WAT      O 4633   3.873   3.802   0.864
 1464WAT     H1 4634   3.885   3.797   0.765
 1464WAT     H2 4635   3.879   3.897   0.894
 1465WAT      O 4636   4.289   3.584   6.106
 1465WAT     H1 4637   4.306   3.617   6.013
 1465WAT     H2 4638   4.243   3.495   6.103
 1466WAT      O 4639   4.910   3.442   0.998
 1466WAT     H1 4640   4.993   3.437   1.053
 1466WAT     H2 4641   4.831   3.456   1.057
 1467WAT      O 4642   9.258   8.321   2.568
 1467WAT     H1 4643   9.305   8.409   2.563
 1467WAT     H2 4644   9.235   8.290   2.476
 1468WAT      O 4645   7.675   6.842   7.734
 1468WAT     H1 4646   7.612   6.765   7.723
 1468WAT     H2 4647   7.768   6.813   7.711
 1469WAT      O 4648   9.570   4.083   7.536
 1469WAT     H1 4649   9.471   4.071   7.529
 1469WAT     H2 4650   9.593   4.178   7.515
 1470WAT      O 4651   0.618   5.367   9.823
 1470WAT     H1 4652   0.537   5.360   9.881
 1470WAT     H2 4653   0.667   5.280   9.823
 1471WAT      O 4654   0.643   2.538   7.134
 1471WAT     H1 4655   0.588   2.609   7.179
 1471WAT     H2 4656   0.582   2.472   7.089
 1472WAT      O 4657   2.800   1.663   6.624
 1472WAT     H1 4658   2.874   1.691   6.684
 1472WAT     H2 4659   2.809   1.566   6.602
 1473WAT      O 4660   5.317   6.218   3.617
 1473WAT     H1 4661   5.251   6.267   3.675
 1473WAT     H2 4662   5.311   6.120   3.635
 1474WAT      O 4663   3.523   3.479   0.637
 1474WAT     H1 4664   3.573   3.433   0.710
 1474WAT     H2 4665   3.564   3.458   0.549
 1475WAT      O 4666   8.404   4.323   1.159
 1475WAT     H1 4667   8.491   4.331   1.109
 1475WAT     H2 4668   8.337   4.385   1.118
 1476WAT      O 4669   1.694   5.361   2.162
 1476WAT     H1 4670   1.616   5.421   2.143
 1476WAT     H2 4671   1.771   5.416   2.192
 1477WAT      O 4672   7.584   1.837   0.478
 1477WAT     H1 4673   7.510   1.797   0.425
 1477WAT     H2 4674   7.654   1.768   0.496
 1478WAT      O 4675   8.940   7.024   3.850
 1478WAT     H1 4676   9.013   6.957   3.842
 1478WAT     H2 4677   8.971   7.102   3.904
 1479WAT      O 4678   9.639   2.774   2.771
 1479WAT     H1 4679   9.706   2.848   2.766
 1479WAT     H2 4680   9.604   2.753   2.680
 1480WAT      O 4681   2.461   6.227   6.156
 1480WAT     H1 4682   2.552   6.238   6.117
 1480WAT     H2 4683   2.445   6.297   6.225
 1481WAT      O 4684   0.497   8.526   3.138
 1481WAT     H1 4685   0.494   8.535   3.038
 1481WAT     H2 4686   0.452   8.441   3.165
 1482WAT      O 4687   9.385   5.015   7.509
 1482WAT     H1 4688   9.364   5.110   7.534
 1482WAT     H2 4689   9.480   5.008   7.481
 1483WAT      O 4690   7.379   8.291   9.813
 1483WAT     H1 4691   7.391   8.321   9.719
 1483WAT     H2 4692   7.368   8.192   9.816
 1484WAT      O 4693   2.213   5.086   5.814
 1484WAT     H1 4694   2.183   5.097   5.909
 1484WAT     H2 4695   2.134   5.074   5.755
 1485WAT      O 4696   3.975   4.037   9.195
 1485WAT     H1 4697   4.006   4.128   9.168
 1485WAT     H2 4698   3.992   4.023   9.292
 1486WAT      O 4699   7.172   2.965   0.043
 1486WAT     H1 4700   7.148   3.045  -0.013
 1486WAT     H2 4701   7.093   2.938   0.098
 1487WAT      O 4702   3.830   6.206   4.689
 1487WAT     H1 4703   3.887   6.182   4.768
 1487WAT     H2 4704   3.841   6.137   4.618
 1488WAT      O 4705   0.340   6.961   9.722
 1488WAT     H1 4706   0.289   6.919   9.797
 1488WAT     H2 4707   0.300   6.933   9.635
 1489WAT      O 4708   3.711   6.527   3.991
 1489WAT     H1 4709   3.798   6.480   3.978
 1489WAT     H2 4710   3.706   6.604   3.928
 1490WAT      O 4711   5.246   9.160   3.827
 1490WAT     H1 4712   5.278   9.067   3.845
 1490WAT     H2 4713   5.165   9.179   3.883
 1491WAT      O 4714   1.402   2.009   8.959
 1491WAT     H1 4715   1.342   2.088   8.971
 1491WAT     H2 4716   1.483   2.036   8.906
 1492WAT      O 4717   2.522   4.354   5.933
 1492WAT     H1 4718   2.481   4.421   5.995
 1492WAT     H2 4719   2.619   4.375   5.920
 1493WAT      O 4720   7.370   3.551   5.812
 1493WAT     H1 4721   7.284   3.592   5.781
 1493WAT     H2 4722   7.445   3.615   5.795
 1494WAT      O 4723   7.541   5.384   7.379
 1494WAT     H1 4724   7.501   5.467   7.418
 1494WAT     H2 4725   7.508   5.373   7.285
 1495WAT      O 4726   7.267   9.706   1.081
 1495WAT     H1 4727   7.362   9.704   1.114
 1495WAT     H2 4728   7.260   9.652   0.997
 1496WAT      O 4729   4.525   4.885   3.085
 1496WAT     H1 4730   4.486   4.855   3.172
 1496WAT     H2 4731   4.550   4.805   3.030
 1497WAT      O 4732   5.781   3.955   6.713
 1497WAT     H1 4733   5.771   4.015   6.792
 1497WAT     H2 4734   5.706   3.889   6.711
 1498WAT      O 4735   8.273   6.294   2.447
 1498WAT     H1 4736   8.215   6.354   2.501
 1498WAT     H2 4737   8.239   6.292   2.352
 1499WAT      O 4738   3.518   0.402   1.599
 1499WAT     H1 4739   3.617   0.391   1.606
 1499WAT     H2 4740   3.485   0.455   1.678
 1500WAT      O 4741   9.166   3.665   3.445
 1500WAT     H1 4742   9.144   3.639   3.539
 1500WAT     H2 4743   9.147   3.762   3.432
 1501WAT      O 4744   5.951   9.499   1.178
 1501WAT     H1 4745   5.950   9.402   1.153
 1501WAT     H2 4746   5.955   9.555   1.095
 1502WAT      O 4747   3.408   6.827   5.961
 1502WAT     H1 4748   3.415   6.885   6.042
 1502WAT     H2 4749   3.459   6.743   5.975
 1503WAT      O 4750   6.342   5.449   5.546
 1503WAT     H1 4751   6.295   5.528   5.585
 1503WAT     H2 4752   6.294   5.366   5.572
 1504WAT      O 4753   1.258   5.227   6.575
 1504WAT     H1 4754   1.345   5.233   6.526
 1504WAT     H2 4755   1.214   5.140   6.554
 1505WAT      O 4756   4.283   2.084   6.990
 1505WAT     H1 4757   4.205   2.137   6.957
 1505WAT     H2 4758   4.302   2.108   7.085
 1506WAT      O 4759   4.364   2.484   1.553
 1506WAT     H1 4760   4.269   2.474   1.523
 1506WAT     H2 4761   4.403   2.566   1.510
 1507WAT      O 4762   9.658   1.715   9.461
 1507WAT     H1 4763   9.706   1.686   9.378
 1507WAT     H2 4764   9.703   1.797   9.498
 1508WAT      O 4765   0.202   1.333   3.833
 1508WAT     H1 4766   0.159   1.338   3.743
 1508WAT     H2 4767   0.219   1.426   3.867
 1509WAT      O 4768   5.242   8.015   3.398
 1509WAT     H1 4769   5.290   7.979   3.318
 1509WAT     H2 4770   5.309   8.041   3.468
 1510WAT      O 4771   8.847   4.435   2.582
 1510WAT     H1 4772   8.828   4.410   2.677
 1510WAT     H2 4773   8.786   4.384   2.521
 1511WAT      O 4774   0.113   8.141   1.685
 1511WAT     H1 4775   0.146   8.233   1.665
 1511WAT     H2 4776   0.137   8.080   1.609
 1512WAT      O 4777   0.612   2.094   2.414
 1512WAT     H1 4778   0.631   2.184   2.452
 1512WAT     H2 4779   0.629   2.095   2.316
 1513WAT      O 4780   0.732   1.128   4.779
 1513WAT     H1 4781   0.815   1.072   4.769
 1513WAT     H2 4782   0.684   1.131   4.692
 1514WAT      O 4783   2.711   5.815   0.287
 1514WAT     H1 4784   2.777   5.780   0.221
 1514WAT     H2 4785   2.625   5.764   0.279
 1515WAT      O 4786   6.073   1.382   3.416
 1515WAT     H1 4787   6.088   1.307   3.352
 1515WAT     H2 4788   6.138   1.375   3.492
 1516WAT      O 4789   4.352   6.297   8.135
 1516WAT     H1 4790   4.371   6.394   8.150
 1516WAT     H2 4791   4.437   6.249   8.116
 1517WAT      O 4792   1.522   1.604   9.163
 1517WAT     H1 4793   1.552   1.593   9.257
 1517WAT     H2 4794   1.526   1.516   9.115
 1518WAT      O 4795   6.798   6.767   6.594
 1518WAT     H1 4796   6.763   6.700   6.659
 1518WAT     H2 4797   6.728   6.789   6.526
 1519WAT      O 4798   6.520   5.552   2.488
 1519WAT     H1 4799   6.450   5.600   2.541
 1519WAT     H2 4800   6.525   5.591   2.397
 1520WAT      O 4801   9.328   0.785   2.303
 1520WAT     H1 4802   9.366   0.749   2.388
 1520WAT     H2 4803   9.234   0.753   2.292
 1521WAT      O 4804   8.754   1.392   7.080
 1521WAT     H1 4805   8.853   1.399   7.063
 1521WAT     H2 4806   8.726   1.463   7.143
 1522WAT      O 4807   1.141   6.729   7.757
 1522WAT     H1 4808   1.058   6.675   7.775
 1522WAT     H2 4809   1.160   6.788   7.835
 1523WAT      O 4810   9.801   0.016   8.915
 1523WAT     H1 4811   9.783   0.105   8.874
 1523WAT     H2 4812   9.848  -0.043   8.849
 1524WAT      O 4813   0.612   5.990   9.723
 1524WAT     H1 4814   0.603   5.985   9.823
 1524WAT     H2 4815   0.636   5.900   9.687
 1525WAT      O 4816   9.194   8.852   5.900
 1525WAT     H1 4817   9.098   8.846   5.873
 1525WAT     H2 4818   9.244   8.904   5.831
 1526WAT      O 4819   9.761   9.466   5.114
 1526WAT     H1 4820   9.858   9.490   5.107
 1526WAT     H2 4821   9.721   9.466   5.022
 1527WAT      O 4822   2.774   6.314   6.735
 1527WAT     H1 4823   2.852   6.264   6.773
 1527WAT     H2 4824   2.760   6.287   6.640
 1528WAT      O 4825   8.720   0.931   9.101
 1528WAT     H1 4826   8.745   0.872   9.024
 1528WAT     H2 4827   8.663   1.006   9.068
 1529WAT      O 4828   4.619   9.284   5.371
 1529WAT     H1 4829   4.626   9.221   5.448
 1529WAT     H2 4830   4.617   9.378   5.405
 1530WAT      O 4831   6.897   5.091   9.378
 1530WAT     H1 4832   6.879   5.186   9.404
 1530WAT     H2 4833   6.876   5.078   9.281
 1531WAT      O 4834   7.215   0.116   6.340
 1531WAT     H1 4835   7.246   0.021   6.351
 1531WAT     H2 4836   7.251   0.153   6.255
 1532WAT      O 4837   5.754   0.546   0.792
 1532WAT     H1 4838   5.752   0.456   0.747
 1532WAT     H2 4839   5.846   0.584   0.785
 1533WAT      O 4840   2.578   2.099   0.244
 1533WAT     H1 4841   2.552   2.195   0.240
 1533WAT     H2 4842   2.616   2.079   0.334
 1534WAT      O 4843   6.624   5.668   3.376
 1534WAT     H1 4844   6.681   5.725   3.436
 1534WAT     H2 4845   6.681   5.625   3.306
 1535WAT      O 4846   0.257   4.946   1.190
 1535WAT     H1 4847   0.346   4.992   1.189
 1535WAT     H2 4848   0.187   5.008   1.152
 1536WAT      O 4849   6.893   3.366   7.881
 1536WAT     H1 4850   6.858   3.398   7.793
 1536WAT     H2 4851   6.893   3.266   7.883
 1537WAT      O 4852   2.633   0.192   1.584
 1537WAT     H1 4853   2.650   0.271   1.525
 1537WAT     H2 4854   2.719   0.158   1.621
 1538WAT      O 4855   2.606   6.019   3.886
 1538WAT     H1 4856   2.703   6.027   3.863
 1538WAT     H2 4857   2.566   6.110   3.892
 1539WAT      O 4858   1.543   9.113   5.033
 1539WAT     H1 4859   1.522   9.077   4.942
 1539WAT     H2 4860   1.638   9.144   5.036
 1540WAT      O 4861   4.792   6.452   5.700
 1540WAT     H1 4862   4.829   6.369   5.657
 1540WAT     H2 4863   4.823   6.457   5.795
 1541WAT      O 4864   0.995   3.056   5.397
 1541WAT     H1 4865   1.061   3.002   5.346
 1541WAT     H2 4866   1.042   3.105   5.471
 1542WAT      O 4867   7.894   6.524   3.032
 1542WAT     H1 4868   7.913   6.468   3.113
 1542WAT     H2 4869   7.797   6.516   3.008
 1543WAT      O 4870   1.427   8.102   7.182
 1543WAT     H1 4871   1.521   8.119   7.153
 1543WAT     H2 4872   1.365   8.156   7.125
 1544WAT      O 4873   8.500   8.928   6.453
 1544WAT     H1 4874   8.553   8.975   6.383
 1544WAT     H2 4875   8.414   8.895   6.413
 1545WAT      O 4876   7.042   5.739   9.456
 1545WAT     H1 4877   7.009   5.679   9.529
 1545WAT     H2 4878   6.965   5.766   9.398
 1546WAT      O 4879   1.721   3.077   9.730
 1546WAT     H1 4880   1.743   3.002   9.668
 1546WAT     H2 4881   1.665   3.144   9.683
 1547WAT      O 4882   5.666   7.700   8.967
 1547WAT     H1 4883   5.647   7.626   9.032
 1547WAT     H2 4884   5.636   7.672   8.876
 1548WAT      O 4885   0.286   1.649   2.402
 1548WAT     H1 4886   0.338   1.710   2.342
 1548WAT     H2 4887   0.247   1.574   2.348
 1549WAT      O 4888   2.769   8.194   6.695
 1549WAT     H1 4889   2.723   8.196   6.783
 1549WAT     H2 4890   2.866   8.217   6.707
 1550WAT      O 4891   6.933   1.182   2.980
 1550WAT     H1 4892   6.837   1.199   3.002
 1550WAT     H2 4893   6.990   1.250   3.028
 1551WAT      O 4894   4.657   2.705   4.109
 1551WAT     H1 4895   4.748   2.737   4.084
 1551WAT     H2 4896   4.591   2.780   4.100
 1552WAT      O 4897   4.742   4.475   2.683
 1552WAT     H1 4898   4.807   4.548   2.703
 1552WAT     H2 4899   4.667   4.511   2.627
 1553WAT      O 4900   0.086   7.492   0.130
 1553WAT     H1 4901   0.039   7.550   0.196
 1553WAT     H2 4902   0.169   7.537   0.099
 1554WAT      O 4903   6.322   3.990   9.254
 1554WAT     H1 4904   6.233   3.964   9.216
 1554WAT     H2 4905   6.346   3.928   9.329
 1555WAT      O 4906   3.113   0.685   4.678
 1555WAT     H1 4907   3.163   0.770   4.694
 1555WAT     H2 4908   3.168   0.622   4.624
 1556WAT      O 4909   1.276   5.316   7.389
 1556WAT     H1 4910   1.292   5.241   7.324
 1556WAT     H2 4911   1.356   5.327   7.447
 1557WAT      O 4912   2.932   8.406   5.116
 1557WAT     H1 4913   3.020   8.386   5.159
 1557WAT     H2 4914   2.901   8.497   5.144
 1558WAT      O 4915   4.213   2.938   6.562
 1558WAT     H1 4916   4.148   2.865   6.540
 1558WAT     H2 4917   4.164   3.020   6.589
 1559WAT      O 4918   8.107   4.651   9.573
 1559WAT     H1 4919   8.153   4.739   9.566
 1559WAT     H2 4920   8.032   4.656   9.638
 1560WAT      O 4921   4.493   9.773   5.577
 1560WAT     H1 4922   4.553   9.851   5.556
 1560WAT     H2 4923   4.424   9.801   5.643
 1561WAT      O 4924   0.919   2.541   2.196
 1561WAT     H1 4925   0.937   2.456   2.146
 1561WAT     H2 4926   0.847   2.593   2.150
 1562WAT      O 4927   4.864   7.167   4.503
 1562WAT     H1 4928   4.922   7.087   4.513
 1562WAT     H2 4929   4.820   7.188   4.590
 1563WAT      O 4930   0.732   1.928   8.032
 1563WAT     H1 4931   0.700   1.844   7.987
 1563WAT     H2 4932   0.705   1.927   8.128
 1564WAT      O 4933   5.435   7.472   0.889
 1564WAT     H1 4934   5.343   7.472   0.849
 1564WAT     H2 4935   5.503   7.469   0.816
 1565WAT      O 4936   3.129   5.311   7.466
 1565WAT     H1 4937   3.062   5.242   7.439
 1565WAT     H2 4938   3.176   5.346   7.385
 1566WAT      O 4939   3.240   1.705   1.334
 1566WAT     H1 4940   3.248   1.607   1.318
 1566WAT     H2 4941   3.144   1.732   1.329
 1567WAT      O 4942   6.698   5.675   9.053
 1567WAT     H1 4943   6.673   5.713   8.964
 1567WAT     H2 4944   6.736   5.748   9.110
 1568WAT      O 4945   3.206   8.399   7.654
 1568WAT     H1 4946   3.241   8.312   7.690
 1568WAT     H2 4947   3.269   8.472   7.679
 1569WAT      O 4948   3.897   4.065   9.464
 1569WAT     H1 4949   3.960   4.113   9.525
 1569WAT     H2 4950   3.820   4.125   9.442
 1570WAT      O 4951   2.705   8.443   9.284
 1570WAT     H1 4952   2.651   8.525   9.302
 1570WAT     H2 4953   2.706   8.385   9.365
 1571WAT      O 4954   8.596   0.838   3.700
 1571WAT     H1 4955   8.523   0.808   3.760
 1571WAT     H2 4956   8.628   0.928   3.729
 1572WAT      O 4957   1.864   0.853   8.056
 1572WAT     H1 4958   1.820   0.924   8.001
 1572WAT     H2 4959   1.840   0.867   8.153
 1573WAT      O 4960   0.468   8.232   4.211
 1573WAT     H1 4961   0.395   8.214   4.145
 1573WAT     H2 4962   0.483   8.331   4.218
 1574WAT      O 4963   6.947   1.630   8.262
 1574WAT     H1 4964   7.032   1.577   8.272
 1574WAT     H2 4965   6.894   1.594   8.186
 1575WAT      O 4966   6.848   4.914   1.678
 1575WAT     H1 4967   6.916   4.884   1.611
 1575WAT     H2 4968   6.860   5.011   1.696
 1576WAT      O 4969   6.846   6.568   6.929
 1576WAT     H1 4970   6.888   6.659   6.934
 1576WAT     H2 4971   6.827   6.535   7.021
 1577WAT      O 4972   5.925   1.916   4.724
 1577WAT     H1 4973   5.992   1.980   4.687
 1577WAT     H2 4974   5.933   1.828   4.676
 1578WAT      O 4975   8.869   0.795   7.091
 1578WAT     H1 4976   8.872   0.708   7.139
 1578WAT     H2 4977   8.906   0.783   6.998
 1579WAT      O 4978   1.054   9.319   7.796
 1579WAT     H1 4979   1.017   9.235   7.759
 1579WAT     H2 4980   1.074   9.307   7.893
 1580WAT      O 4981   6.604   6.860   1.830
 1580WAT     H1 4982   6.687   6.858   1.886
 1580WAT     H2 4983   6.568   6.954   1.829
 1581WAT      O 4984   1.791   4.950   8.726
 1581WAT     H1 4985   1.867   4.918   8.782
 1581WAT     H2 4986   1.751   5.032   8.767
 1582WAT      O 4987   6.653   6.513   6.280
 1582WAT     H1 4988   6.749   6.538   6.294
 1582WAT     H2 4989   6.630   6.522   6.183
 1583WAT      O 4990   5.923   2.687   0.581
 1583WAT     H1 4991   5.831   2.670   0.616
 1583WAT     H2 4992   5.979   2.605   0.593
 1584WAT      O 4993   3.006   6.852   2.566
 1584WAT     H1 4994   2.989   6.938   2.615
 1584WAT     H2 4995   2.981   6.863   2.470
 1585WAT      O 4996   9.791   6.758   6.513
 1585WAT     H1 4997   9.872   6.699   6.507
 1585WAT     H2 4998   9.785   6.814   6.431
 1586WAT      O 4999   3.877   8.700   3.152
 1586WAT     H1 5000   3.967   8.669   3.123
 1586WAT     H2 5001   3.827   8.735   3.072
 1587WAT      O 5002   3.555   3.298   5.649
 1587WAT     H1 5003   3.588   3.321   5.740
 1587WAT     H2 5004   3.529   3.201   5.646
 1588WAT      O 5005   9.690   4.063   0.424
 1588WAT     H1 5006   9.621   3.994   0.446
 1588WAT     H2 5007   9.660   4.115   0.345
 1589WAT      O 5008   0.717   1.245   6.142
 1589WAT     H1 5009   0.728   1.205   6.233
 1589WAT     H2 5010   0.696   1.174   6.076
 1590WAT      O 5011   5.315   6.088   1.069
 1590WAT     H1 5012   5.327   6.116   1.164
 1590WAT     H2 5013   5.373   6.145   1.009
 1591WAT      O 5014   8.382   8.720   9.272
 1591WAT     H1 5015   8.294   8.731   9.227
 1591WAT     H2 5016   8.449   8.780   9.228
 1592WAT      O 5017   6.187   1.545   8.271
 1592WAT     H1 5018   6.182   1.602   8.354
 1592WAT     H2 5019   6.215   1.453   8.296
 1593WAT      O 5020   7.925   3.496   3.490
 1593WAT     H1 5021   7.952   3.557   3.565
 1593WAT     H2 5022   7.890   3.411   3.528
 1594WAT      O 5023   8.255   5.608   7.099
 1594WAT     H1 5024   8.305   5.693   7.085
 1594WAT     H2 5025   8.224   5.601   7.193
 1595WAT      O 5026   3.491   7.048   2.186
 1595WAT     H1 5027   3.460   7.028   2.279
 1595WAT     H2 5028   3.465   7.141   2.161
 1596WAT      O 5029   2.050   4.870   6.214
 1596WAT     H1 5030   1.957   4.873   6.251
 1596WAT     H2 5031   2.096   4.787   6.247
 1597WAT      O 5032   5.729   2.764   0.133
 1597WAT     H1 5033   5.712   2.687   0.072
 1597WAT     H2 5034   5.746   2.846   0.080
 1598WAT      O 5035   0.162   7.263   8.099
 1598WAT     H1 5036   0.177   7.233   8.194
 1598WAT     H2 5037   0.067   7.249   8.074
 1599WAT      O 5038   8.779   3.276   9.346
 1599WAT     H1 5039   8.805   3.216   9.421
 1599WAT     H2 5040   8.856   3.284   9.282
 1600WAT      O 5041   1.776   6.322   8.250
 1600WAT     H1 5042   1.764   6.274   8.336
 1600WAT     H2 5043   1.857   6.380   8.255
 1601WAT      O 5044   3.459   7.147   3.851
 1601WAT     H1 5045   3.478   7.231   3.901
 1601WAT     H2 5046   3.540   7.122   3.796
 1602WAT      O 5047   4.788   5.083   6.945
 1602WAT     H1 5048   4.754   4.990   6.955
 1602WAT     H2 5049   4.786   5.109   6.848
 1603WAT      O 5050   5.107   9.732   9.489
 1603WAT     H1 5051   5.140   9.695   9.576
 1603WAT     H2 5052   5.051   9.663   9.443
 1604WAT      O 5053   2.847   5.358   5.081
 1604WAT     H1 5054   2.899   5.275   5.099
 1604WAT     H2 5055   2.816   5.358   4.986
 1605WAT      O 5056   4.457   1.384   6.525
 1605WAT     H1 5057   4.390   1.343   6.587
 1605WAT     H2 5058   4.411   1.446   6.462
 1606WAT      O 5059   7.920   7.480   7.705
 1606WAT     H1 5060   7.903   7.382   7.720
 1606WAT     H2 5061   8.017   7.494   7.686
 1607WAT      O 5062   1.352   7.688   2.582
 1607WAT     H1 5063   1.311   7.606   2.544
 1607WAT     H2 5064   1.450   7.673   2.597
 1608WAT      O 5065   7.850   1.485   4.221
 1608WAT     H1 5066   7.938   1.437   4.216
 1608WAT     H2 5067   7.861   1.569   4.275
 1609WAT      O 5068   8.071   0.848   2.100
 1609WAT     H1 5069   8.134   0.893   2.038
 1609WAT     H2 5070   8.088   0.750   2.100
 1610WAT      O 5071   0.838   7.334   2.582
 1610WAT     H1 5072   0.812   7.257   2.524
 1610WAT     H2 5073   0.920   7.377   2.545
 1611WAT      O 5074   5.614   7.072   0.006
 1611WAT     H1 5075   5.600   6.984   0.051
 1611WAT     H2 5076   5.571   7.071  -0.084
 1612WAT      O 5077   6.877   2.055   5.533
 1612WAT     H1 5078   6.917   2.146   5.520
 1612WAT     H2 5079   6.946   1.986   5.512
 1613WAT      O 5080   5.700   1.753   8.910
 1613WAT     H1 5081   5.782   1.769   8.964
 1613WAT     H2 5082   5.647   1.838   8.903
 1614WAT      O 5083   0.416   8.367   5.533
 1614WAT     H1 5084   0.390   8.414   5.448
 1614WAT     H2 5085   0.466   8.283   5.510
 1615WAT      O 5086   5.315   7.777   6.857
 1615WAT     H1 5087   5.343   7.841   6.786
 1615WAT     H2 5088   5.307   7.686   6.819
 1616WAT      O 5089   3.571   9.658   2.830
 1616WAT     H1 5090   3.472   9.670   2.822
 1616WAT     H2 5091   3.618   9.724   2.771
 1617WAT      O 5092   9.867   0.156   1.183
 1617WAT     H1 5093   9.959   0.194   1.194
 1617WAT     H2 5094   9.800   0.221   1.218
 1618WAT      O 5095   2.369   0.622   5.182
 1618WAT     H1 5096   2.324   0.533   5.175
 1618WAT     H2 5097   2.466   0.611   5.160
 1619WAT      O 5098   3.842   5.816   3.727
 1619WAT     H1 5099   3.883   5.730   3.696
 1619WAT     H2 5100   3.904   5.892   3.706
 1620WAT      O 5101   7.611   0.068   4.445
 1620WAT     H1 5102   7.582   0.159   4.417
 1620WAT     H2 5103   7.674   0.030   4.377
 1621WAT      O 5104   5.471   5.364   8.209
 1621WAT     H1 5105   5.400   5.383   8.277
 1621WAT     H2 5106   5.441   5.291   8.148
 1622WAT      O 5107   0.190   7.399   8.702
 1622WAT     H1 5108   0.158   7.383   8.795
 1622WAT     H2 5109   0.265   7.336   8.681
 1623WAT      O 5110   9.578   0.061   8.247
 1623WAT     H1 5111   9.593   0.128   8.175
 1623WAT     H2 5112   9.507   0.093   8.309
 1624WAT      O 5113   1.365   4.273   7.688
 1624WAT     H1 5114   1.295   4.278   7.760
 1624WAT     H2 5115   1.394   4.178   7.677
 1625WAT      O 5116   5.341   8.387   3.435
 1625WAT     H1 5117   5.355   8.370   3.532
 1625WAT     H2 5118   5.354   8.485   3.416
 1626WAT      O 5119   6.901   6.198   1.290
 1626WAT     H1 5120   6.847   6.119   1.320
 1626WAT     H2 5121   6.884   6.275   1.351
 1627WAT      O 5122   3.015   0.333   0.810
 1627WAT     H1 5123   2.976   0.256   0.860
 1627WAT     H2 5124   3.106   0.308   0.777
 1628WAT      O 5125   5.352   1.442   0.139
 1628WAT     H1 5126   5.452   1.439   0.148
 1628WAT     H2 5127   5.313   1.355   0.169
 1629WAT      O 5128   2.347   0.665   5.660
 1629WAT     H1 5129   2.406   0.690   5.736
 1629WAT     H2 5130   2.334   0.566   5.658
 1630WAT      O 5131   5.518   8.623   3.505
 1630WAT     H1 5132   5.599   8.572   3.533
 1630WAT     H2 5133   5.439   8.591   3.556
 1631WAT      O 5134   3.778   0.134   5.402
 1631WAT     H1 5135   3.713   0.089   5.340
 1631WAT     H2 5136   3.845   0.067   5.434
 1632WAT      O 5137   8.084   1.294   4.157
 1632WAT     H1 5138   8.119   1.320   4.248
 1632WAT     H2 5139   8.081   1.195   4.150
 1633WAT      O 5140   7.691   4.098   9.203
 1633WAT     H1 5141   7.697   4.178   9.263
 1633WAT     H2 5142   7.719   4.016   9.253
 1634WAT      O 5143   2.473   4.147   8.826
 1634WAT     H1 5144   2.440   4.182   8.739
 1634WAT     H2 5145   2.420   4.066   8.852
 1635WAT      O 5146   3.327   5.104   1.481
 1635WAT     H1 5147   3.404   5.088   1.419
 1635WAT     H2 5148   3.307   5.202   1.484
 1636WAT      O 5149   3.036   9.218   3.675
 1636WAT     H1 5150   3.010   9.292   3.613
 1636WAT     H2 5151   3.099   9.156   3.628
 1637WAT      O 5152   6.421   9.445   2.742
 1637WAT     H1 5153   6.405   9.474   2.837
 1637WAT     H2 5154   6.425   9.525   2.683
 1638WAT      O 5155   6.710   3.139   2.390
 1638WAT     H1 5156   6.672   3.087   2.467
 1638WAT     H2 5157   6.723   3.234   2.418
 1639WAT      O 5158   5.984   7.697   0.062
 1639WAT     H1 5159   5.948   7.771   0.119
 1639WAT     H2 5160   5.932   7.613   0.080
 1640WAT      O 5161   3.735   7.333   6.517
 1640WAT     H1 5162   3.702   7.411   6.464
 1640WAT     H2 5163   3.659   7.293   6.568
 1641WAT      O 5164   7.522   3.315   7.447
 1641WAT     H1 5165   7.522   3.263   7.361
 1641WAT     H2 5166   7.516   3.412   7.427
 1642WAT      O 5167   4.399   8.661   8.955
 1642WAT     H1 5168   4.436   8.598   8.887
 1642WAT     H2 5169   4.323   8.712   8.915
 1643WAT      O 5170   6.141   1.896   3.009
 1643WAT     H1 5171   6.193   1.891   3.094
 1643WAT     H2 5172   6.136   1.806   2.967
 1644WAT      O 5173   0.331   9.488   8.281
 1644WAT     H1 5174   0.394   9.557   8.318
 1644WAT     H2 5175   0.240   9.528   8.273
 1645WAT      O 5176   8.122   7.725   6.654
 1645WAT     H1 5177   8.139   7.666   6.575
 1645WAT     H2 5178   8.208   7.763   6.687
 1646WAT      O 5179   7.373   1.337   8.657
 1646WAT     H1 5180   7.417   1.286   8.583
 1646WAT     H2 5181   7.443   1.374   8.718
 1647WAT      O 5182   1.331   9.272   5.127
 1647WAT     H1 5183   1.385   9.188   5.121
 1647WAT     H2 5184   1.308   9.304   5.036
 1648WAT      O 5185   8.632   2.748   3.095
 1648WAT     H1 5186   8.601   2.835   3.057
 1648WAT     H2 5187   8.649   2.758   3.193
 1649WAT      O 5188   5.874   7.102   0.472
 1649WAT     H1 5189   5.943   7.133   0.537
 1649WAT     H2 5190   5.909   7.023   0.421
 1650WAT      O 5191   9.347   3.624   1.709
 1650WAT     H1 5192   9.317   3.700   1.766
 1650WAT     H2 5193   9.431   3.650   1.661
 1651WAT      O 5194   7.989   0.737   0.053
 1651WAT     H1 5195   8.001   0.667   0.123
 1651WAT     H2 5196   7.895   0.771   0.056
 1652WAT      O 5197   3.056   3.895   6.414
 1652WAT     H1 5198   3.056   3.959   6.491
 1652WAT     H2 5199   3.149   3.860   6.400
 1653WAT      O 5200   6.512   2.544   0.536
 1653WAT     H1 5201   6.489   2.464   0.480
 1653WAT     H2 5202   6.471   2.626   0.495
 1654WAT      O 5203   9.230   9.206   9.104
 1654WAT     H1 5204   9.274   9.122   9.136
 1654WAT     H2 5205   9.294   9.256   9.046
 1655WAT      O 5206   3.115   2.284   3.499
 1655WAT     H1 5207   3.068   2.203   3.464
 1655WAT     H2 5208   3.089   2.299   3.594
 1656WAT      O 5209   2.026   3.515   3.773
 1656WAT     H1 5210   2.090   3.510   3.849
 1656WAT     H2 5211   2.077   3.518   3.687
 1657WAT      O 5212   4.166   5.431   2.842
 1657WAT     H1 5213   4.100   5.470   2.907
 1657WAT     H2 5214   4.229   5.371   2.890
 1658WAT      O 5215   4.284   4.268   8.301
 1658WAT     H1 5216   4.324   4.248   8.391
 1658WAT     H2 5217   4.328   4.349   8.263
 1659WAT      O 5218   6.589   5.716   2.245
 1659WAT     H1 5219   6.499   5.745   2.212
 1659WAT     H2 5220   6.652   5.794   2.242
 1660WAT      O 5221   0.318   7.035   2.850
 1660WAT     H1 5222   0.339   7.118   2.799
 1660WAT     H2 5223   0.288   7.060   2.942
 1661WAT      O 5224   3.664   5.861   2.063
 1661WAT     H1 5225   3.732   5.931   2.040
 1661WAT     H2 5226   3.710   5.773   2.075
 1662WAT      O 5227   9.394   1.172   2.827
 1662WAT     H1 5228   9.340   1.231   2.768
 1662WAT     H2 5229   9.409   1.084   2.781
 1663WAT      O 5230   6.043   2.129   5.413
 1663WAT     H1 5231   6.052   2.213   5.358
 1663WAT     H2 5232   6.086   2.144   5.502
 1664WAT      O 5233   3.129   2.231   6.591
 1664WAT     H1 5234   3.058   2.180   6.637
 1664WAT     H2 5235   3.219   2.196   6.618
 1665WAT      O 5236   3.268   7.829   2.851
 1665WAT     H1 5237   3.197   7.896   2.830
 1665WAT     H2 5238   3.249   7.785   2.939
 1666WAT      O 5239   6.905   3.754   8.186
 1666WAT     H1 5240   6.938   3.847   8.176
 1666WAT     H2 5241   6.948   3.695   8.117
 1667WAT      O 5242   8.187   0.931   3.953
 1667WAT     H1 5243   8.186   0.930   4.053
 1667WAT     H2 5244   8.250   0.861   3.920
 1668WAT      O 5245   1.636   3.274   1.208
 1668WAT     H1 5246   1.680   3.197   1.161
 1668WAT     H2 5247   1.539   3.276   1.185
 1669WAT      O 5248   7.372   0.210   6.599
 1669WAT     H1 5249   7.336   0.135   6.544
 1669WAT     H2 5250   7.356   0.193   6.696
 1670WAT      O 5251   1.989   9.011   2.714
 1670WAT     H1 5252   2.049   9.091   2.714
 1670WAT     H2 5253   2.000   8.961   2.800
 1671WAT      O 5254   6.549   9.424   7.859
 1671WAT     H1 5255   6.462   9.410   7.813
 1671WAT     H2 5256   6.535   9.473   7.945
 1672WAT      O 5257   1.125   9.346   4.691
 1672WAT     H1 5258   1.069   9.276   4.645
 1672WAT     H2 5259   1.112   9.434   4.645
 1673WAT      O 5260   7.098   1.365   6.221
 1673WAT     H1 5261   7.142   1.348   6.132
 1673WAT     H2 5262   7.001   1.341   6.215
 1674WAT      O 5263   7.803   5.347   3.316
 1674WAT     H1 5264   7.721   5.369   3.368
 1674WAT     H2 5265   7.802   5.397   3.229
 1675WAT      O 5266   9.138   8.461   8.394
 1675WAT     H1 5267   9.214   8.489   8.454
 1675WAT     H2 5268   9.051   8.478   8.440
 1676WAT      O 5269   7.199   8.553   6.280
 1676WAT     H1 5270   7.230   8.508   6.363
 1676WAT     H2 5271   7.234   8.647   6.278
 1677WAT      O 5272   1.635   1.698   3.231
 1677WAT     H1 5273   1.561   1.639   3.198
 1677WAT     H2 5274   1.640   1.693   3.330
 1678WAT      O 5275   8.193   7.382   5.448
 1678WAT     H1 5276   8.123   7.372   5.378
 1678WAT     H2 5277   8.284   7.384   5.405
 1679WAT      O 5278   4.885   2.725   4.972
 1679WAT     H1 5279   4.897   2.710   4.874
 1679WAT     H2 5280   4.794   2.695   5.000
 1680WAT      O 5281   3.337   9.425   9.272
 1680WAT     H1 5282   3.276   9.351   9.245
 1680WAT     H2 5283   3.431   9.392   9.274
 1681WAT      O 5284   3.925   0.752   2.209
 1681WAT     H1 5285   3.833   0.790   2.219
 1681WAT     H2 5286   3.993   0.824   2.224
 1682WAT      O 5287   5.512   7.180   3.387
 1682WAT     H1 5288   5.421   7.221   3.396
 1682WAT     H2 5289   5.543   7.191   3.293
 1683WAT      O 5290   5.458   5.258   1.513
 1683WAT     H1 5291   5.431   5.213   1.598
 1683WAT     H2 5292   5.500   5.191   1.451
 1684WAT      O 5293   5.788   3.768   8.863
 1684WAT     H1 5294   5.822   3.747   8.954
 1684WAT     H2 5295   5.811   3.863   8.839
 1685WAT      O 5296   5.257   8.097   1.587
 1685WAT     H1 5297   5.263   8.131   1.494
 1685WAT     H2 5298   5.323   8.023   1.600
 1686WAT      O 5299   5.994   0.582   2.114
 1686WAT     H1 5300   5.949   0.638   2.044
 1686WAT     H2 5301   6.032   0.500   2.071
 1687WAT      O 5302   1.755   3.106   2.910
 1687WAT     H1 5303   1.751   3.201   2.942
 1687WAT     H2 5304   1.778   3.105   2.813
 1688WAT      O 5305   6.868   1.127   1.673
 1688WAT     H1 5306   6.827   1.057   1.731
 1688WAT     H2 5307   6.886   1.089   1.582
 1689WAT      O 5308   9.501   9.766   2.434
 1689WAT     H1 5309   9.520   9.669   2.418
 1689WAT     H2 5310   9.542   9.794   2.521
 1690WAT      O 5311   0.787   6.369   5.564
 1690WAT     H1 5312   0.789   6.469   5.555
 1690WAT     H2 5313   0.753   6.345   5.655
 1691WAT      O 5314   7.307   5.262   4.129
 1691WAT     H1 5315   7.255   5.235   4.048
 1691WAT     H2 5316   7.397   5.218   4.128
 1692WAT      O 5317   0.159   9.512   4.063
 1692WAT     H1 5318   0.206   9.597   4.084
 1692WAT     H2 5319   0.121   9.516   3.971
 1693WAT      O 5320   1.670   9.657   1.628
 1693WAT     H1 5321   1.708   9.749   1.619
 1693WAT     H2 5322   1.673   9.611   1.539
 1694WAT      O 5323   7.298   0.932   6.944
 1694WAT     H1 5324   7.207   0.909   6.909
 1694WAT     H2 5325   7.327   0.860   7.008
 1695WAT      O 5326   6.439   2.716   1.368
 1695WAT     H1 5327   6.473   2.663   1.445
 1695WAT     H2 5328   6.516   2.749   1.313
 1696WAT      O 5329   8.024   3.426   6.175
 1696WAT     H1 5330   8.018   3.508   6.119
 1696WAT     H2 5331   8.016   3.451   6.272
 1697WAT      O 5332   0.170   8.662   7.158
 1697WAT     H1 5333   0.100   8.690   7.225
 1697WAT     H2 5334   0.226   8.741   7.134
 1698WAT      O 5335   4.086   5.577   4.910
 1698WAT     H1 5336   4.160   5.547   4.850
 1698WAT     H2 5337   4.053   5.500   4.964
 1699WAT      O 5338   2.807   0.745   0.156
 1699WAT     H1 5339   2.905   0.767   0.147
 1699WAT     H2 5340   2.774   0.707   0.070
 1700WAT      O 5341   9.283   1.904   7.961
 1700WAT     H1 5342   9.245   1.840   7.894
 1700WAT     H2 5343   9.249   1.996   7.942
 1701WAT      O 5344   2.349   9.550   9.758
 1701WAT     H1 5345   2.298   9.620   9.808
 1701WAT     H2 5346   2.439   9.585   9.733
 1702WAT      O 5347   2.236   8.660   3.388
 1702WAT     H1 5348   2.326   8.626   3.416
 1702WAT     H2 5349   2.174   8.582   3.374
 1703WAT      O 5350   4.584   6.907   9.338
 1703WAT     H1 5351   4.536   6.977   9.285
 1703WAT     H2 5352   4.566   6.817   9.297
 1704WAT      O 5353   8.611   2.637   8.479
 1704WAT     H1 5354   8.692   2.617   8.533
 1704WAT     H2 5355   8.617   2.590   8.391
 1705WAT      O 5356   7.521   8.166   3.762
 1705WAT     H1 5357   7.530   8.224   3.682
 1705WAT     H2 5358   7.598   8.181   3.824
 1706WAT      O 5359   2.377   9.469   2.361
 1706WAT     H1 5360   2.388   9.562   2.397
 1706WAT     H2 5361   2.318   9.417   2.423
 1707WAT      O 5362   6.201   3.803   0.189
 1707WAT     H1 5363   6.157   3.793   0.100
 1707WAT     H2 5364   6.277   3.738   0.197
 1708WAT      O 5365   6.214   4.537   5.710
 1708WAT     H1 5366   6.127   4.547   5.757
 1708WAT     H2 5367   6.204   4.474   5.633
 1709WAT      O 5368   0.648   6.728   2.203
 1709WAT     H1 5369   0.698   6.744   2.118
 1709WAT     H2 5370   0.667   6.803   2.267
 1710WAT      O 5371   5.447   0.729   4.523
 1710WAT     H1 5372   5.522   0.680   4.568
 1710WAT     H2 5373   5.479   0.819   4.493
 1711WAT      O 5374   0.723   8.811   7.672
 1711WAT     H1 5375   0.814   8.843   7.646
 1711WAT     H2 5376   0.655   8.851   7.610
 1712WAT      O 5377   1.446   2.847   1.404
 1712WAT     H1 5378   1.472   2.931   1.452
 1712WAT     H2 5379   1.349   2.828   1.422
 1713WAT      O 5380   8.811   6.549   8.150
 1713WAT     H1 5381   8.736   6.601   8.108
 1713WAT     H2 5382   8.785   6.521   8.242
 1714WAT      O 5383   5.920   2.664   4.436
 1714WAT     H1 5384   5.887   2.697   4.524
 1714WAT     H2 5385   5.934   2.741   4.374
 1715WAT      O 5386   2.578   9.219   7.898
 1715WAT     H1 5387   2.495   9.257   7.858
 1715WAT     H2 5388   2.623   9.159   7.832
 1716WAT      O 5389   1.714   9.780   5.013
 1716WAT     H1 5390   1.813   9.792   5.007
 1716WAT     H2 5391   1.690   9.738   5.101
 1717WAT      O 5392   0.154   6.838   6.012
 1717WAT     H1 5393   0.243   6.884   6.011
 1717WAT     H2 5394   0.105   6.861   5.928
 1718WAT      O 5395   8.986   3.331   0.334
 1718WAT     H1 5396   9.072   3.306   0.378
 1718WAT     H2 5397   9.001   3.406   0.270
 1719WAT      O 5398   2.191   1.612   7.608
 1719WAT     H1 5399   2.253   1.580   7.537
 1719WAT     H2 5400   2.237   1.607   7.697
 1720WAT      O 5401   6.574   4.414   1.530
 1720WAT     H1 5402   6.630   4.458   1.460
 1720WAT     H2 5403   6.478   4.415   1.502
 1721WAT      O 5404   5.581   2.065   7.149
 1721WAT     H1 5405   5.579   2.105   7.058
 1721WAT     H2 5406   5.522   2.118   7.210
 1722WAT      O 5407   9.432   7.631   4.865
 1722WAT     H1 5408   9.443   7.570   4.786
 1722WAT     H2 5409   9.389   7.581   4.940
 1723WAT      O 5410   3.402   3.912   1.210
 1723WAT     H1 5411   3.371   3.869   1.295
 1723WAT     H2 5412   3.470   3.853   1.166
 1724WAT      O 5413   6.820   8.167   9.505
 1724WAT     H1 5414   6.737   8.219   9.483
 1724WAT     H2 5415   6.848   8.188   9.599
 1725WAT      O 5416   4.330   4.753   4.204
 1725WAT     H1 5417   4.293   4.703   4.126
 1725WAT     H2 5418   4.353   4.688   4.277
 1726WAT      O 5419   4.821   6.822   7.174
 1726WAT     H1 5420   4.900   6.846   7.230
 1726WAT     H2 5421   4.838   6.734   7.128
 1727WAT      O 5422   4.121   7.815   1.994
 1727WAT     H1 5423   4.102   7.735   2.051
 1727WAT     H2 5424   4.036   7.867   1.980
 1728WAT      O 5425   5.259   6.110   6.325
 1728WAT     H1 5426   5.160   6.125   6.329
 1728WAT     H2 5427   5.302   6.143   6.409
 1729WAT      O 5428   8.957   1.052   4.881
 1729WAT     H1 5429   8.884   1.060   4.813
 1729WAT     H2 5430   9.029   0.993   4.844
 1730WAT      O 5431   5.576   6.755   2.165
 1730WAT     H1 5432   5.500   6.739   2.102
 1730WAT     H2 5433   5.659   6.775   2.113
 1731WAT      O 5434   0.503   0.622   5.794
 1731WAT     H1 5435   0.598   0.651   5.806
 1731WAT     H2 5436   0.485   0.540   5.848
 1732WAT      O 5437   1.456   1.325   2.005
 1732WAT     H1 5438   1.393   1.271   2.060
 1732WAT     H2 5439   1.466   1.283   1.915
 1733WAT      O 5440   7.240   0.569   0.436
 1733WAT     H1 5441   7.195   0.575   0.525
 1733WAT     H2 5442   7.178   0.526   0.370
 1734WAT      O 5443   5.546   4.938   8.292
 1734WAT     H1 5444   5.605   4.954   8.213
 1734WAT     H2 5445   5.493   4.855   8.278
 1735WAT      O 5446   1.937   6.344   9.308
 1735WAT     H1 5447   1.994   6.410   9.357
 1735WAT     H2 5448   1.842   6.354   9.337
 1736WAT      O 5449   4.620   7.942   6.697
 1736WAT     H1 5450   4.624   8.042   6.700
 1736WAT     H2 5451   4.668   7.909   6.615
 1737WAT      O 5452   9.243   7.215   2.128
 1737WAT     H1 5453   9.147   7.211   2.101
 1737WAT     H2 5454   9.295   7.145   2.079
 1738WAT      O 5455   0.768   1.680   2.826
 1738WAT     H1 5456   0.841   1.672   2.894
 1738WAT     H2 5457   0.760   1.595   2.775
 1739WAT      O 5458   7.467   0.762   8.108
 1739WAT     H1 5459   7.399   0.830   8.078
 1739WAT     H2 5460   7.551   0.809   8.135
 1740WAT      O 5461   5.659   1.341   4.930
 1740WAT     H1 5462   5.613   1.368   5.014
 1740WAT     H2 5463   5.618   1.388   4.852
 1741WAT      O 5464   8.849   5.111   4.354
 1741WAT     H1 5465   8.792   5.065   4.422
 1741WAT     H2 5466   8.792   5.173   4.299
 1742WAT      O 5467   7.405   9.337   2.071
 1742WAT     H1 5468   7.463   9.387   2.136
 1742WAT     H2 5469   7.437   9.243   2.063
 1743WAT      O 5470   6.287   8.020   8.823
 1743WAT     H1 5471   6.286   8.068   8.735
 1743WAT     H2 5472   6.359   8.058   8.881
 1744WAT      O 5473   2.588   1.719   6.158
 1744WAT     H1 5474   2.571   1.718   6.256
 1744WAT     H2 5475   2.650   1.794   6.135
 1745WAT      O 5476   8.591   4.915   3.961
 1745WAT     H1 5477   8.603   4.962   3.873
 1745WAT     H2 5478   8.662   4.947   4.024
 1746WAT      O 5479   2.894   5.957   9.550
 1746WAT     H1 5480   2.964   5.898   9.510
 1746WAT     H2 5481   2.913   5.971   9.647
 1747WAT      O 5482   7.393   2.818   7.492
 1747WAT     H1 5483   7.335   2.884   7.445
 1747WAT     H2 5484   7.433   2.860   7.573
 1748WAT      O 5485   8.193   5.906   1.660
 1748WAT     H1 5486   8.220   5.902   1.757
 1748WAT     H2 5487   8.165   5.999   1.637
 1749WAT      O 5488   6.176   0.236   4.762
 1749WAT     H1 5489   6.263   0.188   4.747
 1749WAT     H2 5490   6.168   0.261   4.858
 1750WAT      O 5491   4.607   9.494   0.919
 1750WAT     H1 5492   4.581   9.569   0.858
 1750WAT     H2 5493   4.676   9.437   0.875
 1751WAT      O 5494   7.591   0.460   5.888
 1751WAT     H1 5495   7.510   0.451   5.830
 1751WAT     H2 5496   7.599   0.555   5.920
 1752WAT      O 5497   4.748   3.904   7.417
 1752WAT     H1 5498   4.815   3.939   7.352
 1752WAT     H2 5499   4.791   3.835   7.475
 1753WAT      O 5500   7.605   5.316   4.801
 1753WAT     H1 5501   7.580   5.231   4.753
 1753WAT     H2 5502   7.626   5.387   4.734
 1754WAT      O 5503   2.857   2.930   0.475
 1754WAT     H1 5504   2.914   2.985   0.414
 1754WAT     H2 5505   2.766   2.970   0.481
 1755WAT      O 5506   6.664   0.354   2.902
 1755WAT     H1 5507   6.677   0.318   2.995
 1755WAT     H2 5508   6.569   0.380   2.889
 1756WAT      O 5509   9.885   4.507   6.575
 1756WAT     H1 5510   9.835   4.430   6.536
 1756WAT     H2 5511   9.932   4.557   6.502
 1757WAT      O 5512   2.933   1.555   0.931
 1757WAT     H1 5513   2.983   1.584   0.849
 1757WAT     H2 5514   2.996   1.509   0.994
 1758WAT      O 5515   0.987   1.272   2.909
 1758WAT     H1 5516   0.935   1.201   2.955
 1758WAT     H2 5517   1.079   1.277   2.948
 1759WAT      O 5518   6.335   5.896   0.293
 1759WAT     H1 5519   6.249   5.906   0.242
 1759WAT     H2 5520   6.372   5.987   0.315
 1760WAT      O 5521   7.758   4.395   3.356
 1760WAT     H1 5522   7.692   4.378   3.283
 1760WAT     H2 5523   7.851   4.395   3.318
 1761WAT      O 5524   4.104   1.270   4.272
 1761WAT     H1 5525   4.103   1.305   4.179
 1761WAT     H2 5526   4.011   1.266   4.308
 1762WAT      O 5527   7.536   4.054   6.594
 1762WAT     H1 5528   7.522   3.975   6.654
 1762WAT     H2 5529   7.501   4.033   6.503
 1763WAT      O 5530   6.272   2.863   4.545
 1763WAT     H1 5531   6.362   2.837   4.581
 1763WAT     H2 5532   6.271   2.960   4.524
 1764WAT      O 5533   8.872   4.835   2.016
 1764WAT     H1 5534   8.867   4.928   2.052
 1764WAT     H2 5535   8.837   4.771   2.084
 1765WAT      O 5536   2.879   8.470   1.000
 1765WAT     H1 5537   2.866   8.487   1.098
 1765WAT     H2 5538   2.903   8.373   0.986
 1766WAT      O 5539   8.435   1.056   6.278
 1766WAT     H1 5540   8.354   1.001   6.297
 1766WAT     H2 5541   8.473   1.030   6.189
 1767WAT      O 5542   8.891   8.412   2.051
 1767WAT     H1 5543   8.841   8.496   2.028
 1767WAT     H2 5544   8.836   8.356   2.112
 1768WAT      O 5545   4.895   9.120   8.953
 1768WAT     H1 5546   4.995   9.116   8.946
 1768WAT     H2 5547   4.867   9.075   9.037
 1769WAT      O 5548   2.768   1.048   0.006
 1769WAT     H1 5549   2.755   0.983  -0.069
 1769WAT     H2 5550   2.856   1.031   0.050
 1770WAT      O 5551   7.071   3.326   6.669
 1770WAT     H1 5552   7.129   3.245   6.654
 1770WAT     H2 5553   7.117   3.387   6.734
 1771WAT      O 5554   3.074   7.409   1.115
 1771WAT     H1 5555   3.147   7.438   1.176
 1771WAT     H2 5556   3.065   7.309   1.117
 1772WAT      O 5557   2.216   6.960   3.617
 1772WAT     H1 5558   2.190   6.868   3.646
 1772WAT     H2 5559   2.310   6.978   3.645
 1773WAT      O 5560   1.958   9.114   3.288
 1773WAT     H1 5561   2.033   9.122   3.355
 1773WAT     H2 5562   1.879   9.167   3.321
 1774WAT      O 5563   0.555   1.158   7.828
 1774WAT     H1 5564   0.615   1.088   7.788
 1774WAT     H2 5565   0.551   1.236   7.766
 1775WAT      O 5566   1.856   1.718   1.826
 1775WAT     H1 5567   1.881   1.815   1.826
 1775WAT     H2 5568   1.762   1.708   1.858
 1776WAT      O 5569   5.053   2.430   9.505
 1776WAT     H1 5570   5.151   2.414   9.495
 1776WAT     H2 5571   5.006   2.343   9.519
 1777WAT      O 5572   0.223   7.233   5.748
 1777WAT     H1 5573   0.128   7.203   5.760
 1777WAT     H2 5574   0.240   7.313   5.806
 1778WAT      O 5575   9.603   3.132   6.215
 1778WAT     H1 5576   9.607   3.117   6.314
 1778WAT     H2 5577   9.635   3.224   6.194
 1779WAT      O 5578   4.039   9.414   6.010
 1779WAT     H1 5579   4.102   9.382   5.940
 1779WAT     H2 5580   4.091   9.449   6.088
 1780WAT      O 5581   8.072   3.386   4.749
 1780WAT     H1 5582   8.062   3.483   4.769
 1780WAT     H2 5583   8.162   3.370   4.708
 1781WAT      O 5584   3.424   2.060   3.563
 1781WAT     H1 5585   3.407   2.111   3.479
 1781WAT     H2 5586   3.420   1.962   3.543
 1782WAT      O 5587   2.200   7.038   5.451
 1782WAT     H1 5588   2.256   7.117   5.476
 1782WAT     H2 5589   2.252   6.954   5.464
 1783WAT      O 5590   5.841   8.375   5.129
 1783WAT     H1 5591   5.932   8.398   5.161
 1783WAT     H2 5592   5.842   8.366   5.029
 1784WAT      O 5593   6.735   1.694   5.652
 1784WAT     H1 5594   6.798   1.763   5.688
 1784WAT     H2 5595   6.718   1.625   5.723
 1785WAT      O 5596   8.293   6.882   8.212
 1785WAT     H1 5597   8.274   6.980   8.200
 1785WAT     H2 5598   8.391   6.868   8.224
 1786WAT      O 5599   3.996   6.393   5.053
 1786WAT     H1 5600   4.094   6.408   5.042
 1786WAT     H2 5601   3.964   6.442   5.134
 1787WAT      O 5602   0.413   2.861   0.956
 1787WAT     H1 5603   0.422   2.960   0.948
 1787WAT     H2 5604   0.504   2.819   0.962
 1788WAT      O 5605   0.715   6.223   3.472
 1788WAT     H1 5606   0.672   6.141   3.509
 1788WAT     H2 5607   0.646   6.294   3.459
 1789WAT      O 5608   2.811   3.655   6.096
 1789WAT     H1 5609   2.796   3.660   6.194
 1789WAT     H2 5610   2.903   3.687   6.074
 1790WAT      O 5611   7.925   1.425   3.239
 1790WAT     H1 5612   7.842   1.375   3.263
 1790WAT     H2 5613   7.984   1.431   3.319
 1791WAT      O 5614   6.706   6.524   2.597
 1791WAT     H1 5615   6.760   6.468   2.535
 1791WAT     H2 5616   6.615   6.486   2.606
 1792WAT      O 5617   4.027   8.947   2.751
 1792WAT     H1 5618   4.071   8.873   2.700
 1792WAT     H2 5619   3.983   8.909   2.832
 1793WAT      O 5620   1.323   5.281   5.796
 1793WAT     H1 5621   1.240   5.309   5.844
 1793WAT     H2 5622   1.377   5.362   5.773
 1794WAT      O 5623   5.165   1.260   7.625
 1794WAT     H1 5624   5.091   1.203   7.661
 1794WAT     H2 5625   5.130   1.316   7.550
 1795WAT      O 5626   4.172   2.710   1.243
 1795WAT     H1 5627   4.195   2.807   1.236
 1795WAT     H2 5628   4.250   2.655   1.214
 1796WAT      O 5629   5.268   1.648   1.588
 1796WAT     H1 5630   5.250   1.563   1.638
 1796WAT     H2 5631   5.312   1.626   1.500
 1797WAT      O 5632   0.517   3.674   7.456
 1797WAT     H1 5633   0.616   3.676   7.446
 1797WAT     H2 5634   0.492   3.613   7.531
 1798WAT      O 5635   7.182   7.495   8.918
 1798WAT     H1 5636   7.151   7.510   9.012
 1798WAT     H2 5637   7.174   7.580   8.866
 1799WAT      O 5638   2.141   7.313   8.540
 1799WAT     H1 5639   2.087   7.387   8.501
 1799WAT     H2 5640   2.230   7.309   8.496
 1800WAT      O 5641   0.442   4.489   9.889
 1800WAT     H1 5642   0.508   4.564   9.890
 1800WAT     H2 5643   0.489   4.404   9.911
 1801WAT      O 5644   3.094   9.228   2.796
 1801WAT     H1 5645   3.111   9.153   2.732
 1801WAT     H2 5646   2.995   9.240   2.807
 1802WAT      O 5647   0.560   4.535   1.771
 1802WAT     H1 5648   0.619   4.456   1.754
 1802WAT     H2 5649   0.481   4.531   1.709
 1803WAT      O 5650   2.094   8.224   5.769
 1803WAT     H1 5651   2.176   8.253   5.719
 1803WAT     H2 5652   2.077   8.127   5.752
 1804WAT      O 5653   1.461   0.725   8.426
 1804WAT     H1 5654   1.416   0.773   8.350
 1804WAT     H2 5655   1.523   0.656   8.389
 1805WAT      O 5656   9.037   3.329   3.742
 1805WAT     H1 5657   8.970   3.311   3.669
 1805WAT     H2 5658   8.994   3.312   3.831
 1806WAT      O 5659   9.601   5.490   5.829
 1806WAT     H1 5660   9.583   5.394   5.804
 1806WAT     H2 5661   9.528   5.523   5.889
 1807WAT      O 5662   2.408   8.964   7.601
 1807WAT     H1 5663   2.493   8.914   7.587
 1807WAT     H2 5664   2.412   9.052   7.554
 1808WAT      O 5665   2.611   1.916   9.713
 1808WAT     H1 5666   2.523   1.947   9.679
 1808WAT     H2 5667   2.652   1.987   9.770
 1809WAT      O 5668   0.772   8.968   1.295
 1809WAT     H1 5669   0.727   8.879   1.296
 1809WAT     H2 5670   0.738   9.021   1.217
 1810WAT      O 5671   4.052   1.113   7.586
 1810WAT     H1 5672   4.048   1.095   7.685
 1810WAT     H2 5673   3.964   1.152   7.556
 1811WAT      O 5674   4.374   5.389   1.719
 1811WAT     H1 5675   4.350   5.466   1.659
 1811WAT     H2 5676   4.445   5.333   1.676
 1812WAT      O 5677   7.376   7.368   2.242
 1812WAT     H1 5678   7.369   7.399   2.147
 1812WAT     H2 5679   7.358   7.445   2.304
 1813WAT      O 5680   9.585   9.606   9.430
 1813WAT     H1 5681   9.619   9.699   9.416
 1813WAT     H2 5682   9.539   9.575   9.347
 1814WAT      O 5683   5.257   1.715   3.926
 1814WAT     H1 5684   5.237   1.628   3.880
 1814WAT     H2 5685   5.355   1.724   3.941
 1815WAT      O 5686   3.488   2.988   2.921
 1815WAT     H1 5687   3.412   2.966   2.983
 1815WAT     H2 5688   3.574   2.984   2.971
 1816WAT      O 5689   3.257   4.990   1.731
 1816WAT     H1 5690   3.163   5.015   1.753
 1816WAT     H2 5691   3.274   5.006   1.634
 1817WAT      O 5692   4.869   3.921   2.693
 1817WAT     H1 5693   4.783   3.881   2.725
 1817WAT     H2 5694   4.942   3.902   2.759
 1818WAT      O 5695   9.043   5.521   5.638
 1818WAT     H1 5696   9.057   5.606   5.587
 1818WAT     H2 5697   9.072   5.533   5.733
 1819WAT      O 5698   9.594   3.794   9.482
 1819WAT     H1 5699   9.602   3.866   9.413
 1819WAT     H2 5700   9.676   3.737   9.480
 1820WAT      O 5701   6.715   9.021   4.270
 1820WAT     H1 5702   6.632   8.978   4.306
 1820WAT     H2 5703   6.691   9.107   4.226
 1821WAT      O 5704   3.049   3.331   7.030
 1821WAT     H1 5705   2.986   3.324   6.952
 1821WAT     H2 5706   3.010   3.392   7.099
 1822WAT      O 5707   9.620   0.295   2.620
 1822WAT     H1 5708   9.650   0.229   2.688
 1822WAT     H2 5709   9.699   0.350   2.590
 1823WAT      O 5710   9.713   6.052   2.799
 1823WAT     H1 5711   9.636   5.989   2.811
 1823WAT     H2 5712   9.726   6.072   2.702
 1824WAT      O 5713   1.123   0.222   0.553
 1824WAT     H1 5714   1.134   0.321   0.541
 1824WAT     H2 5715   1.051   0.205   0.620
 1825WAT      O 5716   4.273   7.802   7.891
 1825WAT     H1 5717   4.355   7.814   7.836
 1825WAT     H2 5718   4.252   7.887   7.939
 1826WAT      O 5719   7.667   7.136   0.141
 1826WAT     H1 5720   7.588   7.077   0.161
 1826WAT     H2 5721   7.652   7.226   0.182
 1827WAT      O 5722   5.335   9.818   4.490
 1827WAT     H1 5723   5.392   9.738   4.505
 1827WAT     H2 5724   5.305   9.821   4.395
 1828WAT      O 5725   5.521   3.101   9.440
 1828WAT     H1 5726   5.568   3.026   9.394
 1828WAT     H2 5727   5.580   3.141   9.509
 1829WAT      O 5728   6.827   8.064   3.663
 1829WAT     H1 5729   6.758   8.002   3.701
 1829WAT     H2 5730   6.820   8.153   3.708
 1830WAT      O 5731   7.605   3.315   1.280
 1830WAT     H1 5732   7.518   3.303   1.233
 1830WAT     H2 5733   7.592   3.305   1.379
 1831WAT      O 5734   9.274   4.521   6.619
 1831WAT     H1 5735   9.239   4.438   6.663
 1831WAT     H2 5736   9.338   4.567   6.680
 1832WAT      O 5737   7.247   4.699   0.368
 1832WAT     H1 5738   7.306   4.619   0.365
 1832WAT     H2 5739   7.179   4.688   0.441
 1833WAT      O 5740   0.658   7.534   3.703
 1833WAT     H1 5741   0.700   7.540   3.613
 1833WAT     H2 5742   0.656   7.439   3.733
 1834WAT      O 5743   0.895   1.611   8.435
 1834WAT     H1 5744   0.938   1.618   8.344
 1834WAT     H2 5745   0.833   1.533   8.436
 1835WAT      O 5746   8.223   0.524   0.968
 1835WAT     H1 5747   8.322   0.531   0.953
 1835WAT     H2 5748   8.178   0.606   0.932
 1836WAT      O 5749   5.198   2.837   8.204
 1836WAT     H1 5750   5.298   2.842   8.191
 1836WAT     H2 5751   5.167   2.743   8.191
 1837WAT      O 5752   5.506   6.132   3.855
 1837WAT     H1 5753   5.444   6.099   3.784
 1837WAT     H2 5754   5.600   6.112   3.828
 1838WAT      O 5755   4.458   4.534   3.324
 1838WAT     H1 5756   4.446   4.436   3.304
 1838WAT     H2 5757   4.551   4.562   3.300
 1839WAT      O 5758   5.037   7.846   3.391
 1839WAT     H1 5759   5.045   7.772   3.457
 1839WAT     H2 5760   5.122   7.899   3.389
 1840WAT      O 5761   4.220   0.251   2.864
 1840WAT     H1 5762   4.190   0.347   2.860
 1840WAT     H2 5763   4.140   0.191   2.854
 1841WAT      O 5764   6.062   7.427   3.271
 1841WAT     H1 5765   6.122   7.385   3.203
 1841WAT     H2 5766   6.045   7.523   3.245
 1842WAT      O 5767   1.558   3.016   4.607
 1842WAT     H1 5768   1.499   3.016   4.688
 1842WAT     H2 5769   1.521   3.078   4.538
 1843WAT      O 5770   9.067   5.150   1.009
 1843WAT     H1 5771   8.979   5.193   1.026
 1843WAT     H2 5772   9.120   5.147   1.095
 1844WAT      O 5773   9.144   1.361   9.104
 1844WAT     H1 5774   9.079   1.416   9.050
 1844WAT     H2 5775   9.161   1.406   9.191
 1845WAT      O 5776   4.037   2.403   2.663
 1845WAT     H1 5777   4.111   2.424   2.728
 1845WAT     H2 5778   4.077   2.379   2.574
 1846WAT      O 5779   6.889   0.970   0.226
 1846WAT     H1 5780   6.949   1.004   0.299
 1846WAT     H2 5781   6.945   0.946   0.146
 1847WAT      O 5782   5.411   4.739   1.580
 1847WAT     H1 5783   5.358   4.818   1.549
 1847WAT     H2 5784   5.508   4.754   1.561
 1848WAT      O 5785   6.524   2.582   7.347
 1848WAT     H1 5786   6.571   2.495   7.331
 1848WAT     H2 5787   6.476   2.610   7.264
 1849WAT      O 5788   2.042   2.609   2.173
 1849WAT     H1 5789   1.997   2.693   2.204
 1849WAT     H2 5790   2.079   2.623   2.081
 1850WAT      O 5791   3.232   5.800   1.349
 1850WAT     H1 5792   3.232   5.897   1.325
 1850WAT     H2 5793   3.148   5.757   1.316
 1851WAT      O 5794   3.918   8.485   5.397
 1851WAT     H1 5795   3.941   8.388   5.410
 1851WAT     H2 5796   3.948   8.515   5.307
 1852WAT      O 5797   9.234   8.236   8.254
 1852WAT     H1 5798   9.310   8.285   8.212
 1852WAT     H2 5799   9.184   8.297   8.314
 1853WAT      O 5800   7.392   8.844   6.799
 1853WAT     H1 5801   7.338   8.890   6.728
 1853WAT     H2 5802   7.416   8.910   6.870
 1854WAT      O 5803   6.789   9.757   9.358
 1854WAT     H1 5804   6.740   9.687   9.306
 1854WAT     H2 5805   6.726   9.805   9.418
 1855WAT      O 5806   4.596   3.596   6.838
 1855WAT     H1 5807   4.695   3.587   6.847
 1855WAT     H2 5808   4.553   3.590   6.928
 1856WAT      O 5809   8.100   1.440   3.460
 1856WAT     H1 5810   8.140   1.531   3.468
 1856WAT     H2 5811   8.131   1.384   3.537
 1857WAT      O 5812   6.498   7.434   9.023
 1857WAT     H1 5813   6.530   7.482   8.941
 1857WAT     H2 5814   6.576   7.411   9.081
 1858WAT      O 5815   6.932   5.757   1.379
 1858WAT     H1 5816   6.904   5.721   1.468
 1858WAT     H2 5817   6.954   5.681   1.318
 1859WAT      O 5818   7.663   1.154   6.560
 1859WAT     H1 5819   7.659   1.063   6.602
 1859WAT     H2 5820   7.603   1.216   6.610
 1860WAT      O 5821   8.907   6.083   6.027
 1860WAT     H1 5822   8.988   6.031   6.053
 1860WAT     H2 5823   8.903   6.167   6.080
 1861WAT      O 5824   3.521   5.262   7.262
 1861WAT     H1 5825   3.549   5.184   7.207
 1861WAT     H2 5826   3.470   5.326   7.205
 1862WAT      O 5827   3.847   7.849   8.887
 1862WAT     H1 5828   3.897   7.862   8.973
 1862WAT     H2 5829   3.911   7.836   8.812
 1863WAT      O 5830   3.244   3.671   4.468
 1863WAT     H1 5831   3.229   3.692   4.564
 1863WAT     H2 5832   3.212   3.579   4.447
 1864WAT      O 5833   4.030   8.094   7.776
 1864WAT     H1 5834   4.072   8.055   7.859
 1864WAT     H2 5835   4.100   8.108   7.706
 1865WAT      O 5836   4.525   2.150   6.234
 1865WAT     H1 5837   4.535   2.126   6.137
 1865WAT     H2 5838   4.499   2.246   6.242
 1866WAT      O 5839   0.775   4.584   3.415
 1866WAT     H1 5840   0.772   4.643   3.334
 1866WAT     H2 5841   0.783   4.489   3.386
 1867WAT      O 5842   0.369   6.863   7.876
 1867WAT     H1 5843   0.353   6.959   7.852
 1867WAT     H2 5844   0.460   6.853   7.916
 1868WAT      O 5845   2.074   0.430   9.803
 1868WAT     H1 5846   2.078   0.457   9.900
 1868WAT     H2 5847   2.145   0.480   9.753
 1869WAT      O 5848   2.679   7.769   9.585
 1869WAT     H1 5849   2.645   7.688   9.633
 1869WAT     H2 5850   2.738   7.741   9.510
 1870WAT      O 5851   0.680   2.804   8.645
 1870WAT     H1 5852   0.766   2.800   8.594
 1870WAT     H2 5853   0.669   2.896   8.684
 1871WAT      O 5854   1.605   2.419   2.366
 1871WAT     H1 5855   1.634   2.511   2.339
 1871WAT     H2 5856   1.614   2.409   2.465
 1872WAT      O 5857   9.622   7.916   2.502
 1872WAT     H1 5858   9.647   7.843   2.565
 1872WAT     H2 5859   9.538   7.960   2.533
 1873WAT      O 5860   3.510   6.812   1.853
 1873WAT     H1 5861   3.447   6.811   1.774
 1873WAT     H2 5862   3.458   6.828   1.936
 1874WAT      O 5863   0.013   5.372   6.634
 1874WAT     H1 5864   0.042   5.325   6.551
 1874WAT     H2 5865   0.022   5.310   6.712
 1875WAT      O 5866   5.017   2.579   1.338
 1875WAT     H1 5867   5.112   2.557   1.316
 1875WAT     H2 5868   4.986   2.655   1.280
 1876WAT      O 5869   0.883   2.082   1.112
 1876WAT     H1 5870   0.842   1.991   1.120
 1876WAT     H2 5871   0.837   2.133   1.039
 1877WAT      O 5872   8.124   5.517   3.193
 1877WAT     H1 5873   8.160   5.451   3.126
 1877WAT     H2 5874   8.081   5.593   3.144
 1878WAT      O 5875   3.774   9.793   4.193
 1878WAT     H1 5876   3.761   9.774   4.290
 1878WAT     H2 5877   3.729   9.879   4.169
 1879WAT      O 5878   4.388   0.089   3.555
 1879WAT     H1 5879   4.484   0.078   3.528
 1879WAT     H2 5880   4.361   0.185   3.546
 1880WAT      O 5881   1.966   2.297   7.118
 1880WAT     H1 5882   1.915   2.218   7.084
 1880WAT     H2 5883   2.059   2.294   7.082
 1881WAT      O 5884   9.794   6.118   1.474
 1881WAT     H1 5885   9.732   6.072   1.537
 1881WAT     H2 5886   9.756   6.206   1.447
 1882WAT      O 5887   8.611   6.769   5.269
 1882WAT     H1 5888   8.596   6.708   5.191
 1882WAT     H2 5889   8.623   6.714   5.351
 1883WAT      O 5890   2.696   3.451   3.740
 1883WAT     H1 5891   2.684   3.543   3.705
 1883WAT     H2 5892   2.616   3.424   3.794
 1884WAT      O 5893   6.201   7.685   0.496
 1884WAT     H1 5894   6.168   7.775   0.466
 1884WAT     H2 5895   6.125   7.620   0.495
 1885WAT      O 5896   7.028   6.710   6.424
 1885WAT     H1 5897   6.956   6.777   6.447
 1885WAT     H2 5898   7.006   6.667   6.336
 1886WAT      O 5899   0.150   2.541   9.680
 1886WAT     H1 5900   0.242   2.549   9.642
 1886WAT     H2 5901   0.147   2.585   9.769
 1887WAT      O 5902   0.366   0.889   7.243
 1887WAT     H1 5903   0.400   0.802   7.279
 1887WAT     H2 5904   0.294   0.924   7.304
 1888WAT      O 5905   2.941   1.609   3.789
 1888WAT     H1 5906   2.889   1.680   3.741
 1888WAT     H2 5907   3.038   1.619   3.768
 1889WAT      O 5908   6.282   0.484   5.711
 1889WAT     H1 5909   6.277   0.514   5.806
 1889WAT     H2 5910   6.355   0.417   5.701
 1890WAT      O 5911   0.411   4.719   7.994
 1890WAT     H1 5912   0.314   4.740   8.004
 1890WAT     H2 5913   0.434   4.639   8.050
 1891WAT      O 5914   2.498   2.412   5.217
 1891WAT     H1 5915   2.435   2.339   5.243
 1891WAT     H2 5916   2.592   2.381   5.228
 1892WAT      O 5917   8.948   3.780   4.909
 1892WAT     H1 5918   8.910   3.788   4.818
 1892WAT     H2 5919   8.877   3.798   4.977
 1893WAT      O 5920   7.721   9.647   7.664
 1893WAT     H1 5921   7.662   9.726   7.645
 1893WAT     H2 5922   7.673   9.563   7.638
 1894WAT      O 5923   6.608   7.594   2.777
 1894WAT     H1 5924   6.603   7.681   2.826
 1894WAT     H2 5925   6.703   7.571   2.760
 1895WAT      O 5926   8.071   2.628   9.226
 1895WAT     H1 5927   8.082   2.541   9.179
 1895WAT     H2 5928   8.101   2.619   9.321
 1896WAT      O 5929   8.038   9.736   5.377
 1896WAT     H1 5930   8.038   9.692   5.466
 1896WAT     H2 5931   7.965   9.805   5.374
 1897WAT      O 5932   4.275   9.668   0.599
 1897WAT     H1 5933   4.176   9.658   0.590
 1897WAT     H2 5934   4.300   9.764   0.592
 1898WAT      O 5935   9.692   7.131   8.887
 1898WAT     H1 5936   9.601   7.172   8.892
 1898WAT     H2 5937   9.737   7.158   8.802
 1899WAT      O 5938   4.200   4.440   0.769
 1899WAT     H1 5939   4.193   4.340   0.766
 1899WAT     H2 5940   4.114   4.479   0.802
 1900WAT      O 5941   1.183   4.570   1.138
 1900WAT     H1 5942   1.223   4.534   1.054
 1900WAT     H2 5943   1.084   4.581   1.127
 1901WAT      O 5944   3.936   2.437   6.036
 1901WAT     H1 5945   4.023   2.418   6.080
 1901WAT     H2 5946   3.926   2.536   6.024
 1902WAT      O 5947   1.458   3.197   0.176
 1902WAT     H1 5948   1.467   3.274   0.112
 1902WAT     H2 5949   1.530   3.131   0.158
 1903WAT      O 5950   4.580   9.165   1.892
 1903WAT     H1 5951   4.537   9.125   1.973
 1903WAT     H2 5952   4.651   9.103   1.859
 1904WAT      O 5953   3.098   4.426   1.438
 1904WAT     H1 5954   3.195   4.406   1.429
 1904WAT     H2 5955   3.064   4.466   1.353
 1905WAT      O 5956   6.419   8.978   7.447
 1905WAT     H1 5957   6.359   9.040   7.396
 1905WAT     H2 5958   6.427   9.009   7.542
 1906WAT      O 5959   4.720   7.791   1.828
 1906WAT     H1 5960   4.685   7.700   1.849
 1906WAT     H2 5961   4.659   7.837   1.764
 1907WAT      O 5962   7.566   8.630   5.136
 1907WAT     H1 5963   7.611   8.702   5.188
 1907WAT     H2 5964   7.585   8.642   5.038
 1908WAT      O 5965   7.626   1.666   1.448
 1908WAT     H1 5966   7.544   1.713   1.480
 1908WAT     H2 5967   7.621   1.569   1.474
 1909WAT      O 5968   8.308   3.931   1.417
 1909WAT     H1 5969   8.209   3.926   1.410
 1909WAT     H2 5970   8.347   3.839   1.417
 1910WAT      O 5971   7.275   7.530   7.235
 1910WAT     H1 5972   7.262   7.618   7.280
 1910WAT     H2 5973   7.221   7.459   7.281
 1911WAT      O 5974   4.093   0.308   2.405
 1911WAT     H1 5975   4.065   0.385   2.348
 1911WAT     H2 5976   4.191   0.292   2.393
 1912WAT      O 5977   5.511   9.405   8.001
 1912WAT     H1 5978   5.549   9.496   7.989
 1912WAT     H2 5979   5.414   9.405   7.978
 1913WAT      O 5980   2.783   4.936   6.468
 1913WAT     H1 5981   2.807   4.851   6.422
 1913WAT     H2 5982   2.867   4.986   6.493
 1914WAT      O 5983   7.866   3.731   4.591
 1914WAT     H1 5984   7.912   3.807   4.545
 1914WAT     H2 5985   7.930   3.685   4.651
 1915WAT      O 5986   2.855   8.074   2.936
 1915WAT     H1 5987   2.880   7.986   2.896
 1915WAT     H2 5988   2.918   8.145   2.904
 1916WAT      O 5989   0.895   6.693   7.184
 1916WAT     H1 5990   0.961   6.727   7.118
 1916WAT     H2 5991   0.824   6.641   7.137
 1917WAT      O 5992   5.764   2.575   8.973
 1917WAT     H1 5993   5.813   2.516   8.909
 1917WAT     H2 5994   5.817   2.583   9.058
 1918WAT      O 5995   3.923   0.804   1.211
 1918WAT     H1 5996   3.924   0.741   1.288
 1918WAT     H2 5997   4.017   0.825   1.184
 1919WAT      O 5998   8.228   7.033   0.930
 1919WAT     H1 5999   8.315   6.988   0.950
 1919WAT     H2 6000   8.214   7.035   0.831
 1920WAT      O 6001   4.508   9.028   0.822
 1920WAT     H1 6002   4.602   9.015   0.855
 1920WAT     H2 6003   4.467   8.939   0.802
 1921WAT      O 6004   3.473   7.716   3.860
 1921WAT     H1 6005   3.378   7.747   3.866
 1921WAT     H2 6006   3.534   7.795   3.852
 1922WAT      O 6007   1.283   9.630   9.888
 1922WAT     H1 6008   1.332   9.543   9.892
 1922WAT     H2 6009   1.272   9.658   9.793
 1923WAT      O 6010   8.075   9.100   9.545
 1923WAT     H1 6011   8.017   9.158   9.489
 1923WAT     H2 6012   8.035   9.008   9.551
 1924WAT      O 6013   1.628   5.141   7.673
 1924WAT     H1 6014   1.654   5.048   7.647
 1924WAT     H2 6015   1.556   5.138   7.741
 1925WAT      O 6016   4.441   8.310   4.958
 1925WAT     H1 6017   4.407   8.232   4.906
 1925WAT     H2 6018   4.492   8.278   5.037
 1926WAT      O 6019   0.135   2.595   6.747
 1926WAT     H1 6020   0.153   2.570   6.842
 1926WAT     H2 6021   0.036   2.598   6.731
 1927WAT      O 6022   0.507   6.944   4.636
 1927WAT     H1 6023   0.516   7.030   4.688
 1927WAT     H2 6024   0.596   6.920   4.596
 1928WAT      O 6025   2.819   1.221   1.131
 1928WAT     H1 6026   2.794   1.213   1.227
 1928WAT     H2 6027   2.803   1.133   1.085
 1929WAT      O 6028   4.711   1.037   4.956
 1929WAT     H1 6029   4.789   1.013   4.898
 1929WAT     H2 6030   4.688   1.134   4.944
 1930WAT      O 6031   9.469   4.282   5.632
 1930WAT     H1 6032   9.369   4.285   5.635
 1930WAT     H2 6033   9.500   4.265   5.539
 1931WAT      O 6034   7.884   7.401   9.175
 1931WAT     H1 6035   7.851   7.351   9.096
 1931WAT     H2 6036   7.812   7.463   9.207
 1932WAT      O 6037   5.824   4.684   2.216
 1932WAT     H1 6038   5.738   4.718   2.177
 1932WAT     H2 6039   5.840   4.728   2.304
 1933WAT      O 6040   5.534   0.470   4.290
 1933WAT     H1 6041   5.435   0.458   4.299
 1933WAT     H2 6042   5.582   0.401   4.345
 1934WAT      O 6043   1.318   8.372   9.040
 1934WAT     H1 6044   1.283   8.329   8.957
 1934WAT     H2 6045   1.399   8.426   9.018
 1935WAT      O 6046   4.478   1.805   1.213
 1935WAT     H1 6047   4.505   1.713   1.240
 1935WAT     H2 6048   4.379   1.808   1.199
 1936WAT      O 6049   3.866   4.191   5.660
 1936WAT     H1 6050   3.771   4.202   5.688
 1936WAT     H2 6051   3.902   4.279   5.628
 1937WAT      O 6052   1.873   1.953   6.576
 1937WAT     H1 6053   1.844   1.942   6.671
 1937WAT     H2 6054   1.967   1.923   6.566
 1938WAT      O 6055   6.730   3.224   2.948
 1938WAT     H1 6056   6.805   3.169   2.986
 1938WAT     H2 6057   6.725   3.311   2.998
 1939WAT      O 6058   8.543   7.634   5.960
 1939WAT     H1 6059   8.455   7.607   5.921
 1939WAT     H2 6060   8.530   7.709   6.025
 1940WAT      O 6061   6.845   5.310   6.807
 1940WAT     H1 6062   6.941   5.338   6.816
 1940WAT     H2 6063   6.826   5.236   6.873
 1941WAT      O 6064   0.468   5.610   7.039
 1941WAT     H1 6065   0.466   5.707   7.017
 1941WAT     H2 6066   0.558   5.573   7.017
 1942WAT      O 6067   1.265   8.294   7.052
 1942WAT     H1 6068   1.168   8.278   7.069
 1942WAT     H2 6069   1.275   8.360   6.978
 1943WAT      O 6070   8.703   4.461   0.634
 1943WAT     H1 6071   8.741   4.493   0.720
 1943WAT     H2 6072   8.774   4.412   0.582
 1944WAT      O 6073   5.871   0.321   5.052
 1944WAT     H1 6074   5.817   0.245   5.088
 1944WAT     H2 6075   5.883   0.390   5.124
 1945WAT      O 6076   0.629   7.780   0.448
 1945WAT     H1 6077   0.650   7.875   0.473
 1945WAT     H2 6078   0.550   7.748   0.500
 1946WAT      O 6079   5.000   0.509   4.404
 1946WAT     H1 6080   4.956   0.451   4.336
 1946WAT     H2 6081   4.931   0.549   4.465
 1947WAT      O 6082   5.926   9.050   2.999
 1947WAT     H1 6083   5.886   9.042   3.090
 1947WAT     H2 6084   5.891   9.132   2.954
 1948WAT      O 6085   4.394   4.708   6.875
 1948WAT     H1 6086   4.392   4.664   6.965
 1948WAT     H2 6087   4.483   4.753   6.862
 1949WAT      O 6088   4.916   6.980   6.546
 1949WAT     H1 6089   4.882   7.024   6.463
 1949WAT     H2 6090   4.964   7.047   6.602
 1950WAT      O 6091   9.543   9.283   6.497
 1950WAT     H1 6092   9.454   9.237   6.501
 1950WAT     H2 6093   9.536   9.363   6.437
 1951WAT      O 6094   1.292   7.431   8.922
 1951WAT     H1 6095   1.351   7.502   8.960
 1951WAT     H2 6096   1.339   7.343   8.925
 1952WAT      O 6097   8.521   7.894   8.660
 1952WAT     H1 6098   8.612   7.864   8.690
 1952WAT     H2 6099   8.451   7.839   8.706
 1953WAT      O 6100   8.557   4.938   1.609
 1953WAT     H1 6101   8.491   4.892   1.667
 1953WAT     H2 6102   8.645   4.945   1.657
 1954WAT      O 6103   7.411   8.780   1.681
 1954WAT     H1 6104   7.342   8.843   1.716
 1954WAT     H2 6105   7.440   8.718   1.754
 1955WAT      O 6106   9.129   2.463   0.734
 1955WAT     H1 6107   9.061   2.424   0.672
 1955WAT     H2 6108   9.221   2.442   0.700
 1956WAT      O 6109   0.487   5.536   3.680
 1956WAT     H1 6110   0.459   5.610   3.618
 1956WAT     H2 6111   0.535   5.576   3.759
 1957WAT      O 6112   1.261   2.043   6.994
 1957WAT     H1 6113   1.219   1.967   7.044
 1957WAT     H2 6114   1.190   2.096   6.948
 1958WAT      O 6115   0.507   3.639   8.886
 1958WAT     H1 6116   0.493   3.607   8.980
 1958WAT     H2 6117   0.605   3.647   8.868
 1959WAT      O 6118   0.759   2.349   8.912
 1959WAT     H1 6119   0.672   2.354   8.863
 1959WAT     H2 6120   0.834   2.341   8.847
 1960WAT      O 6121   7.476   4.573   2.470
 1960WAT     H1 6122   7.471   4.474   2.458
 1960WAT     H2 6123   7.425   4.619   2.398
 1961WAT      O 6124   2.763   8.389   4.914
 1961WAT     H1 6125   2.705   8.469   4.928
 1961WAT     H2 6126   2.833   8.385   4.985
 1962WAT      O 6127   6.023   5.513   3.751
 1962WAT     H1 6128   5.988   5.446   3.818
 1962WAT     H2 6129   6.065   5.464   3.675
 1963WAT      O 6130   6.306   2.272   4.226
 1963WAT     H1 6131   6.381   2.316   4.276
 1963WAT     H2 6132   6.328   2.268   4.129
 1964WAT      O 6133   8.226   1.383   9.114
 1964WAT     H1 6134   8.258   1.301   9.163
 1964WAT     H2 6135   8.189   1.357   9.026
 1965WAT      O 6136   3.682   3.069   6.227
 1965WAT     H1 6137   3.776   3.048   6.197
 1965WAT     H2 6138   3.678   3.067   6.327
 1966WAT      O 6139   2.608   6.622   9.299
 1966WAT     H1 6140   2.534   6.567   9.260
 1966WAT     H2 6141   2.578   6.717   9.306
 1967WAT      O 6142   1.028   6.585   8.389
 1967WAT     H1 6143   0.961   6.566   8.461
 1967WAT     H2 6144   1.078   6.501   8.368
 1968WAT      O 6145   3.625   3.987   0.367
 1968WAT     H1 6146   3.582   3.903   0.401
 1968WAT     H2 6147   3.562   4.036   0.308
 1969WAT      O 6148   9.106   0.463   3.977
 1969WAT     H1 6149   9.165   0.412   4.040
 1969WAT     H2 6150   9.159   0.537   3.935
 1970WAT      O 6151   8.304   5.015   9.364
 1970WAT     H1 6152   8.308   5.111   9.392
 1970WAT     H2 6153   8.391   4.970   9.385
 1971WAT      O 6154   1.030   0.639   1.342
 1971WAT     H1 6155   1.041   0.633   1.441
 1971WAT     H2 6156   1.107   0.689   1.303
 1972WAT      O 6157   1.131   0.506   3.217
 1972WAT     H1 6158   1.190   0.554   3.283
 1972WAT     H2 6159   1.062   0.454   3.267
 1973WAT      O 6160   8.404   2.217   7.384
 1973WAT     H1 6161   8.451   2.230   7.297
 1973WAT     H2 6162   8.432   2.130   7.424
 1974WAT      O 6163   5.875   3.478   3.586
 1974WAT     H1 6164   5.857   3.402   3.524
 1974WAT     H2 6165   5.950   3.455   3.648
 1975WAT      O 6166   7.583   7.255   3.579
 1975WAT     H1 6167   7.670   7.299   3.599
 1975WAT     H2 6168   7.588   7.158   3.603
 1976WAT      O 6169   8.929   4.031   8.433
 1976WAT     H1 6170   8.963   4.117   8.472
 1976WAT     H2 6171   8.885   4.050   8.345
 1977WAT      O 6172   3.276   5.813   3.762
 1977WAT     H1 6173   3.211   5.889   3.772
 1977WAT     H2 6174   3.355   5.829   3.820
 1978WAT      O 6175   9.592   4.176   4.724
 1978WAT     H1 6176   9.635   4.243   4.785
 1978WAT     H2 6177   9.646   4.168   4.640
 1979WAT      O 6178   8.009   9.789   0.345
 1979WAT     H1 6179   8.033   9.825   0.255
 1979WAT     H2 6180   8.087   9.797   0.406
 1980WAT      O 6181   7.216   8.928   6.583
 1980WAT     H1 6182   7.248   9.014   6.624
 1980WAT     H2 6183   7.117   8.934   6.568
 1981WAT      O 6184   3.709   9.773   6.305
 1981WAT     H1 6185   3.665   9.683   6.300
 1981WAT     H2 6186   3.655   9.834   6.362
 1982WAT      O 6187   5.657   7.609   6.902
 1982WAT     H1 6188   5.726   7.562   6.957
 1982WAT     H2 6189   5.605   7.672   6.959
 1983WAT      O 6190   0.266   0.698   0.740
 1983WAT     H1 6191   0.276   0.794   0.713
 1983WAT     H2 6192   0.289   0.639   0.663
 1984WAT      O 6193   9.069   3.721   1.830
 1984WAT     H1 6194   8.999   3.789   1.806
 1984WAT     H2 6195   9.026   3.643   1.875
 1985WAT      O 6196   6.512   6.390   3.300
 1985WAT     H1 6197   6.452   6.428   3.370
 1985WAT     H2 6198   6.482   6.297   3.277
 1986WAT      O 6199   1.082   0.996   3.545
 1986WAT     H1 6200   1.133   0.978   3.629
 1986WAT     H2 6201   1.146   1.023   3.472
 1987WAT      O 6202   0.049   5.329   2.517
 1987WAT     H1 6203  -0.033   5.386   2.523
 1987WAT     H2 6204   0.130   5.385   2.533
 1988WAT      O 6205   5.021   0.122   8.567
 1988WAT     H1 6206   5.109   0.093   8.605
 1988WAT     H2 6207   4.971   0.175   8.636
 1989WAT      O 6208   8.761   8.280   5.213
 1989WAT     H1 6209   8.714   8.329   5.139
 1989WAT     H2 6210   8.827   8.216   5.174
 1990WAT      O 6211   0.540   7.449   4.892
 1990WAT     H1 6212   0.581   7.406   4.812
 1990WAT     H2 6213   0.492   7.381   4.947
 1991WAT      O 6214   1.603   6.203   3.058
 1991WAT     H1 6215   1.680   6.145   3.082
 1991WAT     H2 6216   1.521   6.147   3.044
 1992WAT      O 6217   6.456   4.428   8.412
 1992WAT     H1 6218   6.543   4.445   8.366
 1992WAT     H2 6219   6.383   4.422   8.343
 1993WAT      O 6220   1.478   7.055   3.404
 1993WAT     H1 6221   1.499   7.136   3.349
 1993WAT     H2 6222   1.466   7.083   3.500
 1994WAT      O 6223   4.087   2.575   7.059
 1994WAT     H1 6224   4.025   2.604   7.132
 1994WAT     H2 6225   4.129   2.655   7.017
 1995WAT      O 6226   2.943   7.908   6.548
 1995WAT     H1 6227   2.908   7.903   6.641
 1995WAT     H2 6228   2.880   7.961   6.491
 1996WAT      O 6229   1.912   2.839   4.020
 1996WAT     H1 6230   1.887   2.743   4.031
 1996WAT     H2 6231   1.906   2.886   4.108
 1997WAT      O 6232   2.926   4.006   0.278
 1997WAT     H1 6233   2.869   4.018   0.196
 1997WAT     H2 6234   2.889   4.062   0.352
 1998WAT      O 6235   8.044   1.322   5.569
 1998WAT     H1 6236   8.077   1.293   5.659
 1998WAT     H2 6237   8.099   1.399   5.537
 1999WAT      O 6238   6.061   3.223   8.234
 1999WAT     H1 6239   6.094   3.281   8.308
 1999WAT     H2 6240   6.125   3.147   8.221
 2000WAT      O 6241   7.225   3.980   4.479
 2000WAT     H1 6242   7.243   3.886   4.509
 2000WAT     H2 6243   7.167   3.979   4.398
 2001WAT      O 6244   3.173   3.825   4.252
 2001WAT     H1 6245   3.146   3.812   4.157
 2001WAT     H2 6246   3.166   3.738   4.301
 2002WAT      O 6247   8.410   5.189   0.343
 2002WAT     H1 6248   8.466   5.117   0.384
 2002WAT     H2 6249   8.396   5.170   0.246
 2003WAT      O 6250   3.221   3.730   2.416
 2003WAT     H1 6251   3.193   3.818   2.453
 2003WAT     H2 6252   3.267   3.744   2.328
 2004WAT      O 6253   9.751   0.309   6.615
 2004WAT     H1 6254   9.790   0.241   6.553
 2004WAT     H2 6255   9.700   0.263   6.688
 2005WAT      O 6256   6.865   2.628   6.371
 2005WAT     H1 6257   6.946   2.682   6.395
 2005WAT     H2 6258   6.868   2.604   6.274
 2006WAT      O 6259   1.014   7.573   9.411
 2006WAT     H1 6260   0.968   7.611   9.491
 2006WAT     H2 6261   0.950   7.516   9.360
 2007WAT      O 6262   6.663   4.832   5.662
 2007WAT     H1 6263   6.578   4.780   5.657
 2007WAT     H2 6264   6.733   4.776   5.706
 2008WAT      O 6265   9.192   9.564   9.081
 2008WAT     H1 6266   9.105   9.523   9.108
 2008WAT     H2 6267   9.230   9.515   9.002
 2009WAT      O 6268   5.652   3.211   4.446
 2009WAT     H1 6269   5.596   3.190   4.366
 2009WAT     H2 6270   5.746   3.229   4.418
 2010WAT      O 6271   3.256   6.608   2.854
 2010WAT     H1 6272   3.272   6.689   2.912
 2010WAT     H2 6273   3.238   6.637   2.761
 2011WAT      O 6274   3.673   6.257   1.488
 2011WAT     H1 6275   3.695   6.354   1.494
 2011WAT     H2 6276   3.595   6.243   1.427
 2012WAT      O 6277   1.730   9.343   4.029
 2012WAT     H1 6278   1.751   9.400   4.109
 2012WAT     H2 6279   1.729   9.400   3.947
 2013WAT      O 6280   6.133   7.900   5.359
 2013WAT     H1 6281   6.104   7.827   5.420
 2013WAT     H2 6282   6.223   7.879   5.322
 2014WAT      O 6283   8.829   5.321   1.073
 2014WAT     H1 6284   8.885   5.318   1.156
 2014WAT     H2 6285   8.840   5.410   1.029
 2015WAT      O 6286   8.905   7.572   6.477
 2015WAT     H1 6287   8.941   7.639   6.542
 2015WAT     H2 6288   8.910   7.481   6.518
 2016WAT      O 6289   0.527   3.086   3.354
 2016WAT     H1 6290   0.560   3.002   3.397
 2016WAT     H2 6291   0.588   3.161   3.378
 2017WAT      O 6292   5.545   1.619   1.916
 2017WAT     H1 6293   5.508   1.526   1.920
 2017WAT     H2 6294   5.543   1.651   1.821
 2018WAT      O 6295   8.056   3.885   6.809
 2018WAT     H1 6296   8.138   3.925   6.766
 2018WAT     H2 6297   8.065   3.785   6.810
 2019WAT      O 6298   6.688   5.099   6.035
 2019WAT     H1 6299   6.777   5.130   6.001
 2019WAT     H2 6300   6.664   5.150   6.118
 2020WAT      O 6301   5.417   6.512   4.214
 2020WAT     H1 6302   5.440   6.573   4.138
 2020WAT     H2 6303   5.435   6.418   4.188
 2021WAT      O 6304   0.945   1.106   9.852
 2021WAT     H1 6305   0.852   1.092   9.818
 2021WAT     H2 6306   0.974   1.199   9.832
 2022WAT      O 6307   7.730   2.932   6.346
 2022WAT     H1 6308   7.828   2.919   6.330
 2022WAT     H2 6309   7.684   2.947   6.259
 2023WAT      O 6310   7.414   2.838   2.695
 2023WAT     H1 6311   7.438   2.909   2.628
 2023WAT     H2 6312   7.476   2.760   2.684
 2024WAT      O 6313   1.072   8.928   3.771
 2024WAT     H1 6314   1.092   8.838   3.733
 2024WAT     H2 6315   1.143   8.954   3.836
 2025WAT      O 6316   3.290   1.046   4.131
 2025WAT     H1 6317   3.378   0.999   4.140
 2025WAT     H2 6318   3.218   0.993   4.175
 2026WAT      O 6319   6.780   6.283   7.843
 2026WAT     H1 6320   6.797   6.327   7.931
 2026WAT     H2 6321   6.861   6.294   7.784
 2027WAT      O 6322   6.339   0.185   8.922
 2027WAT     H1 6323   6.331   0.230   8.833
 2027WAT     H2 6324   6.256   0.134   8.942
 2028WAT      O 6325   2.672   1.225   7.962
 2028WAT     H1 6326   2.657   1.323   7.945
 2028WAT     H2 6327   2.633   1.173   7.886
 2029WAT      O 6328   5.275   6.910   3.069
 2029WAT     H1 6329   5.336   6.966   3.011
 2029WAT     H2 6330   5.239   6.967   3.143
 2030WAT      O 6331   0.275   3.479   2.560
 2030WAT     H1 6332   0.328   3.431   2.490
 2030WAT     H2 6333   0.321   3.564   2.585
 2031WAT      O 6334   1.763   3.787   0.677
 2031WAT     H1 6335   1.664   3.786   0.685
 2031WAT     H2 6336   1.795   3.882   0.666
 2032WAT      O 6337   4.127   9.088   9.157
 2032WAT     H1 6338   4.222   9.060   9.171
 2032WAT     H2 6339   4.085   9.106   9.246
 2033WAT      O 6340   5.764   3.385   1.189
 2033WAT     H1 6341   5.720   3.345   1.109
 2033WAT     H2 6342   5.695   3.407   1.258
 2034WAT      O 6343   7.628   0.126   8.765
 2034WAT     H1 6344   7.615   0.192   8.838
 2034WAT     H2 6345   7.701   0.062   8.791
 2035WAT      O 6346   5.682   8.736   5.642
 2035WAT     H1 6347   5.637   8.795   5.574
 2035WAT     H2 6348   5.623   8.658   5.663
 2036WAT      O 6349   3.910   0.027   7.556
 2036WAT     H1 6350   3.950   0.119   7.556
 2036WAT     H2 6351   3.982  -0.041   7.568
 2037WAT      O 6352   1.535   8.135   3.423
 2037WAT     H1 6353   1.574   8.150   3.333
 2037WAT     H2 6354   1.466   8.205   3.442
 2038WAT      O 6355   9.108   6.969   0.878
 2038WAT     H1 6356   9.070   6.879   0.855
 2038WAT     H2 6357   9.208   6.963   0.881
 2039WAT      O 6358   4.706   9.111   2.418
 2039WAT     H1 6359   4.754   9.102   2.331
 2039WAT     H2 6360   4.752   9.055   2.488
 2040WAT      O 6361   2.944   2.352   3.722
 2040WAT     H1 6362   2.961   2.342   3.821
 2040WAT     H2 6363   2.854   2.316   3.700
 2041WAT      O 6364   2.374   6.508   2.030
 2041WAT     H1 6365   2.382   6.421   1.981
 2041WAT     H2 6366   2.295   6.504   2.091
 2042WAT      O 6367   3.572   2.424   0.441
 2042WAT     H1 6368   3.497   2.478   0.481
 2042WAT     H2 6369   3.629   2.388   0.515
 2043WAT      O 6370   2.761   1.257   4.371
 2043WAT     H1 6371   2.676   1.216   4.337
 2043WAT     H2 6372   2.795   1.323   4.303
 2044WAT      O 6373   4.211   8.027   6.609
 2044WAT     H1 6374   4.167   7.955   6.663
 2044WAT     H2 6375   4.279   8.073   6.665
 2045WAT      O 6376   7.308   1.420   9.140
 2045WAT     H1 6377   7.275   1.440   9.233
 2045WAT     H2 6378   7.398   1.461   9.128
 2046WAT      O 6379   2.810   2.608   8.995
 2046WAT     H1 6380   2.809   2.700   9.035
 2046WAT     H2 6381   2.901   2.588   8.960
 2047WAT      O 6382   3.273   4.210   1.621
 2047WAT     H1 6383   3.345   4.159   1.668
 2047WAT     H2 6384   3.186   4.194   1.666
 2048WAT      O 6385   0.431   1.965   9.745
 2048WAT     H1 6386   0.389   1.875   9.755
 2048WAT     H2 6387   0.370   2.034   9.785
 2049WAT      O 6388   6.304   0.527   4.313
 2049WAT     H1 6389   6.209   0.559   4.308
 2049WAT     H2 6390   6.306   0.427   4.302
 2050WAT      O 6391   9.506   5.015   1.506
 2050WAT     H1 6392   9.407   5.006   1.519
 2050WAT     H2 6393   9.534   5.108   1.529
 2051WAT      O 6394   4.118   5.513   9.890
 2051WAT     H1 6395   4.080   5.603   9.912
 2051WAT     H2 6396   4.044   5.450   9.865
 2052WAT      O 6397   1.213   1.892   8.530
 2052WAT     H1 6398   1.137   1.943   8.489
 2052WAT     H2 6399   1.193   1.794   8.524
 2053WAT      O 6400   3.637   9.646   5.946
 2053WAT     H1 6401   3.696   9.570   5.973
 2053WAT     H2 6402   3.674   9.689   5.863
 2054WAT      O 6403   2.992   6.740   3.193
 2054WAT     H1 6404   2.893   6.741   3.204
 2054WAT     H2 6405   3.022   6.826   3.151
 2055WAT      O 6406   6.501   9.436   8.761
 2055WAT     H1 6407   6.573   9.424   8.829
 2055WAT     H2 6408   6.535   9.406   8.671
 2056WAT      O 6409   6.277   7.321   6.604
 2056WAT     H1 6410   6.363   7.351   6.564
 2056WAT     H2 6411   6.293   7.291   6.698
 2057WAT      O 6412   1.765   5.708   5.228
 2057WAT     H1 6413   1.760   5.753   5.317
 2057WAT     H2 6414   1.860   5.688   5.205
 2058WAT      O 6415   5.578   5.420   7.138
 2058WAT     H1 6416   5.529   5.504   7.163
 2058WAT     H2 6417   5.614   5.377   7.221
 2059WAT      O 6418   4.278   5.658   2.684
 2059WAT     H1 6419   4.242   5.575   2.726
 2059WAT     H2 6420   4.273   5.733   2.750
 2060WAT      O 6421   3.983   9.097   4.927
 2060WAT     H1 6422   4.067   9.102   4.872
 2060WAT     H2 6423   3.986   9.166   4.999
 2061WAT      O 6424   2.824   1.309   9.557
 2061WAT     H1 6425   2.864   1.401   9.563
 2061WAT     H2 6426   2.727   1.314   9.582
 2062WAT      O 6427   4.764   3.337   2.423
 2062WAT     H1 6428   4.743   3.430   2.394
 2062WAT     H2 6429   4.811   3.289   2.349
 2063WAT      O 6430   6.848   7.808   5.427
 2063WAT     H1 6431   6.883   7.751   5.501
 2063WAT     H2 6432   6.791   7.752   5.367
 2064WAT      O 6433   7.396   9.219   4.766
 2064WAT     H1 6434   7.395   9.213   4.666
 2064WAT     H2 6435   7.393   9.127   4.805
 2065WAT      O 6436   9.130   1.397   8.768
 2065WAT     H1 6437   9.096   1.427   8.679
 2065WAT     H2 6438   9.099   1.461   8.839
 2066WAT      O 6439   1.252   8.116   4.265
 2066WAT     H1 6440   1.304   8.175   4.203
 2066WAT     H2 6441   1.169   8.164   4.295
 2067WAT      O 6442   9.191   5.205   7.230
 2067WAT     H1 6443   9.163   5.165   7.142
 2067WAT     H2 6444   9.128   5.175   7.302
 2068WAT      O 6445   3.656   6.050   1.022
 2068WAT     H1 6446   3.615   6.139   1.001
 2068WAT     H2 6447   3.721   6.061   1.098
 2069WAT      O 6448   8.701   5.969   3.553
 2069WAT     H1 6449   8.609   6.002   3.576
 2069WAT     H2 6450   8.769   6.035   3.585
 2070WAT      O 6451   7.163   2.461   6.502
 2070WAT     H1 6452   7.103   2.383   6.485
 2070WAT     H2 6453   7.225   2.474   6.425
 2071WAT      O 6454   5.067   6.753   0.207
 2071WAT     H1 6455   4.994   6.800   0.158
 2071WAT     H2 6456   5.033   6.722   0.295
 2072WAT      O 6457   4.479   7.112   9.118
 2072WAT     H1 6458   4.381   7.132   9.114
 2072WAT     H2 6459   4.532   7.196   9.103
 2073WAT      O 6460   8.709   6.078   8.100
 2073WAT     H1 6461   8.700   6.167   8.145
 2073WAT     H2 6462   8.619   6.036   8.090
 2074WAT      O 6463   1.464   4.470   9.692
 2074WAT     H1 6464   1.370   4.458   9.725
 2074WAT     H2 6465   1.512   4.383   9.699
 2075WAT      O 6466   3.899   4.478   4.136
 2075WAT     H1 6467   3.960   4.416   4.186
 2075WAT     H2 6468   3.810   4.435   4.125
 2076WAT      O 6469   6.522   5.552   7.294
 2076WAT     H1 6470   6.519   5.588   7.201
 2076WAT     H2 6471   6.538   5.453   7.291
 2077WAT      O 6472   3.710   0.618   3.537
 2077WAT     H1 6473   3.652   0.543   3.570
 2077WAT     H2 6474   3.667   0.660   3.457
 2078WAT      O 6475   6.066   6.515   1.322
 2078WAT     H1 6476   6.072   6.514   1.222
 2078WAT     H2 6477   6.010   6.592   1.351
 2079WAT      O 6478   6.733   3.499   8.540
 2079WAT     H1 6479   6.647   3.543   8.516
 2079WAT     H2 6480   6.716   3.431   8.612
 2080WAT      O 6481   5.727   8.870   1.420
 2080WAT     H1 6482   5.666   8.854   1.498
 2080WAT     H2 6483   5.752   8.783   1.378
 2081WAT      O 6484   0.277   0.181   5.296
 2081WAT     H1 6485   0.214   0.107   5.319
 2081WAT     H2 6486   0.256   0.215   5.204
 2082WAT      O 6487   8.792   0.059   0.698
 2082WAT     H1 6488   8.875   0.115   0.691
 2082WAT     H2 6489   8.753   0.068   0.790
 2083WAT      O 6490   2.920   1.444   7.359
 2083WAT     H1 6491   3.015   1.412   7.358
 2083WAT     H2 6492   2.905   1.501   7.440
 2084WAT      O 6493   5.480   1.957   2.681
 2084WAT     H1 6494   5.435   1.935   2.595
 2084WAT     H2 6495   5.547   2.030   2.666
 2085WAT      O 6496   1.279   0.827   3.823
 2085WAT     H1 6497   1.205   0.759   3.823
 2085WAT     H2 6498   1.259   0.897   3.892
 2086WAT      O 6499   0.010   2.392   8.275
 2086WAT     H1 6500  -0.002   2.487   8.245
 2086WAT     H2 6501  -0.052   2.373   8.351
 2087WAT      O 6502   7.424   7.227   2.909
 2087WAT     H1 6503   7.355   7.276   2.855
 2087WAT     H2 6504   7.444   7.139   2.865
 2088WAT      O 6505   8.384   1.687   4.562
 2088WAT     H1 6506   8.330   1.755   4.515
 2088WAT     H2 6507   8.360   1.595   4.529
 2089WAT      O 6508   0.836   2.755   1.671
 2089WAT     H1 6509   0.934   2.777   1.670
 2089WAT     H2 6510   0.824   2.659   1.693
 2090WAT      O 6511   5.614   5.033   7.429
 2090WAT     H1 6512   5.527   4.998   7.394
 2090WAT     H2 6513   5.638   4.985   7.514
 2091WAT      O 6514   9.496   5.176   0.971
 2091WAT     H1 6515   9.475   5.209   0.879
 2091WAT     H2 6516   9.472   5.246   1.038
 2092WAT      O 6517   6.831   0.796   4.642
 2092WAT     H1 6518   6.911   0.842   4.604
 2092WAT     H2 6519   6.808   0.837   4.731
 2093WAT      O 6520   2.949   1.367   2.324
 2093WAT     H1 6521   2.990   1.446   2.368
 2093WAT     H2 6522   2.946   1.290   2.388
 2094WAT      O 6523   2.054   3.668   1.974
 2094WAT     H1 6524   2.073   3.753   2.023
 2094WAT     H2 6525   2.116   3.659   1.896
 2095WAT      O 6526   9.353   2.664   0.556
 2095WAT     H1 6527   9.342   2.755   0.595
 2095WAT     H2 6528   9.304   2.659   0.469
 2096WAT      O 6529   3.923   1.026   0.821
 2096WAT     H1 6530   3.903   1.064   0.731
 2096WAT     H2 6531   3.985   1.088   0.870
 2097WAT      O 6532   2.448   3.888   5.775
 2097WAT     H1 6533   2.371   3.838   5.814
 2097WAT     H2 6534   2.467   3.853   5.683
 2098WAT      O 6535   0.752   5.483   3.356
 2098WAT     H1 6536   0.821   5.450   3.421
 2098WAT     H2 6537   0.795   5.499   3.267
 2099WAT      O 6538   8.488   2.846   8.595
 2099WAT     H1 6539   8.527   2.764   8.552
 2099WAT     H2 6540   8.477   2.917   8.525
 2100WAT      O 6541   8.188   4.166   6.276
 2100WAT     H1 6542   8.108   4.117   6.311
 2100WAT     H2 6543   8.267   4.104   6.272
 2101WAT      O 6544   7.318   2.260   9.827
 2101WAT     H1 6545   7.310   2.278   9.925
 2101WAT     H2 6546   7.312   2.161   9.810
 2102WAT      O 6547   5.810   8.764   2.064
 2102WAT     H1 6548   5.791   8.666   2.060
 2102WAT     H2 6549   5.864   8.784   2.146
 2103WAT      O 6550   3.612   8.480   1.721
 2103WAT     H1 6551   3.518   8.511   1.706
 2103WAT     H2 6552   3.641   8.507   1.813
 2104WAT      O 6553   1.774   6.096   3.669
 2104WAT     H1 6554   1.709   6.128   3.738
 2104WAT     H2 6555   1.827   6.019   3.706
 2105WAT      O 6556   9.544   7.657   3.093
 2105WAT     H1 6557   9.500   7.568   3.082
 2105WAT     H2 6558   9.556   7.677   3.190
 2106WAT      O 6559   3.576   4.663   0.930
 2106WAT     H1 6560   3.492   4.689   0.978
 2106WAT     H2 6561   3.559   4.664   0.831
 2107WAT      O 6562   7.483   1.609   7.461
 2107WAT     H1 6563   7.497   1.683   7.526
 2107WAT     H2 6564   7.385   1.588   7.454
 2108WAT      O 6565   1.438   5.135   4.855
 2108WAT     H1 6566   1.511   5.068   4.864
 2108WAT     H2 6567   1.471   5.216   4.806
 2109WAT      O 6568   8.503   6.377   5.357
 2109WAT     H1 6569   8.563   6.450   5.389
 2109WAT     H2 6570   8.417   6.379   5.408
 2110WAT      O 6571   9.480   7.232   5.030
 2110WAT     H1 6572   9.393   7.252   5.075
 2110WAT     H2 6573   9.499   7.134   5.038
 2111WAT      O 6574   3.574   9.255   9.816
 2111WAT     H1 6575   3.578   9.180   9.882
 2111WAT     H2 6576   3.503   9.319   9.844
 2112WAT      O 6577   5.375   4.480   1.574
 2112WAT     H1 6578   5.373   4.579   1.563
 2112WAT     H2 6579   5.346   4.436   1.488
 2113WAT      O 6580   8.994   3.444   7.109
 2113WAT     H1 6581   8.981   3.526   7.165
 2113WAT     H2 6582   8.979   3.467   7.012
 2114WAT      O 6583   0.237   3.869   1.912
 2114WAT     H1 6584   0.320   3.925   1.910
 2114WAT     H2 6585   0.163   3.919   1.957
 2115WAT      O 6586   2.649   7.642   6.821
 2115WAT     H1 6587   2.578   7.613   6.756
 2115WAT     H2 6588   2.698   7.562   6.855
 2116WAT      O 6589   6.194   3.319   6.047
 2116WAT     H1 6590   6.205   3.360   5.956
 2116WAT     H2 6591   6.274   3.262   6.067
 2117WAT      O 6592   2.637   9.161   4.318
 2117WAT     H1 6593   2.730   9.146   4.351
 2117WAT     H2 6594   2.573   9.146   4.393
 2118WAT      O 6595   1.530   4.121   1.893
 2118WAT     H1 6596   1.527   4.221   1.891
 2118WAT     H2 6597   1.458   4.085   1.834
 2119WAT      O 6598   7.072   7.681   2.567
 2119WAT     H1 6599   7.034   7.754   2.509
 2119WAT     H2 6600   7.165   7.661   2.538
 2120WAT      O 6601   1.287   5.506   0.988
 2120WAT     H1 6602   1.229   5.522   1.068
 2120WAT     H2 6603   1.378   5.478   1.018
 2121WAT      O 6604   8.308   4.423   4.024
 2121WAT     H1 6605   8.407   4.407   4.021
 2121WAT     H2 6606   8.260   4.343   3.989
 2122WAT      O 6607   2.402   9.537   1.794
 2122WAT     H1 6608   2.360   9.500   1.877
 2122WAT     H2 6609   2.465   9.469   1.756
 2123WAT      O 6610   8.672   4.910   6.980
 2123WAT     H1 6611   8.637   5.003   6.992
 2123WAT     H2 6612   8.735   4.907   6.903
 2124WAT      O 6613   3.045   4.080   8.456
 2124WAT     H1 6614   3.014   4.057   8.363
 2124WAT     H2 6615   3.144   4.078   8.459
 2125WAT      O 6616   9.349   7.488   4.123
 2125WAT     H1 6617   9.352   7.395   4.087
 2125WAT     H2 6618   9.262   7.531   4.099
 2126WAT      O 6619   0.546   1.855   1.981
 2126WAT     H1 6620   0.640   1.824   1.968
 2126WAT     H2 6621   0.494   1.840   1.898
 2127WAT      O 6622   6.902   0.761   1.645
 2127WAT     H1 6623   6.810   0.784   1.615
 2127WAT     H2 6624   6.968   0.785   1.574
 2128WAT      O 6625   1.412   1.217   1.742
 2128WAT     H1 6626   1.427   1.119   1.731
 2128WAT     H2 6627   1.462   1.266   1.670
 2129WAT      O 6628   3.251   1.669   0.425
 2129WAT     H1 6629   3.269   1.762   0.458
 2129WAT     H2 6630   3.161   1.639   0.458
 2130WAT      O 6631   3.964   5.204   2.500
 2130WAT     H1 6632   3.911   5.257   2.433
 2130WAT     H2 6633   4.036   5.262   2.538
 2131WAT      O 6634   3.430   6.406   1.228
 2131WAT     H1 6635   3.411   6.308   1.215
 2131WAT     H2 6636   3.528   6.421   1.226
 2132WAT      O 6637   7.559   6.915   1.594
 2132WAT     H1 6638   7.645   6.966   1.584
 2132WAT     H2 6639   7.545   6.893   1.691
 2133WAT      O 6640   9.747   2.064   6.885
 2133WAT     H1 6641   9.750   2.038   6.788
 2133WAT     H2 6642   9.805   2.144   6.900
 2134WAT      O 6643   3.323   1.630   5.567
 2134WAT     H1 6644   3.406   1.618   5.621
 2134WAT     H2 6645   3.255   1.682   5.621
 2135WAT      O 6646   1.826   6.023   6.848
 2135WAT     H1 6647   1.764   6.065   6.915
 2135WAT     H2 6648   1.906   5.987   6.895
 2136WAT      O 6649   1.807   6.131   7.705
 2136WAT     H1 6650   1.804   6.066   7.629
 2136WAT     H2 6651   1.805   6.081   7.791
 2137WAT      O 6652   3.641   7.303   7.563
 2137WAT     H1 6653   3.734   7.293   7.599
 2137WAT     H2 6654   3.592   7.372   7.616
 2138WAT      O 6655   2.891   6.746   8.359
 2138WAT     H1 6656   2.814   6.718   8.417
 2138WAT     H2 6657   2.857   6.793   8.278
 2139WAT      O 6658   2.754   1.973   6.982
 2139WAT     H1 6659   2.744   1.982   7.081
 2139WAT     H2 6660   2.697   1.898   6.949
 2140WAT      O 6661   1.885   0.756   3.050
 2140WAT     H1 6662   1.951   0.682   3.037
 2140WAT     H2 6663   1.813   0.749   2.982
 2141WAT      O 6664   7.044   4.212   9.854
 2141WAT     H1 6665   7.108   4.156   9.801
 2141WAT     H2 6666   7.027   4.169   9.942
 2142WAT      O 6667   8.609   8.832   5.614
 2142WAT     H1 6668   8.549   8.770   5.664
 2142WAT     H2 6669   8.631   8.792   5.525
 2143WAT      O 6670   4.909   7.395   9.532
 2143WAT     H1 6671   4.991   7.425   9.483
 2143WAT     H2 6672   4.935   7.345   9.614
 2144WAT      O 6673   7.264   6.667   4.155
 2144WAT     H1 6674   7.258   6.642   4.251
 2144WAT     H2 6675   7.177   6.706   4.124
 2145WAT      O 6676   9.343   4.121   0.345
 2145WAT     H1 6677   9.334   4.093   0.441
 2145WAT     H2 6678   9.337   4.041   0.286
 2146WAT      O 6679   2.319   7.627   8.545
 2146WAT     H1 6680   2.407   7.644   8.590
 2146WAT     H2 6681   2.245   7.633   8.612
 2147WAT      O 6682   1.362   1.558   0.544
 2147WAT     H1 6683   1.429   1.630   0.563
 2147WAT     H2 6684   1.297   1.591   0.476
 2148WAT      O 6685   5.280   2.429   5.634
 2148WAT     H1 6686   5.230   2.513   5.614
 2148WAT     H2 6687   5.364   2.450   5.684
 2149WAT      O 6688   0.128   0.484   6.959
 2149WAT     H1 6689   0.133   0.576   6.999
 2149WAT     H2 6690   0.038   0.445   6.977
 2150WAT      O 6691   6.012   0.839   1.336
 2150WAT     H1 6692   5.987   0.907   1.404
 2150WAT     H2 6693   6.096   0.868   1.290
 2151WAT      O 6694   8.405   3.011   7.321
 2151WAT     H1 6695   8.408   2.931   7.261
 2151WAT     H2 6696   8.498   3.048   7.331
 2152WAT      O 6697   6.694   6.711   9.328
 2152WAT     H1 6698   6.664   6.635   9.385
 2152WAT     H2 6699   6.720   6.789   9.385
 2153WAT      O 6700   8.916   5.681   7.945
 2153WAT     H1 6701   8.838   5.639   7.990
 2153WAT     H2 6702   8.900   5.779   7.934
 2154WAT      O 6703   7.097   8.988   8.177
 2154WAT     H1 6704   7.079   8.891   8.194
 2154WAT     H2 6705   7.028   9.025   8.115
 2155WAT      O 6706   6.978   7.936   4.811
 2155WAT     H1 6707   6.892   7.960   4.766
 2155WAT     H2 6708   7.010   7.847   4.778
 2156WAT      O 6709   2.018   3.473   2.348
 2156WAT     H1 6710   2.003   3.489   2.445
 2156WAT     H2 6711   2.097   3.525   2.317
 2157WAT      O 6712   2.943   1.009   6.468
 2157WAT     H1 6713   2.877   0.938   6.444
 2157WAT     H2 6714   3.033   0.968   6.481
 2158WAT      O 6715   5.359   0.656   0.333
 2158WAT     H1 6716   5.293   0.598   0.380
 2158WAT     H2 6717   5.410   0.602   0.267
 2159WAT      O 6718   6.506   8.379   1.706
 2159WAT     H1 6719   6.517   8.477   1.728
 2159WAT     H2 6720   6.591   8.344   1.667
 2160WAT      O 6721   8.645   3.152   1.487
 2160WAT     H1 6722   8.656   3.128   1.390
 2160WAT     H2 6723   8.715   3.218   1.514
 2161WAT      O 6724   0.762   2.214   4.021
 2161WAT     H1 6725   0.686   2.148   4.024
 2161WAT     H2 6726   0.790   2.227   3.926
 2162WAT      O 6727   3.088   8.000   5.034
 2162WAT     H1 6728   3.134   7.918   5.068
 2162WAT     H2 6729   3.140   8.081   5.059
 2163WAT      O 6730   9.418   5.889   7.444
 2163WAT     H1 6731   9.411   5.976   7.492
 2163WAT     H2 6732   9.374   5.817   7.498
 2164WAT      O 6733   3.778   8.139   6.110
 2164WAT     H1 6734   3.714   8.198   6.061
 2164WAT     H2 6735   3.728   8.081   6.174
 2165WAT      O 6736   4.340   5.849   3.871
 2165WAT     H1 6737   4.322   5.784   3.797
 2165WAT     H2 6738   4.438   5.852   3.890
 2166WAT      O 6739   5.841   5.473   7.067
 2166WAT     H1 6740   5.865   5.556   7.119
 2166WAT     H2 6741   5.742   5.461   7.067
 2167WAT      O 6742   2.573   3.342   7.398
 2167WAT     H1 6743   2.477   3.334   7.427
 2167WAT     H2 6744   2.579   3.407   7.322
 2168WAT      O 6745   6.613   6.612   4.192
 2168WAT     H1 6746   6.712   6.606   4.180
 2168WAT     H2 6747   6.592   6.635   4.287
 2169WAT      O 6748   9.281   1.542   0.902
 2169WAT     H1 6749   9.337   1.614   0.860
 2169WAT     H2 6750   9.272   1.465   0.839
 2170WAT      O 6751   9.232   5.641   0.158
 2170WAT     H1 6752   9.228   5.659   0.256
 2170WAT     H2 6753   9.169   5.702   0.109
 2171WAT      O 6754   7.725   4.702   3.107
 2171WAT     H1 6755   7.678   4.767   3.048
 2171WAT     H2 6756   7.768   4.630   3.051
 2172WAT      O 6757   9.805   2.567   4.546
 2172WAT     H1 6758   9.857   2.619   4.479
 2172WAT     H2 6759   9.767   2.485   4.502
 2173WAT      O 6760   0.859   0.397   6.845
 2173WAT     H1 6761   0.862   0.489   6.885
 2173WAT     H2 6762   0.906   0.397   6.757
 2174WAT      O 6763   3.873   1.373   0.092
 2174WAT     H1 6764   3.940   1.423   0.037
 2174WAT     H2 6765   3.911   1.284   0.117
 2175WAT      O 6766   4.555   5.650   4.897
 2175WAT     H1 6767   4.533   5.692   4.810
 2175WAT     H2 6768   4.653   5.662   4.916
 2176WAT      O 6769   4.782   9.446   1.759
 2176WAT     H1 6770   4.849   9.518   1.775
 2176WAT     H2 6771   4.709   9.453   1.827
 2177WAT      O 6772   1.132   7.023   4.609
 2177WAT     H1 6773   1.125   6.989   4.515
 2177WAT     H2 6774   1.205   7.092   4.614
 2178WAT      O 6775   3.218   1.241   6.279
 2178WAT     H1 6776   3.143   1.227   6.215
 2178WAT     H2 6777   3.254   1.153   6.308
 2179WAT      O 6778   6.762   3.993   2.954
 2179WAT     H1 6779   6.712   4.077   2.976
 2179WAT     H2 6780   6.853   4.016   2.921
 2180WAT      O 6781   7.217   7.965   3.565
 2180WAT     H1 6782   7.314   7.954   3.587
 2180WAT     H2 6783   7.204   8.049   3.514
 2181WAT      O 6784   4.705   0.334   4.813
 2181WAT     H1 6785   4.783   0.367   4.867
 2181WAT     H2 6786   4.739   0.277   4.738
 2182WAT      O 6787   4.146   7.769   7.377
 2182WAT     H1 6788   4.224   7.731   7.426
 2182WAT     H2 6789   4.066   7.770   7.438
 2183WAT      O 6790   8.189   8.470   1.380
 2183WAT     H1 6791   8.286   8.447   1.378
 2183WAT     H2 6792   8.135   8.386   1.373
 2184WAT      O 6793   5.107   1.289   4.643
 2184WAT     H1 6794   5.040   1.249   4.581
 2184WAT     H2 6795   5.197   1.293   4.597
 2185WAT      O 6796   3.520   3.861   3.278
 2185WAT     H1 6797   3.474   3.815   3.203
 2185WAT     H2 6798   3.548   3.794   3.347
 2186WAT      O 6799   5.881   7.042   7.476
 2186WAT     H1 6800   5.949   7.080   7.413
 2186WAT     H2 6801   5.892   6.943   7.481
 2187WAT      O 6802   3.645   4.338   9.421
 2187WAT     H1 6803   3.710   4.399   9.376
 2187WAT     H2 6804   3.629   4.369   9.514
 2188WAT      O 6805   7.381   7.460   7.628
 2188WAT     H1 6806   7.287   7.477   7.599
 2188WAT     H2 6807   7.440   7.535   7.598
 2189WAT      O 6808   2.887   5.774   1.977
 2189WAT     H1 6809   2.802   5.806   2.019
 2189WAT     H2 6810   2.870   5.750   1.882
 2190WAT      O 6811   5.367   8.564   2.367
 2190WAT     H1 6812   5.388   8.476   2.324
 2190WAT     H2 6813   5.438   8.630   2.344
 2191WAT      O 6814   0.749   4.816   0.726
 2191WAT     H1 6815   0.841   4.800   0.761
 2191WAT     H2 6816   0.688   4.841   0.802
 2192WAT      O 6817   9.449   1.087   3.527
 2192WAT     H1 6818   9.490   1.178   3.530
 2192WAT     H2 6819   9.429   1.063   3.432
 2193WAT      O 6820   2.418   8.866   2.431
 2193WAT     H1 6821   2.412   8.844   2.528
 2193WAT     H2 6822   2.497   8.925   2.415
 2194WAT      O 6823   9.403   1.827   2.399
 2194WAT     H1 6824   9.455   1.805   2.481
 2194WAT     H2 6825   9.414   1.924   2.377
 2195WAT      O 6826   2.623   4.489   8.882
 2195WAT     H1 6827   2.583   4.539   8.959
 2195WAT     H2 6828   2.563   4.500   8.802
 2196WAT      O 6829   9.808   0.429   9.481
 2196WAT     H1 6830   9.886   0.408   9.541
 2196WAT     H2 6831   9.745   0.490   9.528
 2197WAT      O 6832   1.522   4.346   4.383
 2197WAT     H1 6833   1.490   4.392   4.465
 2197WAT     H2 6834   1.565   4.259   4.408
 2198WAT      O 6835   7.867   2.020   9.576
 2198WAT     H1 6836   7.779   2.007   9.622
 2198WAT     H2 6837   7.874   2.115   9.544
 2199WAT      O 6838   0.915   1.811   5.568
 2199WAT     H1 6839   0.820   1.841   5.559
 2199WAT     H2 6840   0.959   1.862   5.641
 2200WAT      O 6841   1.781   5.986   6.206
 2200WAT     H1 6842   1.852   5.975   6.136
 2200WAT     H2 6843   1.782   6.080   6.239
 2201WAT      O 6844   3.730   1.678   8.232
 2201WAT     H1 6845   3.679   1.685   8.317
 2201WAT     H2 6846   3.709   1.757   8.174
 2202WAT      O 6847   6.563   2.019   3.424
 2202WAT     H1 6848   6.626   1.954   3.466
 2202WAT     H2 6849   6.471   2.005   3.460
 2203WAT      O 6850   0.262   2.692   5.361
 2203WAT     H1 6851   0.271   2.727   5.268
 2203WAT     H2 6852   0.331   2.736   5.420
 2204WAT      O 6853   4.655   3.596   2.401
 2204WAT     H1 6854   4.671   3.691   2.372
 2204WAT     H2 6855   4.578   3.593   2.465
 2205WAT      O 6856   5.687   8.168   7.928
 2205WAT     H1 6857   5.659   8.105   7.856
 2205WAT     H2 6858   5.667   8.262   7.900
 2206WAT      O 6859   9.740   8.647   0.462
 2206WAT     H1 6860   9.721   8.737   0.502
 2206WAT     H2 6861   9.654   8.599   0.446
 2207WAT      O 6862   6.908   1.095   6.201
 2207WAT     H1 6863   6.882   1.186   6.234
 2207WAT     H2 6864   7.005   1.079   6.218
 2208WAT      O 6865   1.897   9.805   9.170
 2208WAT     H1 6866   1.958   9.850   9.235
 2208WAT     H2 6867   1.831   9.871   9.135
 2209WAT      O 6868   6.960   6.288   1.836
 2209WAT     H1 6869   7.009   6.266   1.921
 2209WAT     H2 6870   7.025   6.289   1.760
 2210WAT      O 6871   0.304   2.038   1.632
 2210WAT     H1 6872   0.215   2.063   1.595
 2210WAT     H2 6873   0.370   2.111   1.614
 2211WAT      O 6874   5.086   1.117   5.611
 2211WAT     H1 6875   5.081   1.204   5.563
 2211WAT     H2 6876   5.153   1.124   5.686
 2212WAT      O 6877   6.215   2.413   2.181
 2212WAT     H1 6878   6.262   2.494   2.146
 2212WAT     H2 6879   6.166   2.437   2.265
 2213WAT      O 6880   2.875   8.846   4.564
 2213WAT     H1 6881   2.876   8.917   4.493
 2213WAT     H2 6882   2.791   8.792   4.555
 2214WAT      O 6883   1.236   6.931   5.603
 2214WAT     H1 6884   1.308   6.940   5.534
 2214WAT     H2 6885   1.264   6.863   5.671
 2215WAT      O 6886   7.650   3.799   5.639
 2215WAT     H1 6887   7.589   3.806   5.718
 2215WAT     H2 6888   7.627   3.869   5.572
 2216WAT      O 6889   8.960   6.732   0.427
 2216WAT     H1 6890   8.902   6.709   0.348
 2216WAT     H2 6891   9.056   6.722   0.402
 2217WAT      O 6892   2.933   0.149   0.190
 2217WAT     H1 6893   2.919   0.244   0.215
 2217WAT     H2 6894   2.981   0.144   0.103
 2218WAT      O 6895   7.361   5.696   4.755
 2218WAT     H1 6896   7.459   5.712   4.763
 2218WAT     H2 6897   7.315   5.729   4.838
 2219WAT      O 6898   8.079   1.459   3.004
 2219WAT     H1 6899   8.022   1.442   3.085
 2219WAT     H2 6900   8.104   1.371   2.962
 2220WAT      O 6901   7.076   2.231   7.601
 2220WAT     H1 6902   7.130   2.174   7.539
 2220WAT     H2 6903   7.116   2.227   7.692
 2221WAT      O 6904   4.692   1.517   2.354
 2221WAT     H1 6905   4.781   1.549   2.320
 2221WAT     H2 6906   4.695   1.510   2.454
 2222WAT      O 6907   8.654   6.577   6.239
 2222WAT     H1 6908   8.740   6.580   6.189
 2222WAT     H2 6909   8.669   6.535   6.329
 2223WAT      O 6910   3.599   9.819   8.821
 2223WAT     H1 6911   3.672   9.776   8.874
 2223WAT     H2 6912   3.592   9.775   8.732
 2224WAT      O 6913   4.687   4.378   5.343
 2224WAT     H1 6914   4.587   4.389   5.342
 2224WAT     H2 6915   4.729   4.460   5.381
 2225WAT      O 6916   9.386   5.674   3.926
 2225WAT     H1 6917   9.355   5.598   3.868
 2225WAT     H2 6918   9.337   5.757   3.900
 2226WAT      O 6919   9.723   7.694   4.781
 2226WAT     H1 6920   9.626   7.702   4.805
 2226WAT     H2 6921   9.732   7.675   4.683
 2227WAT      O 6922   4.101   3.601   2.297
 2227WAT     H1 6923   4.099   3.504   2.320
 2227WAT     H2 6924   4.029   3.620   2.230
 2228WAT      O 6925   3.860   9.217   3.306
 2228WAT     H1 6926   3.857   9.161   3.389
 2228WAT     H2 6927   3.947   9.201   3.258
 2229WAT      O 6928   9.041   1.357   1.602
 2229WAT     H1 6929   8.949   1.340   1.567
 2229WAT     H2 6930   9.106   1.300   1.552
 2230WAT      O 6931   3.259   8.911   4.874
 2230WAT     H1 6932   3.229   8.871   4.787
 2230WAT     H2 6933   3.231   9.007   4.877
 2231WAT      O 6934   3.056   7.334   6.107
 2231WAT     H1 6935   3.022   7.412   6.054
 2231WAT     H2 6936   3.062   7.254   6.048
 2232WAT      O 6937   4.546   6.808   3.801
 2232WAT     H1 6938   4.598   6.809   3.716
 2232WAT     H2 6939   4.607   6.788   3.878
 2233WAT      O 6940   0.622   1.162   1.266
 2233WAT     H1 6941   0.585   1.252   1.244
 2233WAT     H2 6942   0.676   1.129   1.188
 2234WAT      O 6943   1.652   8.141   6.944
 2234WAT     H1 6944   1.727   8.152   6.879
 2234WAT     H2 6945   1.623   8.046   6.946
 2235WAT      O 6946   7.292   9.263   5.915
 2235WAT     H1 6947   7.237   9.317   5.978
 2235WAT     H2 6948   7.389   9.276   5.936
 2236WAT      O 6949   7.190   2.260   9.116
 2236WAT     H1 6950   7.271   2.262   9.058
 2236WAT     H2 6951   7.140   2.175   9.099
 2237WAT      O 6952   9.031   3.351   2.315
 2237WAT     H1 6953   9.066   3.304   2.396
 2237WAT     H2 6954   8.952   3.407   2.341
 2238WAT      O 6955   1.409   2.824   5.389
 2238WAT     H1 6956   1.435   2.920   5.381
 2238WAT     H2 6957   1.444   2.773   5.310
 2239WAT      O 6958   5.581   2.421   6.424
 2239WAT     H1 6959   5.610   2.418   6.328
 2239WAT     H2 6960   5.494   2.471   6.431
 2240WAT      O 6961   7.947   8.417   0.328
 2240WAT     H1 6962   7.932   8.381   0.420
 2240WAT     H2 6963   7.958   8.341   0.264
 2241WAT      O 6964   9.162   4.115   5.936
 2241WAT     H1 6965   9.200   4.171   5.862
 2241WAT     H2 6966   9.194   4.021   5.926
 2242WAT      O 6967   8.574   1.417   1.353
 2242WAT     H1 6968   8.650   1.393   1.413
 2242WAT     H2 6969   8.487   1.394   1.398
 2243WAT      O 6970   2.522   1.167   0.359
 2243WAT     H1 6971   2.426   1.156   0.382
 2243WAT     H2 6972   2.563   1.077   0.342
 2244WAT      O 6973   0.715   3.950   9.803
 2244WAT     H1 6974   0.636   4.010   9.794
 2244WAT     H2 6975   0.782   3.992   9.865
 2245WAT      O 6976   9.841   2.484   3.008
 2245WAT     H1 6977   9.854   2.393   3.046
 2245WAT     H2 6978   9.920   2.510   2.953
 2246WAT      O 6979   4.812   6.568   4.264
 2246WAT     H1 6980   4.781   6.615   4.181
 2246WAT     H2 6981   4.756   6.597   4.342
 2247WAT      O 6982   5.446   7.057   4.073
 2247WAT     H1 6983   5.462   7.040   4.170
 2247WAT     H2 6984   5.498   6.992   4.018
 2248WAT      O 6985   4.478   1.680   3.015
 2248WAT     H1 6986   4.539   1.718   3.085
 2248WAT     H2 6987   4.386   1.672   3.053
 2249WAT      O 6988   7.311   8.610   1.918
 2249WAT     H1 6989   7.369   8.562   1.853
 2249WAT     H2 6990   7.367   8.650   1.991
 2250WAT      O 6991   3.648   4.568   8.163
 2250WAT     H1 6992   3.660   4.632   8.088
 2250WAT     H2 6993   3.560   4.584   8.207
 2251WAT      O 6994   8.808   6.117   9.521
 2251WAT     H1 6995   8.831   6.140   9.427
 2251WAT     H2 6996   8.825   6.020   9.537
 2252WAT      O 6997   3.704   1.055   1.236
 2252WAT     H1 6998   3.796   1.071   1.202
 2252WAT     H2 6999   3.683   0.957   1.230
 2253WAT      O 7000   1.366   9.145   5.865
 2253WAT     H1 7001   1.306   9.079   5.910
 2253WAT     H2 7002   1.318   9.232   5.856
 2254WAT      O 7003   1.424   0.680   4.278
 2254WAT     H1 7004   1.418   0.662   4.376
 2254WAT     H2 7005   1.335   0.661   4.235
 2255WAT      O 7006   2.205   7.689   5.290
 2255WAT     H1 7007   2.158   7.714   5.375
 2255WAT     H2 7008   2.193   7.763   5.223
 2256WAT      O 7009   8.692   0.202   6.056
 2256WAT     H1 7010   8.735   0.286   6.023
 2256WAT     H2 7011   8.732   0.176   6.144
 2257WAT      O 7012   8.808   7.443   7.383
 2257WAT     H1 7013   8.802   7.499   7.465
 2257WAT     H2 7014   8.749   7.482   7.311
 2258WAT      O 7015   3.340   4.875   4.092
 2258WAT     H1 7016   3.440   4.880   4.091
 2258WAT     H2 7017   3.312   4.786   4.129
 2259WAT      O 7018   5.801   6.762   0.101
 2259WAT     H1 7019   5.814   6.723   0.010
 2259WAT     H2 7020   5.845   6.851   0.106
 2260WAT      O 7021   3.082   6.747   7.234
 2260WAT     H1 7022   2.997   6.794   7.207
 2260WAT     H2 7023   3.121   6.701   7.154
 2261WAT      O 7024   3.139   9.376   9.732
 2261WAT     H1 7025   3.131   9.415   9.640
 2261WAT     H2 7026   3.128   9.277   9.726
 2262WAT      O 7027   2.215   3.242   8.734
 2262WAT     H1 7028   2.179   3.279   8.820
 2262WAT     H2 7029   2.302   3.287   8.712
 2263WAT      O 7030   1.692   0.001   9.597
 2263WAT     H1 7031   1.741  -0.082   9.571
 2263WAT     H2 7032   1.757   0.067   9.634
 2264WAT      O 7033   9.412   8.476   3.846
 2264WAT     H1 7034   9.374   8.569   3.850
 2264WAT     H2 7035   9.460   8.456   3.932
 2265WAT      O 7036   2.613   0.478   8.372
 2265WAT     H1 7037   2.559   0.513   8.295
 2265WAT     H2 7038   2.559   0.411   8.423
 2266WAT      O 7039   3.290   1.004   5.574
 2266WAT     H1 7040   3.306   0.969   5.667
 2266WAT     H2 7041   3.358   1.073   5.552
 2267WAT      O 7042   5.780   2.159   7.642
 2267WAT     H1 7043   5.702   2.098   7.652
 2267WAT     H2 7044   5.775   2.232   7.710
 2268WAT      O 7045   7.879   2.680   2.250
 2268WAT     H1 7046   7.973   2.650   2.264
 2268WAT     H2 7047   7.847   2.652   2.160
 2269WAT      O 7048   2.871   4.388   8.778
 2269WAT     H1 7049   2.792   4.428   8.824
 2269WAT     H2 7050   2.854   4.292   8.759
 2270WAT      O 7051   3.924   6.375   2.613
 2270WAT     H1 7052   3.911   6.469   2.645
 2270WAT     H2 7053   4.020   6.349   2.625
 2271WAT      O 7054   3.564   3.287   4.235
 2271WAT     H1 7055   3.585   3.384   4.250
 2271WAT     H2 7056   3.648   3.238   4.214
 2272WAT      O 7057   1.973   2.816   4.510
 2272WAT     H1 7058   1.956   2.730   4.462
 2272WAT     H2 7059   2.069   2.820   4.537
 2273WAT      O 7060   6.428   1.695   0.029
 2273WAT     H1 7061   6.421   1.794   0.034
 2273WAT     H2 7062   6.408   1.665  -0.064
 2274WAT      O 7063   7.504   9.708   2.757
 2274WAT     H1 7064   7.455   9.762   2.688
 2274WAT     H2 7065   7.596   9.687   2.724
 2275WAT      O 7066   2.561   7.292   8.202
 2275WAT     H1 7067   2.500   7.353   8.254
 2275WAT     H2 7068   2.546   7.197   8.231
 2276WAT      O 7069   8.215   2.645   2.547
 2276WAT     H1 7070   8.255   2.566   2.592
 2276WAT     H2 7071   8.148   2.615   2.480
 2277WAT      O 7072   5.874   9.756   2.947
 2277WAT     H1 7073   5.823   9.758   2.861
 2277WAT     H2 7074   5.944   9.828   2.946
 2278WAT      O 7075   0.975   0.183   8.967
 2278WAT     H1 7076   0.982   0.144   9.059
 2278WAT     H2 7077   1.009   0.116   8.901
 2279WAT      O 7078   9.448   4.570   4.131
 2279WAT     H1 7079   9.515   4.499   4.111
 2279WAT     H2 7080   9.489   4.638   4.191
 2280WAT      O 7081   0.114   9.604   5.157
 2280WAT     H1 7082   0.151   9.548   5.231
 2280WAT     H2 7083   0.096   9.696   5.191
 2281WAT      O 7084   9.244   1.607   7.316
 2281WAT     H1 7085   9.223   1.525   7.368
 2281WAT     H2 7086   9.210   1.687   7.366
 2282WAT      O 7087   2.899   0.041   7.847
 2282WAT     H1 7088   2.842   0.117   7.816
 2282WAT     H2 7089   2.871   0.013   7.938
 2283WAT      O 7090   9.556   4.894   7.088
 2283WAT     H1 7091   9.600   4.924   7.003
 2283WAT     H2 7092   9.548   4.971   7.150
 2284WAT      O 7093   8.908   8.142   2.877
 2284WAT     H1 7094   8.825   8.190   2.907
 2284WAT     H2 7095   8.975   8.209   2.846
 2285WAT      O 7096   9.633   7.893   8.165
 2285WAT     H1 7097   9.653   7.878   8.069
 2285WAT     H2 7098   9.718   7.911   8.215
 2286WAT      O 7099   9.455   8.924   0.494
 2286WAT     H1 7100   9.405   8.916   0.408
 2286WAT     H2 7101   9.553   8.924   0.477
 2287WAT      O 7102   8.540   8.961   2.183
 2287WAT     H1 7103   8.442   8.974   2.201
 2287WAT     H2 7104   8.552   8.930   2.089
 2288WAT      O 7105   3.576   8.186   4.683
 2288WAT     H1 7106   3.495   8.143   4.723
 2288WAT     H2 7107   3.569   8.182   4.583
 2289WAT      O 7108   9.676   4.947   4.683
 2289WAT     H1 7109   9.686   4.907   4.592
 2289WAT     H2 7110   9.689   4.876   4.752
 2290WAT      O 7111   2.941   3.614   4.650
 2290WAT     H1 7112   3.031   3.657   4.637
 2290WAT     H2 7113   2.905   3.584   4.562
 2291WAT      O 7114   5.308   5.661   4.634
 2291WAT     H1 7115   5.387   5.634   4.578
 2291WAT     H2 7116   5.340   5.682   4.727
 2292WAT      O 7117   1.423   9.814   8.071
 2292WAT     H1 7118   1.475   9.740   8.115
 2292WAT     H2 7119   1.435   9.898   8.124
 2293WAT      O 7120   7.622   3.367   5.511
 2293WAT     H1 7121   7.656   3.284   5.467
 2293WAT     H2 7122   7.643   3.446   5.455
 2294WAT      O 7123   2.712   7.593   0.493
 2294WAT     H1 7124   2.700   7.495   0.509
 2294WAT     H2 7125   2.789   7.626   0.547
 2295WAT      O 7126   8.295   1.309   1.428
 2295WAT     H1 7127   8.280   1.363   1.511
 2295WAT     H2 7128   8.232   1.339   1.356
 2296WAT      O 7129   2.128   9.380   2.503
 2296WAT     H1 7130   2.107   9.475   2.524
 2296WAT     H2 7131   2.133   9.328   2.588
 2297WAT      O 7132   2.315   8.463   1.176
 2297WAT     H1 7133   2.287   8.553   1.207
 2297WAT     H2 7134   2.395   8.472   1.116
 2298WAT      O 7135   4.775   0.497   3.073
 2298WAT     H1 7136   4.805   0.511   3.167
 2298WAT     H2 7137   4.702   0.563   3.051
 2299WAT      O 7138   5.344   0.156   8.082
 2299WAT     H1 7139   5.403   0.109   8.147
 2299WAT     H2 7140   5.308   0.089   8.016
 2300WAT      O 7141   6.893   5.571   7.794
 2300WAT     H1 7142   6.925   5.624   7.873
 2300WAT     H2 7143   6.856   5.634   7.725
 2301WAT      O 7144   9.121   1.156   2.908
 2301WAT     H1 7145   9.140   1.250   2.939
 2301WAT     H2 7146   9.207   1.106   2.900
 2302WAT      O 7147   2.282   3.725   3.043
 2302WAT     H1 7148   2.376   3.757   3.028
 2302WAT     H2 7149   2.282   3.626   3.051
 2303WAT      O 7150   0.415   4.761   9.507
 2303WAT     H1 7151   0.319   4.735   9.504
 2303WAT     H2 7152   0.431   4.825   9.582
 2304WAT      O 7153   2.796   6.800   6.355
 2304WAT     H1 7154   2.772   6.770   6.447
 2304WAT     H2 7155   2.842   6.726   6.306
 2305WAT      O 7156   6.706   3.824   0.876
 2305WAT     H1 7157   6.781   3.863   0.822
 2305WAT     H2 7158   6.744   3.764   0.947
 2306WAT      O 7159   0.645   4.161   1.215
 2306WAT     H1 7160   0.555   4.124   1.236
 2306WAT     H2 7161   0.638   4.224   1.138
 2307WAT      O 7162   0.029   0.457   1.943
 2307WAT     H1 7163   0.024   0.537   1.884
 2307WAT     H2 7164  -0.035   0.387   1.910
 2308WAT      O 7165   7.499   2.629   0.101
 2308WAT     H1 7166   7.409   2.660   0.132
 2308WAT     H2 7167   7.487   2.559   0.030
 2309WAT      O 7168   6.369   0.972   8.171
 2309WAT     H1 7169   6.323   0.986   8.259
 2309WAT     H2 7170   6.358   1.053   8.114
 2310WAT      O 7171   8.391   4.510   7.214
 2310WAT     H1 7172   8.455   4.587   7.218
 2310WAT     H2 7173   8.396   4.467   7.124
 2311WAT      O 7174   3.609   7.277   9.027
 2311WAT     H1 7175   3.579   7.342   9.097
 2311WAT     H2 7176   3.590   7.315   8.936
 2312WAT      O 7177   7.297   5.682   4.002
 2312WAT     H1 7178   7.382   5.631   4.018
 2312WAT     H2 7179   7.234   5.626   3.947
 2313WAT      O 7180   4.399   8.237   4.052
 2313WAT     H1 7181   4.484   8.215   4.003
 2313WAT     H2 7182   4.346   8.302   3.998
 2314WAT      O 7183   7.022   1.807   6.755
 2314WAT     H1 7184   7.084   1.795   6.677
 2314WAT     H2 7185   6.951   1.873   6.732
 2315WAT      O 7186   1.138   8.339   3.292
 2315WAT     H1 7187   1.074   8.274   3.334
 2315WAT     H2 7188   1.101   8.431   3.299
 2316WAT      O 7189   6.247   9.251   7.542
 2316WAT     H1 7190   6.226   9.167   7.592
 2316WAT     H2 7191   6.276   9.229   7.449
 2317WAT      O 7192   4.888   3.254   0.820
 2317WAT     H1 7193   4.890   3.336   0.877
 2317WAT     H2 7194   4.808   3.200   0.843
 2318WAT      O 7195   2.076   5.202   6.292
 2318WAT     H1 7196   2.047   5.284   6.244
 2318WAT     H2 7197   2.168   5.176   6.262
 2319WAT      O 7198   3.286   7.186   8.696
 2319WAT     H1 7199   3.313   7.092   8.678
 2319WAT     H2 7200   3.285   7.202   8.795
 2320WAT      O 7201   3.583   1.061   0.037
 2320WAT     H1 7202   3.683   1.056   0.033
 2320WAT     H2 7203   3.547   0.982   0.086
 2321WAT      O 7204   7.308   4.141   1.661
 2321WAT     H1 7205   7.227   4.087   1.684
 2321WAT     H2 7206   7.370   4.086   1.605
 2322WAT      O 7207   0.336   9.163   1.767
 2322WAT     H1 7208   0.247   9.192   1.732
 2322WAT     H2 7209   0.336   9.169   1.867
 2323WAT      O 7210   7.250   5.957   8.113
 2323WAT     H1 7211   7.220   5.863   8.130
 2323WAT     H2 7212   7.217   6.017   8.185
 2324WAT      O 7213   4.722   6.104   0.357
 2324WAT     H1 7214   4.767   6.048   0.427
 2324WAT     H2 7215   4.774   6.099   0.272
 2325WAT      O 7216   4.371   7.276   9.390
 2325WAT     H1 7217   4.460   7.282   9.346
 2325WAT     H2 7218   4.378   7.220   9.473
 2326WAT      O 7219   5.606   3.390   8.082
 2326WAT     H1 7220   5.700   3.360   8.093
 2326WAT     H2 7221   5.591   3.475   8.133
 2327WAT      O 7222   3.671   8.049   9.165
 2327WAT     H1 7223   3.704   8.141   9.141
 2327WAT     H2 7224   3.749   7.989   9.182
 2328WAT      O 7225   2.533   6.738   5.276
 2328WAT     H1 7226   2.604   6.668   5.265
 2328WAT     H2 7227   2.511   6.776   5.187
 2329WAT      O 7228   5.808   2.168   7.378
 2329WAT     H1 7229   5.792   2.163   7.477
 2329WAT     H2 7230   5.835   2.078   7.344
 2330WAT      O 7231   5.044   3.995   4.457
 2330WAT     H1 7232   4.975   3.995   4.384
 2330WAT     H2 7233   5.041   3.908   4.506
 2331WAT      O 7234   9.358   7.277   3.960
 2331WAT     H1 7235   9.394   7.201   4.016
 2331WAT     H2 7236   9.412   7.284   3.876
 2332WAT      O 7237   0.350   9.244   9.546
 2332WAT     H1 7238   0.308   9.302   9.616
 2332WAT     H2 7239   0.365   9.152   9.583
 2333WAT      O 7240   7.125   7.640   8.312
 2333WAT     H1 7241   7.107   7.557   8.258
 2333WAT     H2 7242   7.110   7.721   8.255
 2334WAT      O 7243   0.041   5.876   8.543
 2334WAT     H1 7244   0.071   5.971   8.552
 2334WAT     H2 7245   0.116   5.815   8.565
 2335WAT      O 7246   8.124   2.637   7.904
 2335WAT     H1 7247   8.053   2.574   7.934
 2335WAT     H2 7248   8.194   2.587   7.852
 2336WAT      O 7249   9.032   9.842   3.396
 2336WAT     H1 7250   9.030   9.746   3.368
 2336WAT     H2 7251   8.944   9.866   3.439
 2337WAT      O 7252   2.827   7.979   8.892
 2337WAT     H1 7253   2.919   7.945   8.873
 2337WAT     H2 7254   2.833   8.059   8.951
 2338WAT      O 7255   6.954   4.380   9.100
 2338WAT     H1 7256   6.939   4.349   9.194
 2338WAT     H2 7257   6.959   4.301   9.039
 2339WAT      O 7258   5.509   3.398   9.818
 2339WAT     H1 7259   5.459   3.479   9.790
 2339WAT     H2 7260   5.497   3.384   9.916
 2340WAT      O 7261   7.961   8.913   8.371
 2340WAT     H1 7262   7.901   8.993   8.373
 2340WAT     H2 7263   7.910   8.833   8.402
 2341WAT      O 7264   3.560   1.773   8.426
 2341WAT     H1 7265   3.498   1.760   8.349
 2341WAT     H2 7266   3.530   1.717   8.503
 2342WAT      O 7267   6.539   1.496   0.799
 2342WAT     H1 7268   6.530   1.512   0.701
 2342WAT     H2 7269   6.490   1.413   0.825
 2343WAT      O 7270   7.874   8.020   5.109
 2343WAT     H1 7271   7.941   7.958   5.068
 2343WAT     H2 7272   7.830   7.974   5.186
 2344WAT      O 7273   5.129   5.993   5.750
 2344WAT     H1 7274   5.175   5.979   5.662
 2344WAT     H2 7275   5.192   6.036   5.814
 2345WAT      O 7276   9.484   1.563   1.097
 2345WAT     H1 7277   9.518   1.655   1.079
 2345WAT     H2 7278   9.403   1.546   1.042
 2346WAT      O 7279   0.420   4.899   9.737
 2346WAT     H1 7280   0.349   4.829   9.742
 2346WAT     H2 7281   0.418   4.954   9.821
 2347WAT      O 7282   1.629   4.993   2.539
 2347WAT     H1 7283   1.650   4.996   2.637
 2347WAT     H2 7284   1.566   4.918   2.520
 2348WAT      O 7285   5.751   3.302   6.580
 2348WAT     H1 7286   5.719   3.293   6.674
 2348WAT     H2 7287   5.689   3.362   6.530
 2349WAT      O 7288   3.841   7.424   3.743
 2349WAT     H1 7289   3.817   7.492   3.812
 2349WAT     H2 7290   3.940   7.420   3.733
 2350WAT      O 7291   6.922   8.246   3.088
 2350WAT     H1 7292   7.015   8.267   3.117
 2350WAT     H2 7293   6.908   8.147   3.092
 2351WAT      O 7294   4.666   4.442   3.111
 2351WAT     H1 7295   4.597   4.381   3.149
 2351WAT     H2 7296   4.756   4.398   3.118
 2352WAT      O 7297   2.423   0.278   0.157
 2352WAT     H1 7298   2.514   0.277   0.117
 2352WAT     H2 7299   2.429   0.294   0.255
 2353WAT      O 7300   6.690   8.667   2.368
 2353WAT     H1 7301   6.710   8.677   2.465
 2353WAT     H2 7302   6.656   8.754   2.331
 2354WAT      O 7303   0.161   6.922   6.805
 2354WAT     H1 7304   0.096   6.846   6.806
 2354WAT     H2 7305   0.200   6.931   6.713
 2355WAT      O 7306   4.451   4.148   0.930
 2355WAT     H1 7307   4.465   4.196   0.843
 2355WAT     H2 7308   4.362   4.174   0.968
 2356WAT      O 7309   8.119   2.043   5.285
 2356WAT     H1 7310   8.081   1.974   5.223
 2356WAT     H2 7311   8.056   2.120   5.292
 2357WAT      O 7312   4.986   6.851   1.128
 2357WAT     H1 7313   4.912   6.815   1.072
 2357WAT     H2 7314   5.073   6.814   1.097
 2358WAT      O 7315   8.114   2.787   7.176
 2358WAT     H1 7316   8.125   2.876   7.221
 2358WAT     H2 7317   8.018   2.760   7.178
 2359WAT      O 7318   4.726   9.744   4.928
 2359WAT     H1 7319   4.675   9.701   5.003
 2359WAT     H2 7320   4.683   9.719   4.841
 2360WAT      O 7321   0.295   8.868   3.555
 2360WAT     H1 7322   0.211   8.921   3.566
 2360WAT     H2 7323   0.310   8.849   3.458
 2361WAT      O 7324   9.893   6.341   6.558
 2361WAT     H1 7325   9.920   6.438   6.559
 2361WAT     H2 7326   9.806   6.332   6.509
 2362WAT      O 7327   0.921   5.390   2.213
 2362WAT     H1 7328   0.968   5.422   2.131
 2362WAT     H2 7329   0.838   5.443   2.228
 2363WAT      O 7330   7.240   9.500   0.896
 2363WAT     H1 7331   7.220   9.497   0.798
 2363WAT     H2 7332   7.321   9.446   0.916
 2364WAT      O 7333   3.108   7.804   5.588
 2364WAT     H1 7334   3.190   7.775   5.537
 2364WAT     H2 7335   3.105   7.904   5.590
 2365WAT      O 7336   3.154   5.016   7.266
 2365WAT     H1 7337   3.161   5.049   7.172
 2365WAT     H2 7338   3.078   5.062   7.312
 2366WAT      O 7339   3.751   5.224   1.216
 2366WAT     H1 7340   3.710   5.315   1.214
 2366WAT     H2 7341   3.834   5.226   1.271
 2367WAT      O 7342   3.784   4.384   1.217
 2367WAT     H1 7343   3.710   4.332   1.175
 2367WAT     H2 7344   3.833   4.326   1.281
 2368WAT      O 7345   8.341   2.850   9.526
 2368WAT     H1 7346   8.270   2.918   9.515
 2368WAT     H2 7347   8.400   2.874   9.603
 2369WAT      O 7348   6.259   8.517   3.309
 2369WAT     H1 7349   6.328   8.570   3.260
 2369WAT     H2 7350   6.174   8.569   3.315
 2370WAT      O 7351   0.847   2.130   6.182
 2370WAT     H1 7352   0.762   2.078   6.188
 2370WAT     H2 7353   0.835   2.218   6.229
 2371WAT      O 7354   6.320   5.034   6.011
 2371WAT     H1 7355   6.270   4.954   5.977
 2371WAT     H2 7356   6.418   5.022   5.995
 2372WAT      O 7357   1.709   8.723   0.980
 2372WAT     H1 7358   1.661   8.777   1.048
 2372WAT     H2 7359   1.804   8.754   0.973
 2373WAT      O 7360   5.059   1.134   2.714
 2373WAT     H1 7361   5.119   1.055   2.729
 2373WAT     H2 7362   4.985   1.133   2.782
 2374WAT      O 7363   1.295   2.244   8.973
 2374WAT     H1 7364   1.256   2.313   9.034
 2374WAT     H2 7365   1.313   2.286   8.884
 2375WAT      O 7366   9.239   5.244   8.985
 2375WAT     H1 7367   9.222   5.339   8.960
 2375WAT     H2 7368   9.325   5.214   8.945
 2376WAT      O 7369   1.801   1.605   0.353
 2376WAT     H1 7370   1.841   1.559   0.274
 2376WAT     H2 7371   1.848   1.574   0.436
 2377WAT      O 7372   2.503   7.945   6.691
 2377WAT     H1 7373   2.473   7.999   6.769
 2377WAT     H2 7374   2.591   7.980   6.657
 2378WAT      O 7375   1.276   6.455   7.782
 2378WAT     H1 7376   1.309   6.363   7.805
 2378WAT     H2 7377   1.273   6.466   7.683
 2379WAT      O 7378   5.867   6.020   8.803
 2379WAT     H1 7379   5.864   6.109   8.849
 2379WAT     H2 7380   5.774   5.995   8.774
 2380WAT      O 7381   1.485   2.871   1.100
 2380WAT     H1 7382   1.571   2.920   1.088
 2380WAT     H2 7383   1.487   2.821   1.186
 2381WAT      O 7384   4.383   0.888   2.115
 2381WAT     H1 7385   4.368   0.986   2.100
 2381WAT     H2 7386   4.351   0.837   2.035
 2382WAT      O 7387   1.932   4.957   8.352
 2382WAT     H1 7388   2.032   4.952   8.351
 2382WAT     H2 7389   1.894   4.866   8.333
 2383WAT      O 7390   3.661   4.200   1.046
 2383WAT     H1 7391   3.634   4.256   0.968
 2383WAT     H2 7392   3.582   4.185   1.106
 2384WAT      O 7393   6.505   8.281   4.529
 2384WAT     H1 7394   6.519   8.182   4.527
 2384WAT     H2 7395   6.577   8.326   4.476
 2385WAT      O 7396   7.865   1.199   2.574
 2385WAT     H1 7397   7.916   1.271   2.526
 2385WAT     H2 7398   7.777   1.235   2.605
 2386WAT      O 7399   2.093   0.381   5.899
 2386WAT     H1 7400   2.151   0.341   5.829
 2386WAT     H2 7401   2.103   0.330   5.984
 2387WAT      O 7402   0.262   0.708   1.233
 2387WAT     H1 7403   0.214   0.620   1.235
 2387WAT     H2 7404   0.361   0.692   1.242
 2388WAT      O 7405   2.015   1.346   5.405
 2388WAT     H1 7406   1.933   1.403   5.396
 2388WAT     H2 7407   1.989   1.255   5.437
 2389WAT      O 7408   6.741   7.465   6.794
 2389WAT     H1 7409   6.799   7.402   6.846
 2389WAT     H2 7410   6.664   7.495   6.850
 2390WAT      O 7411   1.567   3.326   0.727
 2390WAT     H1 7412   1.650   3.373   0.697
 2390WAT     H2 7413   1.592   3.244   0.778
 2391WAT      O 7414   8.361   6.102   7.245
 2391WAT     H1 7415   8.307   6.057   7.317
 2391WAT     H2 7416   8.455   6.113   7.276
 2392WAT      O 7417   0.620   7.581   7.040
 2392WAT     H1 7418   0.619   7.681   7.034
 2392WAT     H2 7419   0.596   7.542   6.952
 2393WAT      O 7420   0.071   1.922   0.706
 2393WAT     H1 7421   0.147   1.983   0.726
 2393WAT     H2 7422   0.024   1.953   0.623
 2394WAT      O 7423   3.477   8.139   1.467
 2394WAT     H1 7424   3.567   8.153   1.509
 2394WAT     H2 7425   3.486   8.074   1.391
 2395WAT      O 7426   2.179   9.222   2.754
 2395WAT     H1 7427   2.133   9.262   2.834
 2395WAT     H2 7428   2.277   9.238   2.760
 2396WAT      O 7429   4.801   3.144   8.204
 2396WAT     H1 7430   4.887   3.150   8.255
 2396WAT     H2 7431   4.726   3.122   8.267
 2397WAT      O 7432   7.718   7.589   4.061
 2397WAT     H1 7433   7.806   7.634   4.075
 2397WAT     H2 7434   7.649   7.658   4.039
 2398WAT      O 7435   0.668   0.048   3.272
 2398WAT     H1 7436   0.753   0.014   3.311
 2398WAT     H2 7437   0.591  -0.007   3.306
 2399WAT      O 7438   6.097   7.142   8.174
 2399WAT     H1 7439   6.168   7.127   8.104
 2399WAT     H2 7440   6.141   7.156   8.263
 2400WAT      O 7441   8.927   6.310   3.434
 2400WAT     H1 7442   8.871   6.349   3.360
 2400WAT     H2 7443   9.023   6.307   3.405
 2401WAT      O 7444   5.545   7.251   2.745
 2401WAT     H1 7445   5.545   7.316   2.820
 2401WAT     H2 7446   5.486   7.285   2.672
 2402WAT      O 7447   1.147   0.257   4.922
 2402WAT     H1 7448   1.170   0.175   4.869
 2402WAT     H2 7449   1.222   0.278   4.985
 2403WAT      O 7450   4.198   3.018   7.231
 2403WAT     H1 7451   4.254   3.100   7.225
 2403WAT     H2 7452   4.102   3.044   7.243
 2404WAT      O 7453   8.736   6.509   2.964
 2404WAT     H1 7454   8.738   6.412   2.988
 2404WAT     H2 7455   8.648   6.532   2.922
 2405WAT      O 7456   0.192   0.669   2.597
 2405WAT     H1 7457   0.196   0.663   2.697
 2405WAT     H2 7458   0.120   0.733   2.571
 2406WAT      O 7459   0.160   2.525   2.835
 2406WAT     H1 7460   0.167   2.559   2.741
 2406WAT     H2 7461   0.209   2.586   2.896
 2407WAT      O 7462   7.875   8.328   7.420
 2407WAT     H1 7463   7.839   8.346   7.512
 2407WAT     H2 7464   7.805   8.285   7.364
 2408WAT      O 7465   7.249   2.382   2.246
 2408WAT     H1 7466   7.160   2.411   2.281
 2408WAT     H2 7467   7.274   2.439   2.167
 2409WAT      O 7468   6.046   0.201   1.643
 2409WAT     H1 7469   5.999   0.232   1.726
 2409WAT     H2 7470   6.136   0.165   1.668
 2410WAT      O 7471   2.611   1.070   9.151
 2410WAT     H1 7472   2.646   1.143   9.093
 2410WAT     H2 7473   2.654   1.075   9.241
 2411WAT      O 7474   5.452   2.874   5.447
 2411WAT     H1 7475   5.428   2.777   5.442
 2411WAT     H2 7476   5.496   2.893   5.535
 2412WAT      O 7477   2.728   8.166   9.182
 2412WAT     H1 7478   2.735   8.265   9.194
 2412WAT     H2 7479   2.771   8.120   9.260
 2413WAT      O 7480   8.771   0.112   6.328
 2413WAT     H1 7481   8.825   0.187   6.367
 2413WAT     H2 7482   8.696   0.089   6.389
 2414WAT      O 7483   5.709   5.329   7.887
 2414WAT     H1 7484   5.617   5.330   7.926
 2414WAT     H2 7485   5.715   5.398   7.814
 2415WAT      O 7486   3.058   0.246   1.705
 2415WAT     H1 7487   3.033   0.300   1.624
 2415WAT     H2 7488   3.154   0.220   1.700
 2416WAT      O 7489   1.705   5.418   5.494
 2416WAT     H1 7490   1.803   5.435   5.479
 2416WAT     H2 7491   1.652   5.490   5.450
 2417WAT      O 7492   3.103   2.637   4.952
 2417WAT     H1 7493   3.011   2.639   4.912
 2417WAT     H2 7494   3.152   2.557   4.918
 2418WAT      O 7495   8.920   7.805   5.494
 2418WAT     H1 7496   8.844   7.869   5.484
 2418WAT     H2 7497   8.886   7.717   5.525
 2419WAT      O 7498   1.820   2.220   7.656
 2419WAT     H1 7499   1.917   2.242   7.659
 2419WAT     H2 7500   1.767   2.305   7.657
 2420WAT      O 7501   1.940   6.607   4.695
 2420WAT     H1 7502   1.952   6.624   4.597
 2420WAT     H2 7503   1.843   6.614   4.718
 2421WAT      O 7504   3.984   8.637   2.360
 2421WAT     H1 7505   4.030   8.724   2.346
 2421WAT     H2 7506   4.051   8.566   2.381
 2422WAT      O 7507   1.849   4.340   8.237
 2422WAT     H1 7508   1.898   4.365   8.154
 2422WAT     H2 7509   1.821   4.244   8.232
 2423WAT      O 7510   6.139   0.230   5.061
 2423WAT     H1 7511   6.067   0.299   5.052
 2423WAT     H2 7512   6.157   0.214   5.158
 2424WAT      O 7513   8.927   4.994   2.333
 2424WAT     H1 7514   8.855   4.935   2.370
 2424WAT     H2 7515   8.887   5.079   2.299
 2425WAT      O 7516   5.956   8.664   9.689
 2425WAT     H1 7517   5.857   8.666   9.705
 2425WAT     H2 7518   6.000   8.729   9.751
 2426WAT      O 7519   7.688   6.399   9.605
 2426WAT     H1 7520   7.686   6.399   9.705
 2426WAT     H2 7521   7.654   6.311   9.571
 2427WAT      O 7522   8.062   4.574   0.009
 2427WAT     H1 7523   7.984   4.605  -0.046
 2427WAT     H2 7524   8.065   4.626   0.095
 2428WAT      O 7525   7.880   6.949   2.609
 2428WAT     H1 7526   7.950   6.890   2.569
 2428WAT     H2 7527   7.814   6.894   2.660
 2429WAT      O 7528   0.474   0.503   2.005
 2429WAT     H1 7529   0.528   0.568   2.059
 2429WAT     H2 7530   0.414   0.553   1.942
 2430WAT      O 7531   9.608   6.867   5.538
 2430WAT     H1 7532   9.548   6.813   5.479
 2430WAT     H2 7533   9.690   6.813   5.559
 2431WAT      O 7534   3.889   9.779   3.624
 2431WAT     H1 7535   3.824   9.740   3.690
 2431WAT     H2 7536   3.964   9.715   3.609
 2432WAT      O 7537   1.964   8.058   1.921
 2432WAT     H1 7538   1.961   8.029   2.016
 2432WAT     H2 7539   2.057   8.086   1.896
 2433WAT      O 7540   4.420   2.420   6.323
 2433WAT     H1 7541   4.473   2.413   6.408
 2433WAT     H2 7542   4.411   2.516   6.297
 2434WAT      O 7543   3.586   8.226   6.441
 2434WAT     H1 7544   3.686   8.233   6.439
 2434WAT     H2 7545   3.548   8.270   6.361
 2435WAT      O 7546   0.077   1.649   8.289
 2435WAT     H1 7547   0.057   1.665   8.192
 2435WAT     H2 7548  -0.006   1.615   8.334
 2436WAT      O 7549   6.337   5.856   4.391
 2436WAT     H1 7550   6.284   5.896   4.317
 2436WAT     H2 7551   6.349   5.924   4.463
 2437WAT      O 7552   0.409   2.670   7.149
 2437WAT     H1 7553   0.405   2.747   7.212
 2437WAT     H2 7554   0.434   2.702   7.058
 2438WAT      O 7555   1.746   1.906   3.715
 2438WAT     H1 7556   1.754   2.005   3.722
 2438WAT     H2 7557   1.834   1.864   3.736
 2439WAT      O 7558   4.853   2.936   7.185
 2439WAT     H1 7559   4.890   3.029   7.189
 2439WAT     H2 7560   4.775   2.929   7.247
 2440WAT      O 7561   1.022   1.769   1.004
 2440WAT     H1 7562   1.063   1.679   0.986
 2440WAT     H2 7563   0.939   1.756   1.059
 2441WAT      O 7564   8.417   6.573   8.263
 2441WAT     H1 7565   8.376   6.487   8.295
 2441WAT     H2 7566   8.376   6.598   8.175
 2442WAT      O 7567   1.757   3.474   0.022
 2442WAT     H1 7568   1.775   3.469   0.120
 2442WAT     H2 7569   1.658   3.473   0.006
 2443WAT      O 7570   9.445   0.790   1.860
 2443WAT     H1 7571   9.377   0.857   1.830
 2443WAT     H2 7572   9.510   0.773   1.786
 2444WAT      O 7573   1.783   1.527   7.112
 2444WAT     H1 7574   1.760   1.439   7.070
 2444WAT     H2 7575   1.767   1.600   7.046
 2445WAT      O 7576   2.438   1.963   3.379
 2445WAT     H1 7577   2.376   1.893   3.416
 2445WAT     H2 7578   2.414   2.052   3.415
 2446WAT      O 7579   1.575   4.024   2.209
 2446WAT     H1 7580   1.641   3.976   2.152
 2446WAT     H2 7581   1.555   3.969   2.290
 2447WAT      O 7582   9.618   1.250   1.000
 2447WAT     H1 7583   9.595   1.280   1.092
 2447WAT     H2 7584   9.665   1.161   1.005
 2448WAT      O 7585   3.194   9.015   2.179
 2448WAT     H1 7586   3.229   9.107   2.167
 2448WAT     H2 7587   3.270   8.950   2.182
 2449WAT      O 7588   0.013   3.996   3.194
 2449WAT     H1 7589   0.026   4.005   3.096
 2449WAT     H2 7590   0.038   3.903   3.222
 2450WAT      O 7591   5.381   4.757   4.032
 2450WAT     H1 7592   5.292   4.738   3.991
 2450WAT     H2 7593   5.393   4.856   4.041
 2451WAT      O 7594   5.386   1.183   1.595
 2451WAT     H1 7595   5.467   1.240   1.580
 2451WAT     H2 7596   5.413   1.100   1.645
 2452WAT      O 7597   2.537   5.336   0.933
 2452WAT     H1 7598   2.487   5.254   0.962
 2452WAT     H2 7599   2.604   5.312   0.863
 2453WAT      O 7600   7.749   0.584   0.285
 2453WAT     H1 7601   7.653   0.572   0.308
 2453WAT     H2 7602   7.763   0.677   0.250
 2454WAT      O 7603   4.932   9.153   3.257
 2454WAT     H1 7604   4.842   9.194   3.268
 2454WAT     H2 7605   4.982   9.203   3.186
 2455WAT      O 7606   7.791   4.522   6.956
 2455WAT     H1 7607   7.860   4.595   6.963
 2455WAT     H2 7608   7.718   4.551   6.893
 2456WAT      O 7609   1.428   0.835   4.743
 2456WAT     H1 7610   1.361   0.847   4.816
 2456WAT     H2 7611   1.521   0.841   4.782
 2457WAT      O 7612   2.945   8.841   6.707
 2457WAT     H1 7613   2.934   8.746   6.676
 2457WAT     H2 7614   3.042   8.865   6.706
 2458WAT      O 7615   4.392   0.299   2.343
 2458WAT     H1 7616   4.486   0.325   2.363
 2458WAT     H2 7617   4.383   0.200   2.350
 2459WAT      O 7618   2.285   1.509   9.822
 2459WAT     H1 7619   2.370   1.561   9.819
 2459WAT     H2 7620   2.304   1.413   9.843
 2460WAT      O 7621   8.282   2.176   3.118
 2460WAT     H1 7622   8.266   2.101   3.054
 2460WAT     H2 7623   8.378   2.204   3.113
 2461WAT      O 7624   2.958   6.354   3.564
 2461WAT     H1 7625   3.000   6.268   3.538
 2461WAT     H2 7626   3.018   6.404   3.626
 2462WAT      O 7627   5.747   0.181   6.865
 2462WAT     H1 7628   5.719   0.269   6.828
 2462WAT     H2 7629   5.704   0.168   6.954
 2463WAT      O 7630   6.151   7.551   4.809
 2463WAT     H1 7631   6.128   7.526   4.715
 2463WAT     H2 7632   6.179   7.469   4.859
 2464WAT      O 7633   8.032   5.471   8.868
 2464WAT     H1 7634   8.083   5.396   8.911
 2464WAT     H2 7635   7.939   5.473   8.903
 2465WAT      O 7636   4.118   5.469   0.997
 2465WAT     H1 7637   4.176   5.543   0.961
 2465WAT     H2 7638   4.097   5.405   0.923
 2466WAT      O 7639   2.726   2.398   2.954
 2466WAT     H1 7640   2.703   2.314   2.905
 2466WAT     H2 7641   2.796   2.378   3.023
 2467WAT      O 7642   2.835   6.106   9.287
 2467WAT     H1 7643   2.825   6.053   9.371
 2467WAT     H2 7644   2.915   6.166   9.294
 2468WAT      O 7645   6.115   6.718   3.153
 2468WAT     H1 7646   6.136   6.637   3.097
 2468WAT     H2 7647   6.119   6.693   3.249
 2469WAT      O 7648   6.566   1.689   3.560
 2469WAT     H1 7649   6.656   1.703   3.599
 2469WAT     H2 7650   6.509   1.769   3.576
 2470WAT      O 7651   3.906   0.798   5.295
 2470WAT     H1 7652   3.969   0.791   5.372
 2470WAT     H2 7653   3.840   0.723   5.299
 2471WAT      O 7654   6.280   3.308   8.067
 2471WAT     H1 7655   6.212   3.277   8.133
 2471WAT     H2 7656   6.372   3.293   8.103
 2472WAT      O 7657   7.753   2.178   6.035
 2472WAT     H1 7658   7.845   2.139   6.030
 2472WAT     H2 7659   7.685   2.106   6.018
 2473WAT      O 7660   0.660   6.007   8.802
 2473WAT     H1 7661   0.714   5.998   8.886
 2473WAT     H2 7662   0.717   5.982   8.724
 2474WAT      O 7663   5.847   6.122   4.041
 2474WAT     H1 7664   5.883   6.041   3.993
 2474WAT     H2 7665   5.787   6.093   4.115
 2475WAT      O 7666   5.100   5.768   8.662
 2475WAT     H1 7667   5.064   5.851   8.705
 2475WAT     H2 7668   5.024   5.709   8.635
 2476WAT      O 7669   6.362   6.501   0.920
 2476WAT     H1 7670   6.380   6.598   0.901
 2476WAT     H2 7671   6.288   6.470   0.860
 2477WAT      O 7672   2.418   3.785   0.475
 2477WAT     H1 7673   2.380   3.875   0.453
 2477WAT     H2 7674   2.511   3.777   0.440
 2478WAT      O 7675   3.758   2.201   4.219
 2478WAT     H1 7676   3.706   2.120   4.193
 2478WAT     H2 7677   3.758   2.267   4.143
 2479WAT      O 7678   0.743   6.773   5.015
 2479WAT     H1 7679   0.819   6.743   4.957
 2479WAT     H2 7680   0.657   6.741   4.976
 2480WAT      O 7681   9.050   5.408   5.345
 2480WAT     H1 7682   9.092   5.474   5.282
 2480WAT     H2 7683   9.108   5.399   5.426
 2481WAT      O 7684   2.400   3.633   5.584
 2481WAT     H1 7685   2.321   3.679   5.544
 2481WAT     H2 7686   2.468   3.616   5.513
 2482WAT      O 7687   1.013   8.332   9.311
 2482WAT     H1 7688   1.074   8.390   9.258
 2482WAT     H2 7689   1.064   8.254   9.347
 2483WAT      O 7690   1.695   8.064   2.861
 2483WAT     H1 7691   1.689   8.153   2.816
 2483WAT     H2 7692   1.678   8.074   2.959
 2484WAT      O 7693   6.168   8.878   8.029
 2484WAT     H1 7694   6.222   8.821   7.968
 2484WAT     H2 7695   6.220   8.896   8.113
 2485WAT      O 7696   7.447   6.754   4.624
 2485WAT     H1 7697   7.425   6.667   4.669
 2485WAT     H2 7698   7.419   6.830   4.682
 2486WAT      O 7699   3.530   1.416   6.486
 2486WAT     H1 7700   3.514   1.448   6.393
 2486WAT     H2 7701   3.521   1.493   6.549
 2487WAT      O 7702   8.022   9.364   0.586
 2487WAT     H1 7703   8.077   9.336   0.507
 2487WAT     H2 7704   7.929   9.328   0.577
 2488WAT      O 7705   2.193   4.966   0.869
 2488WAT     H1 7706   2.242   5.049   0.842
 2488WAT     H2 7707   2.119   4.990   0.932
 2489WAT      O 7708   1.437   1.154   9.820
 2489WAT     H1 7709   1.395   1.137   9.731
 2489WAT     H2 7710   1.534   1.174   9.808
 2490WAT      O 7711   3.298   7.509   7.392
 2490WAT     H1 7712   3.359   7.502   7.471
 2490WAT     H2 7713   3.313   7.432   7.330
 2491WAT      O 7714   7.530   3.357   5.755
 2491WAT     H1 7715   7.575   3.372   5.667
 2491WAT     H2 7716   7.470   3.434   5.776
 2492WAT      O 7717   5.794   4.866   9.567
 2492WAT     H1 7718   5.864   4.880   9.637
 2492WAT     H2 7719   5.787   4.768   9.546
 2493WAT      O 7720   9.457   9.772   3.800
 2493WAT     H1 7721   9.387   9.763   3.729
 2493WAT     H2 7722   9.485   9.868   3.807
 2494WAT      O 7723   8.842   1.129   3.805
 2494WAT     H1 7724   8.797   1.165   3.723
 2494WAT     H2 7725   8.903   1.054   3.778
 2495WAT      O 7726   4.005   5.775   8.897
 2495WAT     H1 7727   3.918   5.819   8.916
 2495WAT     H2 7728   4.079   5.843   8.901
 2496WAT      O 7729   9.765   2.672   4.783
 2496WAT     H1 7730   9.722   2.614   4.852
 2496WAT     H2 7731   9.798   2.616   4.707
 2497WAT      O 7732   9.339   0.903   8.355
 2497WAT     H1 7733   9.313   0.901   8.259
 2497WAT     H2 7734   9.299   0.985   8.398
 2498WAT      O 7735   0.523   2.956   7.580
 2498WAT     H1 7736   0.596   3.024   7.576
 2498WAT     H2 7737   0.553   2.879   7.636
 2499WAT      O 7738   1.763   7.571   1.555
 2499WAT     H1 7739   1.802   7.584   1.464
 2499WAT     H2 7740   1.665   7.592   1.552
 2500WAT      O 7741   5.886   3.408   5.824
 2500WAT     H1 7742   5.870   3.330   5.884
 2500WAT     H2 7743   5.878   3.493   5.876
 2501WAT      O 7744   4.840   5.802   2.514
 2501WAT     H1 7745   4.854   5.876   2.580
 2501WAT     H2 7746   4.745   5.773   2.515
 2502WAT      O 7747   5.820   7.459   0.062
 2502WAT     H1 7748   5.878   7.411  -0.004
 2502WAT     H2 7749   5.823   7.411   0.150
 2503WAT      O 7750   2.240   6.261   8.977
 2503WAT     H1 7751   2.141   6.261   8.965
 2503WAT     H2 7752   2.267   6.179   9.028
 2504WAT      O 7753   8.936   8.838   4.247
 2504WAT     H1 7754   8.917   8.862   4.152
 2504WAT     H2 7755   9.033   8.813   4.256
 2505WAT      O 7756   1.525   6.919   7.732
 2505WAT     H1 7757   1.463   6.964   7.796
 2505WAT     H2 7758   1.583   6.854   7.781
 2506WAT      O 7759   6.907   8.086   0.144
 2506WAT     H1 7760   6.874   8.133   0.226
 2506WAT     H2 7761   6.964   8.009   0.170
 2507WAT      O 7762   1.040   7.680   0.378
 2507WAT     H1 7763   0.964   7.619   0.397
 2507WAT     H2 7764   1.040   7.704   0.280
 2508WAT      O 7765   9.242   4.301   0.166
 2508WAT     H1 7766   9.291   4.238   0.227
 2508WAT     H2 7767   9.203   4.249   0.090
 2509WAT      O 7768   2.917   0.501   9.137
 2509WAT     H1 7769   2.918   0.510   9.236
 2509WAT     H2 7770   2.890   0.589   9.096
 2510WAT      O 7771   8.726   7.413   0.346
 2510WAT     H1 7772   8.778   7.425   0.430
 2510WAT     H2 7773   8.664   7.490   0.334
 2511WAT      O 7774   6.882   7.017   6.423
 2511WAT     H1 7775   6.852   6.984   6.334
 2511WAT     H2 7776   6.827   7.096   6.449
 2512WAT      O 7777   6.733   1.331   1.095
 2512WAT     H1 7778   6.788   1.335   1.012
 2512WAT     H2 7779   6.636   1.334   1.072
 2513WAT      O 7780   6.761   2.131   8.899
 2513WAT     H1 7781   6.828   2.059   8.879
 2513WAT     H2 7782   6.798   2.191   8.970
 2514WAT      O 7783   4.479   4.567   4.404
 2514WAT     H1 7784   4.559   4.623   4.427
 2514WAT     H2 7785   4.504   4.503   4.331
 2515WAT      O 7786   5.533   0.276   3.822
 2515WAT     H1 7787   5.472   0.345   3.862
 2515WAT     H2 7788   5.541   0.199   3.885
 2516WAT      O 7789   4.328   4.983   4.515
 2516WAT     H1 7790   4.413   5.000   4.564
 2516WAT     H2 7791   4.256   4.960   4.581
 2517WAT      O 7792   4.011   0.349   5.132
 2517WAT     H1 7793   4.045   0.440   5.104
 2517WAT     H2 7794   4.086   0.283   5.127
 2518WAT      O 7795   2.847   4.116   8.681
 2518WAT     H1 7796   2.935   4.078   8.653
 2518WAT     H2 7797   2.774   4.076   8.625
 2519WAT      O 7798   7.064   2.877   6.945
 2519WAT     H1 7799   6.970   2.897   6.918
 2519WAT     H2 7800   7.067   2.857   7.043
 2520WAT      O 7801   7.831   0.576   8.204
 2520WAT     H1 7802   7.882   0.555   8.121
 2520WAT     H2 7803   7.780   0.495   8.233
 2521WAT      O 7804   6.269   5.817   6.643
 2521WAT     H1 7805   6.297   5.913   6.645
 2521WAT     H2 7806   6.328   5.766   6.580
 2522WAT      O 7807   7.188   4.610   8.437
 2522WAT     H1 7808   7.114   4.568   8.385
 2522WAT     H2 7809   7.275   4.591   8.391
 2523WAT      O 7810   1.674   0.140   9.180
 2523WAT     H1 7811   1.739   0.216   9.181
 2523WAT     H2 7812   1.620   0.141   9.264
 2524WAT      O 7813   0.593   6.042   3.675
 2524WAT     H1 7814   0.585   6.135   3.711
 2524WAT     H2 7815   0.502   6.001   3.670
 2525WAT      O 7816   9.147   6.350   0.028
 2525WAT     H1 7817   9.174   6.382   0.119
 2525WAT     H2 7818   9.094   6.266   0.036
 2526WAT      O 7819   4.475   4.285   6.926
 2526WAT     H1 7820   4.423   4.345   6.987
 2526WAT     H2 7821   4.483   4.327   6.836
 2527WAT      O 7822   2.356   4.404   8.483
 2527WAT     H1 7823   2.285   4.375   8.547
 2527WAT     H2 7824   2.414   4.326   8.460
 2528WAT      O 7825   1.111   7.470   8.458
 2528WAT     H1 7826   1.048   7.406   8.415
 2528WAT     H2 7827   1.103   7.560   8.414
 2529WAT      O 7828   1.894   0.323   0.756
 2529WAT     H1 7829   1.827   0.249   0.758
 2529WAT     H2 7830   1.954   0.316   0.835
 2530WAT      O 7831   9.817   1.737   6.899
 2530WAT     H1 7832   9.755   1.660   6.913
 2530WAT     H2 7833   9.774   1.821   6.934
 2531WAT      O 7834   2.607   6.704   8.118
 2531WAT     H1 7835   2.525   6.729   8.170
 2531WAT     H2 7836   2.579   6.664   8.031
 2532WAT      O 7837   8.485   1.435   4.064
 2532WAT     H1 7838   8.576   1.409   4.031
 2532WAT     H2 7839   8.491   1.523   4.112
 2533WAT      O 7840   5.312   8.941   9.783
 2533WAT     H1 7841   5.396   8.888   9.773
 2533WAT     H2 7842   5.240   8.883   9.820
 2534WAT      O 7843   3.558   1.175   4.553
 2534WAT     H1 7844   3.580   1.230   4.473
 2534WAT     H2 7845   3.578   1.227   4.636
 2535WAT      O 7846   5.696   3.280   5.605
 2535WAT     H1 7847   5.791   3.289   5.574
 2535WAT     H2 7848   5.638   3.255   5.528
 2536WAT      O 7849   1.462   5.284   9.837
 2536WAT     H1 7850   1.460   5.320   9.930
 2536WAT     H2 7851   1.506   5.194   9.837
 2537WAT      O 7852   3.874   4.825   8.578
 2537WAT     H1 7853   3.862   4.731   8.612
 2537WAT     H2 7854   3.830   4.835   8.489
 2538WAT      O 7855   4.272   6.180   9.298
 2538WAT     H1 7856   4.232   6.244   9.233
 2538WAT     H2 7857   4.209   6.165   9.374
 2539WAT      O 7858   1.740   4.647   2.773
 2539WAT     H1 7859   1.683   4.573   2.736
 2539WAT     H2 7860   1.719   4.661   2.870
 2540WAT      O 7861   7.509   4.188   4.825
 2540WAT     H1 7862   7.606   4.186   4.803
 2540WAT     H2 7863   7.475   4.094   4.832
 2541WAT      O 7864   3.166   8.609   6.755
 2541WAT     H1 7865   3.121   8.669   6.689
 2541WAT     H2 7866   3.260   8.640   6.769
 2542WAT      O 7867   6.044   0.332   6.305
 2542WAT     H1 7868   6.106   0.257   6.328
 2542WAT     H2 7869   5.964   0.330   6.366
 2543WAT      O 7870   6.743   4.088   6.003
 2543WAT     H1 7871   6.726   4.186   6.009
 2543WAT     H2 7872   6.679   4.047   5.937
 2544WAT      O 7873   7.560   6.551   9.445
 2544WAT     H1 7874   7.597   6.513   9.360
 2544WAT     H2 7875   7.607   6.511   9.523
 2545WAT      O 7876   1.425   1.900   6.818
 2545WAT     H1 7877   1.382   1.888   6.729
 2545WAT     H2 7878   1.365   1.954   6.877
 2546WAT      O 7879   5.479   0.486   0.129
 2546WAT     H1 7880   5.447   0.442   0.046
 2546WAT     H2 7881   5.570   0.525   0.114
 2547WAT      O 7882   2.499   0.922   2.863
 2547WAT     H1 7883   2.527   0.985   2.791
 2547WAT     H2 7884   2.571   0.854   2.878
 2548WAT      O 7885   5.074   1.717   5.141
 2548WAT     H1 7886   5.148   1.738   5.204
 2548WAT     H2 7887   5.006   1.791   5.144
 2549WAT      O 7888   8.900   2.411   3.051
 2549WAT     H1 7889   8.986   2.433   3.003
 2549WAT     H2 7890   8.909   2.434   3.148
 2550WAT      O 7891   3.799   1.246   2.030
 2550WAT     H1 7892   3.808   1.176   2.101
 2550WAT     H2 7893   3.703   1.272   2.021
 2551WAT      O 7894   2.701   5.933   0.694
 2551WAT     H1 7895   2.643   5.974   0.764
 2551WAT     H2 7896   2.671   5.963   0.604
 2552WAT      O 7897   3.715   1.447   8.066
 2552WAT     H1 7898   3.771   1.466   7.986
 2552WAT     H2 7899   3.724   1.522   8.132
 2553WAT      O 7900   1.385   7.729   1.862
 2553WAT     H1 7901   1.412   7.804   1.923
 2553WAT     H2 7902   1.292   7.745   1.829
 2554WAT      O 7903   1.526   6.455   2.039
 2554WAT     H1 7904   1.538   6.498   2.128
 2554WAT     H2 7905   1.607   6.471   1.982
 2555WAT      O 7906   8.719   3.212   3.819
 2555WAT     H1 7907   8.806   3.238   3.861
 2555WAT     H2 7908   8.657   3.290   3.820
 2556WAT      O 7909   4.009   3.029   6.996
 2556WAT     H1 7910   4.071   2.952   7.011
 2556WAT     H2 7911   3.965   3.054   7.082
 2557WAT      O 7912   8.359   3.580   3.420
 2557WAT     H1 7913   8.260   3.568   3.413
 2557WAT     H2 7914   8.405   3.525   3.351
 2558WAT      O 7915   7.290   0.495   2.788
 2558WAT     H1 7916   7.306   0.400   2.817
 2558WAT     H2 7917   7.321   0.557   2.860
 2559WAT      O 7918   8.714   4.999   9.239
 2559WAT     H1 7919   8.658   4.961   9.313
 2559WAT     H2 7920   8.800   4.949   9.233
 2560WAT      O 7921   7.539   4.106   0.756
 2560WAT     H1 7922   7.596   4.186   0.737
 2560WAT     H2 7923   7.445   4.123   0.725
 2561WAT      O 7924   5.107   6.491   9.669
 2561WAT     H1 7925   5.082   6.506   9.765
 2561WAT     H2 7926   5.032   6.444   9.622
 2562WAT      O 7927   0.641   6.338   6.426
 2562WAT     H1 7928   0.545   6.331   6.455
 2562WAT     H2 7929   0.645   6.382   6.336
 2563WAT      O 7930   2.186   9.100   3.434
 2563WAT     H1 7931   2.273   9.052   3.447
 2563WAT     H2 7932   2.202   9.188   3.391
 2564WAT      O 7933   5.374   6.044   3.024
 2564WAT     H1 7934   5.279   6.059   2.997
 2564WAT     H2 7935   5.426   6.012   2.945
 2565WAT      O 7936   0.130   2.242   1.092
 2565WAT     H1 7937   0.128   2.162   1.031
 2565WAT     H2 7938   0.182   2.315   1.049
 2566WAT      O 7939   6.344   5.556   2.816
 2566WAT     H1 7940   6.413   5.619   2.853
 2566WAT     H2 7941   6.389   5.483   2.765
 2567WAT      O 7942   9.730   9.795   6.179
 2567WAT     H1 7943   9.698   9.768   6.088
 2567WAT     H2 7944   9.742   9.714   6.236
 2568WAT      O 7945   2.298   5.725   0.377
 2568WAT     H1 7946   2.313   5.824   0.369
 2568WAT     H2 7947   2.247   5.705   0.460
 2569WAT      O 7948   1.205   2.025   4.843
 2569WAT     H1 7949   1.164   2.077   4.918
 2569WAT     H2 7950   1.273   2.081   4.796
 2570WAT      O 7951   7.544   9.438   3.839
 2570WAT     H1 7952   7.566   9.516   3.898
 2570WAT     H2 7953   7.504   9.365   3.895
 2571WAT      O 7954   7.985   3.781   7.063
 2571WAT     H1 7955   8.007   3.847   7.134
 2571WAT     H2 7956   8.017   3.816   6.974
 2572WAT      O 7957   2.995   0.545   1.883
 2572WAT     H1 7958   2.924   0.531   1.814
 2572WAT     H2 7959   3.023   0.456   1.920
 2573WAT      O 7960   2.112   5.392   4.665
 2573WAT     H1 7961   2.170   5.310   4.670
 2573WAT     H2 7962   2.121   5.443   4.751
 2574WAT      O 7963   1.459   3.482   9.887
 2574WAT     H1 7964   1.488   3.474   9.792
 2574WAT     H2 7965   1.435   3.577   9.907
 2575WAT      O 7966   7.064   9.349   3.758
 2575WAT     H1 7967   7.105   9.286   3.824
 2575WAT     H2 7968   6.965   9.349   3.769
 2576WAT      O 7969   9.204   4.428   2.702
 2576WAT     H1 7970   9.161   4.447   2.614
 2576WAT     H2 7971   9.194   4.331   2.724
 2577WAT      O 7972   6.591   8.528   9.537
 2577WAT     H1 7973   6.546   8.615   9.519
 2577WAT     H2 7974   6.629   8.529   9.630
 2578WAT      O 7975   8.303   9.051   0.981
 2578WAT     H1 7976   8.384   9.051   1.040
 2578WAT     H2 7977   8.285   8.958   0.948
 2579WAT      O 7978   2.746   3.362   7.945
 2579WAT     H1 7979   2.714   3.274   7.982
 2579WAT     H2 7980   2.717   3.371   7.850
 2580WAT      O 7981   1.879   0.189   4.236
 2580WAT     H1 7982   1.843   0.223   4.322
 2580WAT     H2 7983   1.965   0.140   4.253
 2581WAT      O 7984   2.347   9.447   4.357
 2581WAT     H1 7985   2.417   9.440   4.286
 2581WAT     H2 7986   2.387   9.488   4.439
 2582WAT      O 7987   6.289   6.037   5.453
 2582WAT     H1 7988   6.342   5.952   5.458
 2582WAT     H2 7989   6.342   6.106   5.402
 2583WAT      O 7990   0.895   4.987   5.011
 2583WAT     H1 7991   0.902   4.929   5.093
 2583WAT     H2 7992   0.871   5.080   5.038
 2584WAT      O 7993   1.361   5.653   0.321
 2584WAT     H1 7994   1.448   5.693   0.349
 2584WAT     H2 7995   1.285   5.702   0.365
 2585WAT      O 7996   3.400   0.845   1.182
 2585WAT     H1 7997   3.379   0.940   1.157
 2585WAT     H2 7998   3.406   0.838   1.281
 2586WAT      O 7999   5.227   3.752   3.139
 2586WAT     H1 8000   5.281   3.793   3.065
 2586WAT     H2 8001   5.258   3.788   3.227
 2587WAT      O 8002   3.720   4.089   9.808
 2587WAT     H1 8003   3.733   4.189   9.812
 2587WAT     H2 8004   3.809   4.044   9.802
 2588WAT      O 8005   8.932   5.124   8.874
 2588WAT     H1 8006   8.963   5.061   8.803
 2588WAT     H2 8007   8.985   5.109   8.958
 2589WAT      O 8008   3.752   2.487   8.761
 2589WAT     H1 8009   3.817   2.424   8.717
 2589WAT     H2 8010   3.784   2.506   8.854
 2590WAT      O 8011   6.602   7.931   3.752
 2590WAT     H1 8012   6.546   7.913   3.832
 2590WAT     H2 8013   6.581   7.865   3.680
 2591WAT      O 8014   0.726   6.781   3.420
 2591WAT     H1 8015   0.685   6.851   3.361
 2591WAT     H2 8016   0.818   6.808   3.445
 2592WAT      O 8017   2.395   4.332   2.555
 2592WAT     H1 8018   2.306   4.346   2.511
 2592WAT     H2 8019   2.385   4.342   2.654
 2593WAT      O 8020   0.243   4.444   3.214
 2593WAT     H1 8021   0.331   4.492   3.220
 2593WAT     H2 8022   0.195   4.450   3.301
 2594WAT      O 8023   2.897   9.033   4.339
 2594WAT     H1 8024   2.890   8.938   4.310
 2594WAT     H2 8025   2.928   9.089   4.262
 2595WAT      O 8026   2.650   1.500   7.325
 2595WAT     H1 8027   2.669   1.566   7.398
 2595WAT     H2 8028   2.700   1.415   7.344
 2596WAT      O 8029   3.288   8.173   5.096
 2596WAT     H1 8030   3.373   8.143   5.139
 2596WAT     H2 8031   3.238   8.231   5.160
 2597WAT      O 8032   1.629   5.045   9.149
 2597WAT     H1 8033   1.586   5.117   9.202
 2597WAT     H2 8034   1.712   5.014   9.196
 2598WAT      O 8035   5.944   2.409   7.328
 2598WAT     H1 8036   5.877   2.478   7.355
 2598WAT     H2 8037   5.909   2.318   7.350
 2599WAT      O 8038   6.243   6.744   1.209
 2599WAT     H1 8039   6.177   6.709   1.142
 2599WAT     H2 8040   6.333   6.703   1.191
 2600WAT      O 8041   4.085   0.040   4.619
 2600WAT     H1 8042   4.142  -0.030   4.576
 2600WAT     H2 8043   4.045   0.098   4.549
 2601WAT      O 8044   3.654   3.822   1.609
 2601WAT     H1 8045   3.727   3.884   1.636
 2601WAT     H2 8046   3.575   3.834   1.668
 2602WAT      O 8047   5.742   6.084   1.448
 2602WAT     H1 8048   5.693   6.007   1.489
 2602WAT     H2 8049   5.813   6.049   1.387
 2603WAT      O 8050   2.367   2.336   8.903
 2603WAT     H1 8051   2.408   2.425   8.922
 2603WAT     H2 8052   2.371   2.279   8.985
 2604WAT      O 8053   3.734   4.341   2.540
 2604WAT     H1 8054   3.746   4.340   2.639
 2604WAT     H2 8055   3.777   4.423   2.502
 2605WAT      O 8056   3.669   4.868   5.548
 2605WAT     H1 8057   3.642   4.952   5.597
 2605WAT     H2 8058   3.631   4.870   5.456
 2606WAT      O 8059   7.804   7.765   2.669
 2606WAT     H1 8060   7.861   7.795   2.745
 2606WAT     H2 8061   7.833   7.673   2.640
 2607WAT      O 8062   9.625   2.323   6.183
 2607WAT     H1 8063   9.590   2.267   6.109
 2607WAT     H2 8064   9.725   2.324   6.181
 2608WAT      O 8065  -0.004   5.454   7.990
 2608WAT     H1 8066  -0.001   5.538   8.043
 2608WAT     H2 8067   0.079   5.401   8.007
 2609WAT      O 8068   4.943   1.119   2.969
 2609WAT     H1 8069   4.861   1.091   3.019
 2609WAT     H2 8070   4.933   1.213   2.938
 2610WAT      O 8071   2.152   0.807   7.798
 2610WAT     H1 8072   2.084   0.841   7.733
 2610WAT     H2 8073   2.118   0.723   7.841
 2611WAT      O 8074   4.472   9.198   7.066
 2611WAT     H1 8075   4.529   9.145   7.128
 2611WAT     H2 8076   4.468   9.153   6.977
 2612WAT      O 8077   2.682   2.020   2.005
 2612WAT     H1 8078   2.627   2.099   1.977
 2612WAT     H2 8079   2.761   2.011   1.944
 2613WAT      O 8080   1.698   3.028   5.512
 2613WAT     H1 8081   1.617   3.036   5.454
 2613WAT     H2 8082   1.670   2.995   5.602
 2614WAT      O 8083   1.416   9.212   4.540
 2614WAT     H1 8084   1.425   9.310   4.561
 2614WAT     H2 8085   1.476   9.159   4.601
 2615WAT      O 8086   2.305   5.986   3.933
 2615WAT     H1 8087   2.404   5.985   3.947
 2615WAT     H2 8088   2.272   6.081   3.938
 2616WAT      O 8089   1.429   6.900   4.919
 2616WAT     H1 8090   1.443   6.856   4.830
 2616WAT     H2 8091   1.331   6.912   4.936
 2617WAT      O 8092   2.574   8.268   2.553
 2617WAT     H1 8093   2.562   8.180   2.508
 2617WAT     H2 8094   2.585   8.254   2.651
 2618WAT      O 8095   2.284   8.760   8.559
 2618WAT     H1 8096   2.242   8.670   8.545
 2618WAT     H2 8097   2.311   8.798   8.471
 2619WAT      O 8098   4.600   9.484   4.260
 2619WAT     H1 8099   4.540   9.407   4.279
 2619WAT     H2 8100   4.679   9.481   4.322
 2620WAT      O 8101   8.114   5.019   5.218
 2620WAT     H1 8102   8.083   5.020   5.123
 2620WAT     H2 8103   8.098   4.928   5.257
 2621WAT      O 8104   5.726   8.660   6.355
 2621WAT     H1 8105   5.780   8.743   6.345
 2621WAT     H2 8106   5.657   8.673   6.426
 2622WAT      O 8107   1.441   3.863   1.381
 2622WAT     H1 8108   1.389   3.831   1.460
 2622WAT     H2 8109   1.380   3.911   1.318
 2623WAT      O 8110   0.899   1.611   7.843
 2623WAT     H1 8111   0.862   1.522   7.815
 2623WAT     H2 8112   0.825   1.671   7.871
 2624WAT      O 8113   8.477   4.707   6.033
 2624WAT     H1 8114   8.542   4.683   6.105
 2624WAT     H2 8115   8.466   4.630   5.971
 2625WAT      O 8116   5.706   8.060   3.824
 2625WAT     H1 8117   5.756   7.988   3.776
 2625WAT     H2 8118   5.707   8.042   3.922
 2626WAT      O 8119   8.533   6.514   9.238
 2626WAT     H1 8120   8.571   6.538   9.327
 2626WAT     H2 8121   8.440   6.479   9.250
 2627WAT      O 8122   7.362   1.284   2.226
 2627WAT     H1 8123   7.321   1.267   2.137
 2627WAT     H2 8124   7.423   1.209   2.250
 2628WAT      O 8125   5.446   2.090   5.954
 2628WAT     H1 8126   5.480   2.018   6.015
 2628WAT     H2 8127   5.391   2.048   5.881
 2629WAT      O 8128   2.626   1.691   3.107
 2629WAT     H1 8129   2.710   1.744   3.095
 2629WAT     H2 8130   2.551   1.737   3.059
 2630WAT      O 8131   1.561   2.394   9.783
 2630WAT     H1 8132   1.596   2.301   9.773
 2630WAT     H2 8133   1.617   2.457   9.728
 2631WAT      O 8134   3.778   7.865   4.256
 2631WAT     H1 8135   3.807   7.941   4.197
 2631WAT     H2 8136   3.695   7.824   4.220
 2632WAT      O 8137   0.421   0.339   8.540
 2632WAT     H1 8138   0.501   0.334   8.600
 2632WAT     H2 8139   0.418   0.429   8.497
 2633WAT      O 8140   4.298   9.703   1.071
 2633WAT     H1 8141   4.234   9.688   0.996
 2633WAT     H2 8142   4.335   9.796   1.065
 2634WAT      O 8143   3.408   9.043   3.753
 2634WAT     H1 8144   3.427   9.090   3.839
 2634WAT     H2 8145   3.492   9.036   3.699
 2635WAT      O 8146   2.861   6.591   8.098
 2635WAT     H1 8147   2.770   6.628   8.117
 2635WAT     H2 8148   2.894   6.541   8.178
 2636WAT      O 8149   2.276   3.595   2.292
 2636WAT     H1 8150   2.306   3.681   2.251
 2636WAT     H2 8151   2.323   3.519   2.247
 2637WAT      O 8152   6.906   1.592   5.883
 2637WAT     H1 8153   6.918   1.522   5.812
 2637WAT     H2 8154   6.957   1.674   5.857
 2638WAT      O 8155   5.551   0.789   7.482
 2638WAT     H1 8156   5.543   0.732   7.400
 2638WAT     H2 8157   5.588   0.734   7.557
 2639WAT      O 8158   8.899   0.034   9.199
 2639WAT     H1 8159   8.934   0.013   9.290
 2639WAT     H2 8160   8.885   0.133   9.190
 2640WAT      O 8161   5.131   0.835   3.717
 2640WAT     H1 8162   5.184   0.834   3.802
 2640WAT     H2 8163   5.119   0.930   3.687
 2641WAT      O 8164   4.335   4.588   8.907
 2641WAT     H1 8165   4.381   4.650   8.843
 2641WAT     H2 8166   4.238   4.610   8.911
 2642WAT      O 8167   0.777   3.496   7.463
 2642WAT     H1 8168   0.788   3.581   7.515
 2642WAT     H2 8169   0.748   3.423   7.526
 2643WAT      O 8170   7.471   8.177   8.591
 2643WAT     H1 8171   7.389   8.235   8.582
 2643WAT     H2 8172   7.463   8.121   8.674
 2644WAT      O 8173   6.289   0.276   3.878
 2644WAT     H1 8174   6.228   0.229   3.814
 2644WAT     H2 8175   6.378   0.289   3.834
 2645WAT      O 8176   4.123   6.623   8.970
 2645WAT     H1 8177   4.147   6.571   8.888
 2645WAT     H2 8178   4.090   6.561   9.041
 2646WAT      O 8179   0.244   0.270   1.301
 2646WAT     H1 8180   0.344   0.268   1.293
 2646WAT     H2 8181   0.215   0.194   1.360
 2647WAT      O 8182   7.552   3.063   9.569
 2647WAT     H1 8183   7.624   3.129   9.591
 2647WAT     H2 8184   7.510   3.028   9.653
 2648WAT      O 8185   0.065   5.705   4.313
 2648WAT     H1 8186   0.039   5.776   4.248
 2648WAT     H2 8187   0.111   5.631   4.264
 2649WAT      O 8188   9.399   3.302   4.996
 2649WAT     H1 8189   9.352   3.353   5.069
 2649WAT     H2 8190   9.489   3.342   4.981
 2650WAT      O 8191   5.197   8.805   4.048
 2650WAT     H1 8192   5.167   8.723   4.096
 2650WAT     H2 8193   5.128   8.832   3.981
 2651WAT      O 8194   2.681   5.177   0.756
 2651WAT     H1 8195   2.645   5.108   0.818
 2651WAT     H2 8196   2.624   5.183   0.674
 2652WAT      O 8197   3.560   4.252   8.645
 2652WAT     H1 8198   3.501   4.191   8.593
 2652WAT     H2 8199   3.508   4.332   8.676
 2653WAT      O 8200   5.860   7.517   7.057
 2653WAT     H1 8201   5.945   7.563   7.079
 2653WAT     H2 8202   5.842   7.445   7.123
 2654WAT      O 8203   5.291   3.402   4.837
 2654WAT     H1 8204   5.246   3.482   4.798
 2654WAT     H2 8205   5.323   3.343   4.762
 2655WAT      O 8206   3.679   9.501   3.780
 2655WAT     H1 8207   3.633   9.423   3.738
 2655WAT     H2 8208   3.611   9.564   3.817
 2656WAT      O 8209   0.722   1.583   4.363
 2656WAT     H1 8210   0.811   1.571   4.407
 2656WAT     H2 8211   0.677   1.494   4.353
 2657WAT      O 8212   7.187   0.678   2.145
 2657WAT     H1 8213   7.193   0.595   2.199
 2657WAT     H2 8214   7.259   0.742   2.172
 2658WAT      O 8215   1.568   4.358   0.714
 2658WAT     H1 8216   1.556   4.280   0.775
 2658WAT     H2 8217   1.553   4.330   0.619
 2659WAT      O 8218   8.071   2.500   3.986
 2659WAT     H1 8219   7.973   2.481   3.977
 2659WAT     H2 8220   8.085   2.566   4.059
 2660WAT      O 8221   3.037   4.516   4.105
 2660WAT     H1 8222   3.081   4.496   4.018
 2660WAT     H2 8223   3.042   4.436   4.164
 2661WAT      O 8224   8.949   6.574   5.255
 2661WAT     H1 8225   8.953   6.580   5.354
 2661WAT     H2 8226   8.895   6.494   5.228
 2662WAT      O 8227   5.613   0.765   2.640
 2662WAT     H1 8228   5.661   0.845   2.603
 2662WAT     H2 8229   5.598   0.698   2.567
 2663WAT      O 8230   4.679   2.001   5.230
 2663WAT     H1 8231   4.606   1.946   5.270
 2663WAT     H2 8232   4.670   2.096   5.262
 2664WAT      O 8233   1.142   9.586   6.960
 2664WAT     H1 8234   1.061   9.624   7.005
 2664WAT     H2 8235   1.113   9.526   6.886
 2665WAT      O 8236   6.794   6.478   4.791
 2665WAT     H1 8237   6.769   6.381   4.789
 2665WAT     H2 8238   6.755   6.521   4.872
 2666WAT      O 8239   2.459   0.031   5.734
 2666WAT     H1 8240   2.530  -0.040   5.739
 2666WAT     H2 8241   2.369  -0.012   5.727
 2667WAT      O 8242   4.492   5.177   1.555
 2667WAT     H1 8243   4.475   5.087   1.514
 2667WAT     H2 8244   4.567   5.171   1.620
 2668WAT      O 8245   9.546   1.695   9.029
 2668WAT     H1 8246   9.531   1.619   8.966
 2668WAT     H2 8247   9.529   1.664   9.123
 2669WAT      O 8248   2.842   2.263   3.166
 2669WAT     H1 8249   2.759   2.206   3.166
 2669WAT     H2 8250   2.837   2.328   3.241
 2670WAT      O 8251   9.857   6.325   8.874
 2670WAT     H1 8252   9.795   6.380   8.931
 2670WAT     H2 8253   9.803   6.260   8.821
 2671WAT      O 8254   4.525   8.329   2.387
 2671WAT     H1 8255   4.592   8.358   2.454
 2671WAT     H2 8256   4.506   8.403   2.323
 2672WAT      O 8257   8.495   3.191   9.699
 2672WAT     H1 8258   8.444   3.270   9.734
 2672WAT     H2 8259   8.479   3.181   9.601
 2673WAT      O 8260   6.620   2.895   8.897
 2673WAT     H1 8261   6.715   2.916   8.872
 2673WAT     H2 8262   6.559   2.918   8.822
 2674WAT      O 8263   8.533   7.536   5.090
 2674WAT     H1 8264   8.438   7.507   5.105
 2674WAT     H2 8265   8.535   7.613   5.027
 2675WAT      O 8266   5.055   0.830   0.746
 2675WAT     H1 8267   4.962   0.866   0.737
 2675WAT     H2 8268   5.099   0.870   0.827
 2676WAT      O 8269   2.655   2.796   4.867
 2676WAT     H1 8270   2.717   2.868   4.899
 2676WAT     H2 8271   2.612   2.752   4.946
 2677WAT      O 8272   2.532   3.198   5.668
 2677WAT     H1 8273   2.527   3.108   5.711
 2677WAT     H2 8274   2.520   3.269   5.737
 2678WAT      O 8275   8.635   0.895   5.675
 2678WAT     H1 8276   8.624   0.983   5.721
 2678WAT     H2 8277   8.732   0.870   5.674
 2679WAT      O 8278   3.531   8.447   7.502
 2679WAT     H1 8279   3.454   8.425   7.443
 2679WAT     H2 8280   3.606   8.383   7.485
 2680WAT      O 8281   9.638   0.534   4.810
 2680WAT     H1 8282   9.719   0.501   4.858
 2680WAT     H2 8283   9.655   0.534   4.711
 2681WAT      O 8284   0.685   1.660   3.358
 2681WAT     H1 8285   0.682   1.691   3.263
 2681WAT     H2 8286   0.593   1.641   3.390
 2682WAT      O 8287   5.080   4.821   9.489
 2682WAT     H1 8288   5.149   4.837   9.560
 2682WAT     H2 8289   5.118   4.762   9.418
 2683WAT      O 8290   2.365   6.237   1.889
 2683WAT     H1 8291   2.294   6.167   1.888
 2683WAT     H2 8292   2.403   6.247   1.797
 2684WAT      O 8293   5.992   1.619   9.503
 2684WAT     H1 8294   5.937   1.684   9.557
 2684WAT     H2 8295   6.001   1.533   9.554
 2685WAT      O 8296   1.029   8.681   9.522
 2685WAT     H1 8297   1.128   8.673   9.535
 2685WAT     H2 8298   0.984   8.599   9.557
 2686WAT      O 8299   7.855   4.664   9.772
 2686WAT     H1 8300   7.786   4.691   9.704
 2686WAT     H2 8301   7.839   4.713   9.857
 2687WAT      O 8302   2.806   7.781   2.254
 2687WAT     H1 8303   2.751   7.860   2.226
 2687WAT     H2 8304   2.842   7.734   2.174
 2688WAT      O 8305   8.172   1.578   1.986
 2688WAT     H1 8306   8.197   1.499   1.930
 2688WAT     H2 8307   8.122   1.644   1.930
 2689WAT      O 8308   9.648   3.609   2.197
 2689WAT     H1 8309   9.669   3.657   2.282
 2689WAT     H2 8310   9.713   3.637   2.126
 2690WAT      O 8311   4.895   0.693   5.308
 2690WAT     H1 8312   4.966   0.764   5.310
 2690WAT     H2 8313   4.811   0.729   5.348
 2691WAT      O 8314   5.016   8.747   3.402
 2691WAT     H1 8315   5.042   8.653   3.425
 2691WAT     H2 8316   5.032   8.762   3.305
 2692WAT      O 8317   2.453   3.327   5.156
 2692WAT     H1 8318   2.469   3.426   5.149
 2692WAT     H2 8319   2.372   3.311   5.212
 2693WAT      O 8320   9.236   8.321   4.408
 2693WAT     H1 8321   9.217   8.228   4.437
 2693WAT     H2 8322   9.290   8.320   4.324
 2694WAT      O 8323   1.267   5.973   0.035
 2694WAT     H1 8324   1.326   5.896   0.009
 2694WAT     H2 8325   1.185   5.973  -0.023
 2695WAT      O 8326   5.896   4.272   9.526
 2695WAT     H1 8327   5.926   4.316   9.611
 2695WAT     H2 8328   5.962   4.290   9.454
 2696WAT      O 8329   8.111   7.561   8.065
 2696WAT     H1 8330   8.172   7.495   8.020
 2696WAT     H2 8331   8.050   7.512   8.128
 2697WAT      O 8332   7.496   9.192   2.329
 2697WAT     H1 8333   7.553   9.255   2.383
 2697WAT     H2 8334   7.527   9.193   2.234
 2698WAT      O 8335   6.523   6.249   4.879
 2698WAT     H1 8336   6.425   6.243   4.862
 2698WAT     H2 8337   6.539   6.292   4.968
 2699WAT      O 8338   0.765   0.445   6.511
 2699WAT     H1 8339   0.706   0.517   6.546
 2699WAT     H2 8340   0.849   0.441   6.566
 2700WAT      O 8341   3.991   6.818   2.917
 2700WAT     H1 8342   4.027   6.910   2.906
 2700WAT     H2 8343   4.006   6.788   3.012
 2701WAT      O 8344   3.237   6.148   7.675
 2701WAT     H1 8345   3.227   6.233   7.727
 2701WAT     H2 8346   3.304   6.163   7.602
 2702WAT      O 8347   7.208   1.051   8.500
 2702WAT     H1 8348   7.301   1.086   8.490
 2702WAT     H2 8349   7.211   0.960   8.541
 2703WAT      O 8350   2.146   7.713   7.309
 2703WAT     H1 8351   2.189   7.773   7.377
 2703WAT     H2 8352   2.089   7.645   7.356
 2704WAT      O 8353   8.353   6.674   0.183
 2704WAT     H1 8354   8.265   6.710   0.153
 2704WAT     H2 8355   8.352   6.574   0.181
 2705WAT      O 8356   0.658   7.326   3.890
 2705WAT     H1 8357   0.614   7.390   3.953
 2705WAT     H2 8358   0.725   7.271   3.940
 2706WAT      O 8359   6.771   7.927   2.680
 2706WAT     H1 8360   6.731   7.902   2.592
 2706WAT     H2 8361   6.727   7.875   2.753
 2707WAT      O 8362   0.423   2.355   0.787
 2707WAT     H1 8363   0.369   2.405   0.719
 2707WAT     H2 8364   0.377   2.360   0.876
 2708WAT      O 8365   5.507   7.648   5.633
 2708WAT     H1 8366   5.548   7.738   5.623
 2708WAT     H2 8367   5.555   7.583   5.574
 2709WAT      O 8368   6.077   2.510   8.649
 2709WAT     H1 8369   6.087   2.600   8.608
 2709WAT     H2 8370   6.117   2.441   8.588
 2710WAT      O 8371   2.434   5.174   2.573
 2710WAT     H1 8372   2.417   5.117   2.493
 2710WAT     H2 8373   2.363   5.158   2.641
 2711WAT      O 8374   0.425   1.713   5.518
 2711WAT     H1 8375   0.461   1.620   5.507
 2711WAT     H2 8376   0.430   1.739   5.615
 2712WAT      O 8377   5.424   3.992   8.420
 2712WAT     H1 8378   5.365   3.974   8.342
 2712WAT     H2 8379   5.373   3.980   8.505
 2713WAT      O 8380   7.667   3.416   0.468
 2713WAT     H1 8381   7.577   3.432   0.426
 2713WAT     H2 8382   7.675   3.472   0.551
 2714WAT      O 8383   3.049   7.454   9.501
 2714WAT     H1 8384   3.118   7.394   9.542
 2714WAT     H2 8385   3.075   7.550   9.517
 2715WAT      O 8386   1.591   6.987   9.645
 2715WAT     H1 8387   1.649   6.933   9.583
 2715WAT     H2 8388   1.564   7.071   9.600
 2716WAT      O 8389   6.349   2.947   7.487
 2716WAT     H1 8390   6.336   2.892   7.569
 2716WAT     H2 8391   6.435   2.998   7.494
 2717WAT      O 8392   2.246   2.446   2.967
 2717WAT     H1 8393   2.250   2.463   2.868
 2717WAT     H2 8394   2.203   2.358   2.984
 2718WAT      O 8395   2.372   7.160   9.714
 2718WAT     H1 8396   2.351   7.112   9.628
 2718WAT     H2 8397   2.346   7.103   9.791
 2719WAT      O 8398   3.685   0.236   6.705
 2719WAT     H1 8399   3.632   0.321   6.702
 2719WAT     H2 8400   3.624   0.159   6.723
 2720WAT      O 8401   0.239   3.909   4.890
 2720WAT     H1 8402   0.318   3.963   4.920
 2720WAT     H2 8403   0.207   3.851   4.965
 2721WAT      O 8404   5.266   6.435   4.770
 2721WAT     H1 8405   5.279   6.512   4.832
 2721WAT     H2 8406   5.348   6.421   4.715
 2722WAT      O 8407   6.211   5.888   5.679
 2722WAT     H1 8408   6.230   5.969   5.624
 2722WAT     H2 8409   6.296   5.842   5.703
 2723WAT      O 8410   9.184   7.231   2.385
 2723WAT     H1 8411   9.127   7.313   2.377
 2723WAT     H2 8412   9.230   7.214   2.297
 2724WAT      O 8413   6.195   8.951   4.352
 2724WAT     H1 8414   6.109   8.903   4.333
 2724WAT     H2 8415   6.189   8.996   4.441
 2725WAT      O 8416   7.587   1.385   8.796
 2725WAT     H1 8417   7.675   1.388   8.748
 2725WAT     H2 8418   7.575   1.469   8.849
 2726WAT      O 8419   3.952   4.062   2.349
 2726WAT     H1 8420   4.022   4.000   2.385
 2726WAT     H2 8421   3.922   4.125   2.421
 2727WAT      O 8422   5.954   1.413   7.918
 2727WAT     H1 8423   5.925   1.349   7.847
 2727WAT     H2 8424   5.968   1.364   8.004
 2728WAT      O 8425   2.041   8.179   6.685
 2728WAT     H1 8426   2.115   8.117   6.658
 2728WAT     H2 8427   2.080   8.264   6.719
 2729WAT      O 8428   7.326   6.675   6.416
 2729WAT     H1 8429   7.228   6.696   6.423
 2729WAT     H2 8430   7.341   6.580   6.444
 2730WAT      O 8431   7.147   0.786   8.574
 2730WAT     H1 8432   7.113   0.692   8.571
 2730WAT     H2 8433   7.120   0.835   8.491
 2731WAT      O 8434   9.132   4.321   9.053
 2731WAT     H1 8435   9.049   4.374   9.067
 2731WAT     H2 8436   9.160   4.327   8.957
 2732WAT      O 8437   4.813   2.050   7.418
 2732WAT     H1 8438   4.756   1.992   7.476
 2732WAT     H2 8439   4.879   1.993   7.369
 2733WAT      O 8440   4.709   6.287   9.873
 2733WAT     H1 8441   4.741   6.366   9.820
 2733WAT     H2 8442   4.733   6.203   9.825
 2734WAT      O 8443   6.341   9.048   5.762
 2734WAT     H1 8444   6.339   8.950   5.782
 2734WAT     H2 8445   6.396   9.065   5.681
 2735WAT      O 8446   7.925   9.280   9.433
 2735WAT     H1 8447   7.828   9.292   9.409
 2735WAT     H2 8448   7.951   9.347   9.502
 2736WAT      O 8449   6.661   2.307   1.166
 2736WAT     H1 8450   6.637   2.254   1.085
 2736WAT     H2 8451   6.723   2.254   1.223
 2737WAT      O 8452   2.546   8.194   0.990
 2737WAT     H1 8453   2.569   8.285   1.026
 2737WAT     H2 8454   2.564   8.125   1.060
 2738WAT      O 8455   3.882   0.752   0.714
 2738WAT     H1 8456   3.846   0.845   0.714
 2738WAT     H2 8457   3.807   0.688   0.729
 2739WAT      O 8458   0.259   1.109   3.416
 2739WAT     H1 8459   0.197   1.174   3.372
 2739WAT     H2 8460   0.271   1.029   3.358
 2740WAT      O 8461   2.234   4.272   8.697
 2740WAT     H1 8462   2.151   4.235   8.653
 2740WAT     H2 8463   2.230   4.253   8.795
 2741WAT      O 8464   1.795   5.293   0.910
 2741WAT     H1 8465   1.713   5.246   0.876
 2741WAT     H2 8466   1.805   5.380   0.862
 2742WAT      O 8467   1.984   5.402   2.224
 2742WAT     H1 8468   2.033   5.346   2.292
 2742WAT     H2 8469   1.960   5.490   2.265
 2743WAT      O 8470   7.132   0.677   4.071
 2743WAT     H1 8471   7.171   0.619   4.142
 2743WAT     H2 8472   7.187   0.669   3.987
 2744WAT      O 8473   1.935   7.382   5.610
 2744WAT     H1 8474   1.994   7.305   5.587
 2744WAT     H2 8475   1.937   7.397   5.709
 2745WAT      O 8476   6.935   6.957   6.706
 2745WAT     H1 8477   6.943   7.053   6.681
 2745WAT     H2 8478   6.896   6.905   6.630
 2746WAT      O 8479   1.097   7.411   4.692
 2746WAT     H1 8480   1.016   7.445   4.740
 2746WAT     H2 8481   1.167   7.482   4.690
 2747WAT      O 8482   5.501   9.125   9.109
 2747WAT     H1 8483   5.479   9.211   9.061
 2747WAT     H2 8484   5.576   9.141   9.173
 2748WAT      O 8485   5.805   8.631   1.313
 2748WAT     H1 8486   5.875   8.601   1.377
 2748WAT     H2 8487   5.764   8.550   1.269
 2749WAT      O 8488   3.912   7.700   7.568
 2749WAT     H1 8489   3.903   7.799   7.581
 2749WAT     H2 8490   3.894   7.653   7.655
 2750WAT      O 8491   2.659   8.037   4.869
 2750WAT     H1 8492   2.582   8.100   4.857
 2750WAT     H2 8493   2.631   7.945   4.841
 2751WAT      O 8494   3.826   5.620   7.991
 2751WAT     H1 8495   3.841   5.711   7.951
 2751WAT     H2 8496   3.881   5.553   7.942
 2752WAT      O 8497   6.098   4.727   5.196
 2752WAT     H1 8498   6.135   4.819   5.208
 2752WAT     H2 8499   6.070   4.690   5.285
 2753WAT      O 8500   9.832   6.085   2.310
 2753WAT     H1 8501   9.819   5.987   2.294
 2753WAT     H2 8502   9.822   6.135   2.224
 2754WAT      O 8503   6.978   9.680   8.948
 2754WAT     H1 8504   6.893   9.632   8.927
 2754WAT     H2 8505   6.970   9.775   8.920
 2755WAT      O 8506   2.951   4.444   0.277
 2755WAT     H1 8507   2.878   4.381   0.304
 2755WAT     H2 8508   2.910   4.531   0.247
 2756WAT      O 8509   1.780   4.589   1.034
 2756WAT     H1 8510   1.840   4.641   1.096
 2756WAT     H2 8511   1.698   4.642   1.015
 2757WAT      O 8512   1.853   0.716   6.657
 2757WAT     H1 8513   1.868   0.620   6.632
 2757WAT     H2 8514   1.892   0.733   6.748
 2758WAT      O 8515   9.165   2.772   1.313
 2758WAT     H1 8516   9.126   2.863   1.326
 2758WAT     H2 8517   9.187   2.760   1.216
 2759WAT      O 8518   6.454   6.490   8.519
 2759WAT     H1 8519   6.545   6.447   8.519
 2759WAT     H2 8520   6.392   6.437   8.462
 2760WAT      O 8521   5.720   1.538   2.693
 2760WAT     H1 8522   5.666   1.612   2.733
 2760WAT     H2 8523   5.670   1.452   2.702
 2761WAT      O 8524   3.912   0.960   9.181
 2761WAT     H1 8525   4.006   0.995   9.187
 2761WAT     H2 8526   3.891   0.906   9.263
 2762WAT      O 8527   3.714   8.247   9.499
 2762WAT     H1 8528   3.776   8.176   9.534
 2762WAT     H2 8529   3.768   8.321   9.459
 2763WAT      O 8530   0.748   7.073   7.166
 2763WAT     H1 8531   0.752   6.984   7.211
 2763WAT     H2 8532   0.832   7.124   7.186
 2764WAT      O 8533   1.569   7.236   9.526
 2764WAT     H1 8534   1.632   7.279   9.591
 2764WAT     H2 8535   1.575   7.284   9.438
 2765WAT      O 8536   6.666   2.981   0.143
 2765WAT     H1 8537   6.671   2.995   0.044
 2765WAT     H2 8538   6.660   2.883   0.162
 2766WAT      O 8539   8.243   1.929   2.982
 2766WAT     H1 8540   8.263   1.841   3.026
 2766WAT     H2 8541   8.316   1.951   2.917
 2767WAT      O 8542   0.650   3.307   8.383
 2767WAT     H1 8543   0.632   3.238   8.314
 2767WAT     H2 8544   0.568   3.362   8.399
 2768WAT      O 8545   6.600   2.176   0.942
 2768WAT     H1 8546   6.671   2.107   0.926
 2768WAT     H2 8547   6.518   2.151   0.890
 2769WAT      O 8548   1.198   5.738   9.363
 2769WAT     H1 8549   1.119   5.779   9.318
 2769WAT     H2 8550   1.277   5.799   9.352
 2770WAT      O 8551   8.809   2.473   9.497
 2770WAT     H1 8552   8.863   2.394   9.526
 2770WAT     H2 8553   8.740   2.444   9.431
 2771WAT      O 8554   1.467   4.356   2.012
 2771WAT     H1 8555   1.410   4.412   1.953
 2771WAT     H2 8556   1.411   4.284   2.055
 2772WAT      O 8557   7.967   4.778   3.430
 2772WAT     H1 8558   7.871   4.775   3.404
 2772WAT     H2 8559   7.975   4.795   3.529
 2773WAT      O 8560   8.395   9.452   2.984
 2773WAT     H1 8561   8.364   9.546   2.967
 2773WAT     H2 8562   8.316   9.390   2.978
 2774WAT      O 8563   9.751   3.262   6.867
 2774WAT     H1 8564   9.758   3.212   6.954
 2774WAT     H2 8565   9.835   3.313   6.851
 2775WAT      O 8566   1.158   3.072   8.285
 2775WAT     H1 8567   1.148   3.166   8.254
 2775WAT     H2 8568   1.098   3.013   8.231
 2776WAT      O 8569   5.552   6.385   9.578
 2776WAT     H1 8570   5.531   6.373   9.481
 2776WAT     H2 8571   5.570   6.482   9.596
 2777WAT      O 8572   8.367   3.896   7.342
 2777WAT     H1 8573   8.424   3.978   7.338
 2777WAT     H2 8574   8.425   3.817   7.359
 2778WAT      O 8575   7.823   8.749   4.150
 2778WAT     H1 8576   7.890   8.822   4.133
 2778WAT     H2 8577   7.818   8.689   4.070
 2779WAT      O 8578   4.063   5.340   3.200
 2779WAT     H1 8579   4.110   5.389   3.273
 2779WAT     H2 8580   4.051   5.245   3.226
 2780WAT      O 8581   3.795   0.160   0.448
 2780WAT     H1 8582   3.889   0.126   0.447
 2780WAT     H2 8583   3.734   0.090   0.412
 2781WAT      O 8584   1.535   5.624   2.418
 2781WAT     H1 8585   1.457   5.574   2.380
 2781WAT     H2 8586   1.570   5.688   2.351
 2782WAT      O 8587   4.295   7.815   0.278
 2782WAT     H1 8588   4.303   7.913   0.259
 2782WAT     H2 8589   4.209   7.797   0.325
 2783WAT      O 8590   7.859   1.821   4.576
 2783WAT     H1 8591   7.772   1.824   4.527
 2783WAT     H2 8592   7.881   1.913   4.610
 2784WAT      O 8593   5.379   1.362   1.945
 2784WAT     H1 8594   5.356   1.409   2.030
 2784WAT     H2 8595   5.373   1.263   1.959
 2785WAT      O 8596   0.279   7.774   0.398
 2785WAT     H1 8597   0.258   7.794   0.494
 2785WAT     H2 8598   0.308   7.679   0.389
 2786WAT      O 8599   2.555   3.407   0.581
 2786WAT     H1 8600   2.570   3.322   0.530
 2786WAT     H2 8601   2.640   3.434   0.627
 2787WAT      O 8602   5.574   3.406   7.804
 2787WAT     H1 8603   5.646   3.443   7.746
 2787WAT     H2 8604   5.611   3.383   7.894
 2788WAT      O 8605   1.984   1.612   1.235
 2788WAT     H1 8606   1.959   1.557   1.155
 2788WAT     H2 8607   1.952   1.706   1.222
 2789WAT      O 8608   1.231   4.948   0.350
 2789WAT     H1 8609   1.315   4.893   0.349
 2789WAT     H2 8610   1.152   4.888   0.366
 2790WAT      O 8611   0.714   5.272   5.140
 2790WAT     H1 8612   0.669   5.210   5.076
 2790WAT     H2 8613   0.804   5.296   5.104
 2791WAT      O 8614   6.177   9.155   6.557
 2791WAT     H1 8615   6.256   9.204   6.593
 2791WAT     H2 8616   6.207   9.074   6.507
 2792WAT      O 8617   8.424   1.867   2.604
 2792WAT     H1 8618   8.408   1.770   2.588
 2792WAT     H2 8619   8.421   1.917   2.517
 2793WAT      O 8620   1.097   7.923   6.151
 2793WAT     H1 8621   1.160   7.992   6.117
 2793WAT     H2 8622   1.064   7.866   6.075
 2794WAT      O 8623   5.116   5.336   3.009
 2794WAT     H1 8624   5.158   5.402   3.071
 2794WAT     H2 8625   5.017   5.347   3.011
 2795WAT      O 8626   4.346   4.136   1.833
 2795WAT     H1 8627   4.284   4.185   1.895
 2795WAT     H2 8628   4.332   4.169   1.740
 2796WAT      O 8629   7.638   3.279   2.838
 2796WAT     H1 8630   7.605   3.344   2.769
 2796WAT     H2 8631   7.585   3.289   2.922
 2797WAT      O 8632   7.957   2.330   5.595
 2797WAT     H1 8633   7.942   2.245   5.646
 2797WAT     H2 8634   7.895   2.401   5.629
 2798WAT      O 8635   7.200   5.478   5.527
 2798WAT     H1 8636   7.151   5.440   5.605
 2798WAT     H2 8637   7.224   5.573   5.546
 2799WAT      O 8638   7.924   4.864   8.675
 2799WAT     H1 8639   7.839   4.859   8.623
 2799WAT     H2 8640   7.920   4.942   8.738
 2800WAT      O 8641   2.842   5.404   1.771
 2800WAT     H1 8642   2.763   5.356   1.733
 2800WAT     H2 8643   2.891   5.343   1.834
 2801WAT      O 8644   5.970   6.776   6.473
 2801WAT     H1 8645   5.892   6.721   6.502
 2801WAT     H2 8646   5.942   6.839   6.401
 2802WAT      O 8647   7.480   6.522   7.067
 2802WAT     H1 8648   7.554   6.527   7.000
 2802WAT     H2 8649   7.421   6.603   7.057
 2803WAT      O 8650   7.343   4.344   7.722
 2803WAT     H1 8651   7.440   4.363   7.708
 2803WAT     H2 8652   7.321   4.348   7.820
 2804WAT      O 8653   7.409   3.029   3.134
 2804WAT     H1 8654   7.352   2.956   3.172
 2804WAT     H2 8655   7.505   3.012   3.158
 2805WAT      O 8656   4.242   4.510   0.333
 2805WAT     H1 8657   4.273   4.586   0.277
 2805WAT     H2 8658   4.167   4.541   0.393
 2806WAT      O 8659   3.200   4.705   1.880
 2806WAT     H1 8660   3.268   4.702   1.953
 2806WAT     H2 8661   3.237   4.755   1.802
 2807WAT      O 8662   0.683   2.692   0.201
 2807WAT     H1 8663   0.766   2.641   0.178
 2807WAT     H2 8664   0.622   2.693   0.121
 2808WAT      O 8665   5.897   3.144   7.888
 2808WAT     H1 8666   5.994   3.132   7.869
 2808WAT     H2 8667   5.885   3.215   7.957
 2809WAT      O 8668   4.250   2.167   4.754
 2809WAT     H1 8669   4.257   2.075   4.793
 2809WAT     H2 8670   4.179   2.168   4.683
 2810WAT      O 8671   4.796   7.523   5.576
 2810WAT     H1 8672   4.846   7.459   5.634
 2810WAT     H2 8673   4.848   7.609   5.568
 2811WAT      O 8674   8.027   9.462   9.665
 2811WAT     H1 8675   8.025   9.559   9.643
 2811WAT     H2 8676   8.096   9.417   9.608
 2812WAT      O 8677   5.728   1.963   4.414
 2812WAT     H1 8678   5.688   1.999   4.498
 2812WAT     H2 8679   5.764   2.038   4.359
 2813WAT      O 8680   6.761   0.799   0.417
 2813WAT     H1 8681   6.816   0.862   0.364
 2813WAT     H2 8682   6.789   0.705   0.397
 2814WAT      O 8683   7.663   8.184   2.798
 2814WAT     H1 8684   7.618   8.244   2.731
 2814WAT     H2 8685   7.737   8.233   2.842
 2815WAT      O 8686   6.344   3.429   2.929
 2815WAT     H1 8687   6.391   3.342   2.944
 2815WAT     H2 8688   6.281   3.446   3.005
 2816WAT      O 8689   1.634   2.770   4.523
 2816WAT     H1 8690   1.639   2.712   4.604
 2816WAT     H2 8691   1.589   2.856   4.546
 2817WAT      O 8692   5.167   0.831   1.637
 2817WAT     H1 8693   5.218   0.829   1.723
 2817WAT     H2 8694   5.122   0.920   1.626
 2818WAT      O 8695   4.289   8.313   8.000
 2818WAT     H1 8696   4.323   8.375   7.929
 2818WAT     H2 8697   4.240   8.366   8.069
 2819WAT      O 8698   8.442   3.692   1.417
 2819WAT     H1 8699   8.412   3.616   1.474
 2819WAT     H2 8700   8.528   3.729   1.452
 2820WAT      O 8701   0.319   9.680   6.068
 2820WAT     H1 8702   0.338   9.680   5.969
 2820WAT     H2 8703   0.376   9.611   6.112
 2821WAT      O 8704   0.199   3.133   2.158
 2821WAT     H1 8705   0.136   3.163   2.087
 2821WAT     H2 8706   0.151   3.075   2.223
 2822WAT      O 8707   1.117   6.683   8.796
 2822WAT     H1 8708   1.031   6.726   8.768
 2822WAT     H2 8709   1.098   6.612   8.865
 2823WAT      O 8710   8.393   8.065   1.248
 2823WAT     H1 8711   8.486   8.061   1.211
 2823WAT     H2 8712   8.359   7.973   1.264
 2824WAT      O 8713   0.716   1.812   3.137
 2824WAT     H1 8714   0.799   1.778   3.093
 2824WAT     H2 8715   0.696   1.904   3.103
 2825WAT      O 8716   1.055   8.362   6.006
 2825WAT     H1 8717   1.086   8.444   5.959
 2825WAT     H2 8718   0.959   8.344   5.984
 2826WAT      O 8719   5.620   0.434   1.158
 2826WAT     H1 8720   5.660   0.523   1.136
 2826WAT     H2 8721   5.683   0.361   1.129
 2827WAT      O 8722   5.736   5.837   7.576
 2827WAT     H1 8723   5.735   5.849   7.676
 2827WAT     H2 8724   5.831   5.830   7.545
 2828WAT      O 8725   4.303   7.977   1.113
 2828WAT     H1 8726   4.349   7.964   1.026
 2828WAT     H2 8727   4.278   7.888   1.152
 2829WAT      O 8728   1.710   0.139   6.209
 2829WAT     H1 8729   1.709   0.080   6.290
 2829WAT     H2 8730   1.620   0.182   6.198
 2830WAT      O 8731   8.063   4.939   9.266
 2830WAT     H1 8732   8.089   4.904   9.176
 2830WAT     H2 8733   8.145   4.961   9.319
 2831WAT      O 8734   7.525   5.137   2.618
 2831WAT     H1 8735   7.570   5.136   2.707
 2831WAT     H2 8736   7.566   5.069   2.559
 2832WAT      O 8737   7.332   2.939   5.607
 2832WAT     H1 8738   7.336   2.896   5.518
 2832WAT     H2 8739   7.251   2.906   5.657
 2833WAT      O 8740   4.057   0.259   9.185
 2833WAT     H1 8741   3.976   0.201   9.201
 2833WAT     H2 8742   4.051   0.298   9.093
 2834WAT      O 8743   1.271   7.010   0.135
 2834WAT     H1 8744   1.271   6.912   0.119
 2834WAT     H2 8745   1.330   7.055   0.067
 2835WAT      O 8746   5.072   6.321   0.214
 2835WAT     H1 8747   5.063   6.336   0.313
 2835WAT     H2 8748   5.164   6.345   0.185
 2836WAT      O 8749   8.072   9.821   5.838
 2836WAT     H1 8750   8.151   9.880   5.852
 2836WAT     H2 8751   8.058   9.764   5.919
 2837WAT      O 8752   3.046   0.013   5.165
 2837WAT     H1 8753   3.042  -0.036   5.079
 2837WAT     H2 8754   3.123   0.076   5.164
 2838WAT      O 8755   0.114   8.161   5.528
 2838WAT     H1 8756   0.066   8.248   5.524
 2838WAT     H2 8757   0.053   8.087   5.499
 2839WAT      O 8758   4.078   4.715   6.490
 2839WAT     H1 8759   4.144   4.685   6.559
 2839WAT     H2 8760   4.104   4.807   6.458
 2840WAT      O 8761   6.417   7.939   1.316
 2840WAT     H1 8762   6.353   7.864   1.301
 2840WAT     H2 8763   6.396   7.984   1.403
 2841WAT      O 8764   8.853   7.429   8.377
 2841WAT     H1 8765   8.812   7.364   8.441
 2841WAT     H2 8766   8.912   7.381   8.313
 2842WAT      O 8767   7.793   1.631   0.464
 2842WAT     H1 8768   7.862   1.665   0.528
 2842WAT     H2 8769   7.833   1.560   0.407
 2843WAT      O 8770   8.034   5.895   6.659
 2843WAT     H1 8771   8.045   5.796   6.663
 2843WAT     H2 8772   7.936   5.918   6.662
 2844WAT      O 8773   5.134   3.086   5.838
 2844WAT     H1 8774   5.223   3.130   5.841
 2844WAT     H2 8775   5.068   3.147   5.793
 2845WAT      O 8776   3.432   9.677   5.379
 2845WAT     H1 8777   3.459   9.591   5.337
 2845WAT     H2 8778   3.497   9.749   5.354
 2846WAT      O 8779   1.036   3.138   1.842
 2846WAT     H1 8780   0.961   3.073   1.845
 2846WAT     H2 8781   1.001   3.231   1.851
 2847WAT      O 8782   9.359   1.158   7.154
 2847WAT     H1 8783   9.355   1.096   7.232
 2847WAT     H2 8784   9.421   1.234   7.175
 2848WAT      O 8785   4.865   8.316   7.315
 2848WAT     H1 8786   4.865   8.357   7.224
 2848WAT     H2 8787   4.820   8.378   7.380
 2849WAT      O 8788   0.533   7.676   8.482
 2849WAT     H1 8789   0.551   7.732   8.401
 2849WAT     H2 8790   0.619   7.657   8.529
 2850WAT      O 8791   6.957   1.374   5.712
 2850WAT     H1 8792   6.968   1.305   5.783
 2850WAT     H2 8793   7.045   1.418   5.694
 2851WAT      O 8794   2.649   1.390   1.380
 2851WAT     H1 8795   2.665   1.291   1.374
 2851WAT     H2 8796   2.737   1.438   1.381
 2852WAT      O 8797   8.966   2.851   3.209
 2852WAT     H1 8798   8.948   2.863   3.111
 2852WAT     H2 8799   8.881   2.829   3.256
 2853WAT      O 8800   6.690   9.751   8.811
 2853WAT     H1 8801   6.606   9.706   8.843
 2853WAT     H2 8802   6.749   9.683   8.768
 2854WAT      O 8803   1.246   5.061   2.459
 2854WAT     H1 8804   1.157   5.085   2.422
 2854WAT     H2 8805   1.293   4.999   2.397
 2855WAT      O 8806   5.899   9.047   1.753
 2855WAT     H1 8807   5.805   9.079   1.762
 2855WAT     H2 8808   5.956   9.090   1.822
 2856WAT      O 8809   9.732   0.675   9.009
 2856WAT     H1 8810   9.753   0.666   9.107
 2856WAT     H2 8811   9.799   0.735   8.966
 2857WAT      O 8812   4.622   5.904   3.891
 2857WAT     H1 8813   4.684   5.949   3.826
 2857WAT     H2 8814   4.633   5.945   3.982
 2858WAT      O 8815   1.968   7.523   0.539
 2858WAT     H1 8816   1.976   7.495   0.635
 2858WAT     H2 8817   1.872   7.537   0.516
 2859WAT      O 8818   8.193   0.940   4.520
 2859WAT     H1 8819   8.208   1.038   4.534
 2859WAT     H2 8820   8.104   0.914   4.557
 2860WAT      O 8821   3.365   4.312   9.349
 2860WAT     H1 8822   3.304   4.289   9.273
 2860WAT     H2 8823   3.453   4.265   9.336
 2861WAT      O 8824   1.674   1.474   2.081
 2861WAT     H1 8825   1.590   1.439   2.038
 2861WAT     H2 8826   1.673   1.574   2.080
 2862WAT      O 8827   7.747   7.050   8.920
 2862WAT     H1 8828   7.790   7.136   8.947
 2862WAT     H2 8829   7.669   7.070   8.860
 2863WAT      O 8830   9.575   6.573   4.634
 2863WAT     H1 8831   9.485   6.600   4.668
 2863WAT     H2 8832   9.573   6.570   4.534
 2864WAT      O 8833   3.430   1.513   0.231
 2864WAT     H1 8834   3.419   1.416   0.210
 2864WAT     H2 8835   3.343   1.552   0.260
 2865WAT      O 8836   1.186   4.461   9.708
 2865WAT     H1 8837   1.120   4.517   9.759
 2865WAT     H2 8838   1.204   4.502   9.619
 2866WAT      O 8839   5.128   4.246   5.392
 2866WAT     H1 8840   5.185   4.314   5.437
 2866WAT     H2 8841   5.126   4.264   5.293
 2867WAT      O 8842   3.359   9.496   3.090
 2867WAT     H1 8843   3.360   9.550   3.175
 2867WAT     H2 8844   3.449   9.498   3.049
 2868WAT      O 8845   3.676   6.054   0.081
 2868WAT     H1 8846   3.645   5.997   0.158
 2868WAT     H2 8847   3.600   6.070   0.019
 2869WAT      O 8848   4.780   5.425   3.801
 2869WAT     H1 8849   4.768   5.371   3.718
 2869WAT     H2 8850   4.691   5.442   3.843
 2870WAT      O 8851   2.101   9.121   9.107
 2870WAT     H1 8852   2.110   9.208   9.057
 2870WAT     H2 8853   2.115   9.137   9.205
 2871WAT      O 8854   8.470   9.663   5.791
 2871WAT     H1 8855   8.458   9.674   5.692
 2871WAT     H2 8856   8.512   9.746   5.829
 2872WAT      O 8857   1.172   2.038   2.664
 2872WAT     H1 8858   1.103   2.044   2.736
 2872WAT     H2 8859   1.251   2.093   2.689
 2873WAT      O 8860   8.303   0.829   4.890
 2873WAT     H1 8861   8.302   0.926   4.918
 2873WAT     H2 8862   8.378   0.813   4.827
 2874WAT      O 8863   3.588   8.828   7.987
 2874WAT     H1 8864   3.532   8.757   8.029
 2874WAT     H2 8865   3.682   8.822   8.021
 2875WAT      O 8866   7.234   1.685   1.183
 2875WAT     H1 8867   7.254   1.777   1.149
 2875WAT     H2 8868   7.319   1.638   1.205
 2876WAT      O 8869   6.920   2.364   8.030
 2876WAT     H1 8870   6.960   2.452   8.057
 2876WAT     H2 8871   6.822   2.375   8.019
 2877WAT      O 8872   2.908   3.481   1.021
 2877WAT     H1 8873   2.808   3.482   1.033
 2877WAT     H2 8874   2.941   3.575   1.012
 2878WAT      O 8875   7.337   5.465   0.921
 2878WAT     H1 8876   7.363   5.378   0.963
 2878WAT     H2 8877   7.415   5.527   0.922
 2879WAT      O 8878   5.195   5.547   8.854
 2879WAT     H1 8879   5.233   5.566   8.763
 2879WAT     H2 8880   5.097   5.530   8.846
 2880WAT      O 8881   0.132   8.796   0.886
 2880WAT     H1 8882   0.128   8.697   0.878
 2880WAT     H2 8883   0.099   8.824   0.976
 2881WAT      O 8884   1.718   7.110   7.703
 2881WAT     H1 8885   1.640   7.048   7.705
 2881WAT     H2 8886   1.801   7.059   7.680
 2882WAT      O 8887   5.060   1.055   8.483
 2882WAT     H1 8888   5.017   1.144   8.500
 2882WAT     H2 8889   5.157   1.069   8.464
 2883WAT      O 8890   1.582   0.953   2.134
 2883WAT     H1 8891   1.655   1.016   2.107
 2883WAT     H2 8892   1.540   0.987   2.218
 2884WAT      O 8893   5.928   2.994   0.366
 2884WAT     H1 8894   5.839   2.979   0.409
 2884WAT     H2 8895   5.980   3.061   0.419
 2885WAT      O 8896   4.908   3.529   0.138
 2885WAT     H1 8897   4.891   3.434   0.109
 2885WAT     H2 8898   4.995   3.534   0.185
 2886WAT      O 8899   4.706   0.144   0.355
 2886WAT     H1 8900   4.783   0.204   0.332
 2886WAT     H2 8901   4.633   0.155   0.287
 2887WAT      O 8902   3.033   7.228   3.444
 2887WAT     H1 8903   3.098   7.275   3.384
 2887WAT     H2 8904   3.080   7.194   3.525
 2888WAT      O 8905   7.515   8.723   9.713
 2888WAT     H1 8906   7.453   8.767   9.648
 2888WAT     H2 8907   7.521   8.779   9.796
 2889WAT      O 8908   1.778   4.056   8.258
 2889WAT     H1 8909   1.703   4.083   8.318
 2889WAT     H2 8910   1.748   3.982   8.198
 2890WAT      O 8911   7.228   9.243   2.361
 2890WAT     H1 8912   7.221   9.319   2.426
 2890WAT     H2 8913   7.317   9.198   2.372
 2891WAT      O 8914   1.195   4.618   6.417
 2891WAT     H1 8915   1.288   4.606   6.382
 2891WAT     H2 8916   1.193   4.598   6.515
 2892WAT      O 8917   2.711   7.099   0.089
 2892WAT     H1 8918   2.716   7.171   0.158
 2892WAT     H2 8919   2.802   7.060   0.076
 2893WAT      O 8920   9.132   0.673   4.340
 2893WAT     H1 8921   9.197   0.716   4.403
 2893WAT     H2 8922   9.124   0.576   4.361
 2894WAT      O 8923   8.811   8.861   3.531
 2894WAT     H1 8924   8.774   8.781   3.580
 2894WAT     H2 8925   8.767   8.867   3.442
 2895WAT      O 8926   3.695   5.088   0.828
 2895WAT     H1 8927   3.762   5.069   0.900
 2895WAT     H2 8928   3.717   5.176   0.785
 2896WAT      O 8929   4.260   2.427   3.097
 2896WAT     H1 8930   4.187   2.473   3.047
 2896WAT     H2 8931   4.303   2.492   3.161
 2897WAT      O 8932   0.836   2.120   4.920
 2897WAT     H1 8933   0.744   2.128   4.959
 2897WAT     H2 8934   0.844   2.179   4.840
 2898WAT      O 8935   3.297   9.741   9.764
 2898WAT     H1 8936   3.323   9.697   9.679
 2898WAT     H2 8937   3.222   9.690   9.806
 2899WAT      O 8938   9.073   3.334   8.800
 2899WAT     H1 8939   9.107   3.418   8.843
 2899WAT     H2 8940   9.097   3.256   8.857
 2900WAT      O 8941   9.888   2.989   4.562
 2900WAT     H1 8942   9.884   3.088   4.547
 2900WAT     H2 8943   9.827   2.943   4.497
 2901WAT      O 8944   5.925   6.995   9.858
 2901WAT     H1 8945   5.886   7.041   9.778
 2901WAT     H2 8946   5.928   7.058   9.935
 2902WAT      O 8947   1.240   8.658   8.543
 2902WAT     H1 8948   1.239   8.729   8.473
 2902WAT     H2 8949   1.149   8.651   8.584
 2903WAT      O 8950   6.601   0.180   6.897
 2903WAT     H1 8951   6.624   0.152   6.990
 2903WAT     H2 8952   6.536   0.257   6.901
 2904WAT      O 8953   0.212   0.540   3.976
 2904WAT     H1 8954   0.124   0.553   4.021
 2904WAT     H2 8955   0.234   0.622   3.923
 2905WAT      O 8956   7.922   3.182   0.129
 2905WAT     H1 8957   7.894   3.089   0.105
 2905WAT     H2 8958   7.890   3.204   0.221
 2906WAT      O 8959   9.717   6.885   0.822
 2906WAT     H1 8960   9.680   6.881   0.915
 2906WAT     H2 8961   9.814   6.908   0.827
 2907WAT      O 8962   8.981   5.348   1.309
 2907WAT     H1 8963   8.945   5.352   1.402
 2907WAT     H2 8964   9.018   5.437   1.284
 2908WAT      O 8965   3.004   9.682   6.176
 2908WAT     H1 8966   2.942   9.654   6.250
 2908WAT     H2 8967   2.952   9.698   6.093
 2909WAT      O 8968   4.616   6.570   4.457
 2909WAT     H1 8969   4.581   6.579   4.551
 2909WAT     H2 8970   4.581   6.485   4.417
 2910WAT      O 8971   7.456   1.489   2.382
 2910WAT     H1 8972   7.429   1.422   2.312
 2910WAT     H2 8973   7.384   1.498   2.450
 2911WAT      O 8974   3.537   0.046   3.371
 2911WAT     H1 8975   3.620   0.091   3.336
 2911WAT     H2 8976   3.561  -0.013   3.448
 2912WAT      O 8977   3.857   0.425   9.582
 2912WAT     H1 8978   3.852   0.510   9.530
 2912WAT     H2 8979   3.914   0.359   9.533
 2913WAT      O 8980   0.082   2.940   3.280
 2913WAT     H1 8981   0.028   2.869   3.324
 2913WAT     H2 8982   0.087   3.020   3.339
 2914WAT      O 8983   0.439   7.305   9.432
 2914WAT     H1 8984   0.417   7.398   9.464
 2914WAT     H2 8985   0.364   7.244   9.455
 2915WAT      O 8986   9.696   6.720   0.208
 2915WAT     H1 8987   9.688   6.647   0.276
 2915WAT     H2 8988   9.694   6.809   0.254
 2916WAT      O 8989   7.257   7.715   6.454
 2916WAT     H1 8990   7.303   7.627   6.444
 2916WAT     H2 8991   7.170   7.713   6.406
 2917WAT      O 8992   4.379   5.996   4.326
 2917WAT     H1 8993   4.313   6.055   4.280
 2917WAT     H2 8994   4.441   6.052   4.381
 2918WAT      O 8995   8.659   7.288   4.718
 2918WAT     H1 8996   8.598   7.214   4.690
 2918WAT     H2 8997   8.609   7.375   4.718
 2919WAT      O 8998   9.253   6.296   2.673
 2919WAT     H1 8999   9.157   6.323   2.672
 2919WAT     H2 9000   9.298   6.337   2.753
 2920WAT      O 9001   9.791   3.428   1.860
 2920WAT     H1 9002   9.695   3.402   1.852
 2920WAT     H2 9003   9.815   3.491   1.787
 2921WAT      O 9004   8.043   2.198   2.290
 2921WAT     H1 9005   8.001   2.155   2.370
 2921WAT     H2 9006   8.077   2.127   2.228
 2922WAT      O 9007   1.814   3.207   5.930
 2922WAT     H1 9008   1.778   3.205   5.837
 2922WAT     H2 9009   1.891   3.270   5.936
 2923WAT      O 9010   5.361   2.296   8.482
 2923WAT     H1 9011   5.441   2.333   8.435
 2923WAT     H2 9012   5.282   2.354   8.463
 2924WAT      O 9013   0.482   0.561   9.110
 2924WAT     H1 9014   0.460   0.467   9.138
 2924WAT     H2 9015   0.429   0.625   9.166
 2925WAT      O 9016   8.327   5.544   8.370
 2925WAT     H1 9017   8.282   5.622   8.327
 2925WAT     H2 9018   8.419   5.571   8.400
 2926WAT      O 9019   7.847   1.653   2.879
 2926WAT     H1 9020   7.899   1.670   2.963
 2926WAT     H2 9021   7.805   1.562   2.883
 2927WAT      O 9022   6.426   5.584   8.816
 2927WAT     H1 9023   6.403   5.530   8.897
 2927WAT     H2 9024   6.412   5.681   8.836
 2928WAT      O 9025   8.815   5.898   9.349
 2928WAT     H1 9026   8.875   5.951   9.290
 2928WAT     H2 9027   8.723   5.896   9.309
 2929WAT      O 9028   6.995   7.512   6.363
 2929WAT     H1 9029   7.061   7.440   6.386
 2929WAT     H2 9030   6.964   7.557   6.447
 2930WAT      O 9031   8.026   4.701   4.839
 2930WAT     H1 9032   7.948   4.652   4.877
 2930WAT     H2 9033   8.110   4.668   4.881
 2931WAT      O 9034   3.463   8.319   5.483
 2931WAT     H1 9035   3.467   8.383   5.406
 2931WAT     H2 9036   3.406   8.359   5.555
 2932WAT      O 9037   7.847   7.548   7.082
 2932WAT     H1 9038   7.863   7.500   6.996
 2932WAT     H2 9039   7.788   7.492   7.141
 2933WAT      O 9040   9.066   2.533   1.657
 2933WAT     H1 9041   9.161   2.533   1.626
 2933WAT     H2 9042   9.028   2.625   1.649
 2934WAT      O 9043   9.462   0.783   9.255
 2934WAT     H1 9044   9.472   0.843   9.176
 2934WAT     H2 9045   9.413   0.700   9.229
 2935WAT      O 9046   8.455   8.838   5.142
 2935WAT     H1 9047   8.395   8.845   5.222
 2935WAT     H2 9048   8.413   8.778   5.074
 2936WAT      O 9049   7.379   4.322   4.608
 2936WAT     H1 9050   7.406   4.263   4.684
 2936WAT     H2 9051   7.452   4.387   4.589
 2937WAT      O 9052   0.047   9.437   6.714
 2937WAT     H1 9053   0.078   9.374   6.785
 2937WAT     H2 9054   0.082   9.529   6.733
 2938WAT      O 9055   7.170   0.506   9.159
 2938WAT     H1 9056   7.161   0.489   9.257
 2938WAT     H2 9057   7.102   0.574   9.131
 2939WAT      O 9058   6.075   0.988   9.492
 2939WAT     H1 9059   6.018   0.939   9.426
 2939WAT     H2 9060   6.016   1.032   9.559
 2940WAT      O 9061   4.357   2.603   6.070
 2940WAT     H1 9062   4.430   2.548   6.029
 2940WAT     H2 9063   4.382   2.700   6.064
 2941WAT      O 9064   8.367   5.339   2.254
 2941WAT     H1 9065   8.319   5.380   2.177
 2941WAT     H2 9066   8.411   5.254   2.224
 2942WAT      O 9067   1.150   9.384   2.926
 2942WAT     H1 9068   1.123   9.323   2.851
 2942WAT     H2 9069   1.070   9.401   2.984
 2943WAT      O 9070   0.926   7.023   0.318
 2943WAT     H1 9071   0.936   6.925   0.299
 2943WAT     H2 9072   0.971   7.076   0.247
 2944WAT      O 9073   1.055   7.980   5.370
 2944WAT     H1 9074   1.057   7.980   5.270
 2944WAT     H2 9075   1.071   8.073   5.403
 2945WAT      O 9076   6.392   6.874   7.211
 2945WAT     H1 9077   6.372   6.782   7.177
 2945WAT     H2 9078   6.406   6.936   7.134
 2946WAT      O 9079   9.612   8.908   7.533
 2946WAT     H1 9080   9.575   8.946   7.618
 2946WAT     H2 9081   9.546   8.844   7.494
 2947WAT      O 9082   0.284   9.209   9.275
 2947WAT     H1 9083   0.310   9.221   9.371
 2947WAT     H2 9084   0.287   9.297   9.228
 2948WAT      O 9085   2.447   1.030   3.985
 2948WAT     H1 9086   2.365   1.004   3.934
 2948WAT     H2 9087   2.465   0.963   4.057
 2949WAT      O 9088   3.272   0.548   2.624
 2949WAT     H1 9089   3.221   0.598   2.693
 2949WAT     H2 9090   3.219   0.546   2.538
 2950WAT      O 9091   7.281   7.562   8.033
 2950WAT     H1 9092   7.351   7.624   8.069
 2950WAT     H2 9093   7.325   7.488   7.982
 2951WAT      O 9094   5.484   5.568   3.454
 2951WAT     H1 9095   5.563   5.617   3.490
 2951WAT     H2 9096   5.457   5.496   3.519
 2952WAT      O 9097   4.955   4.054   3.034
 2952WAT     H1 9098   5.007   3.987   2.981
 2952WAT     H2 9099   5.007   4.083   3.113
 2953WAT      O 9100   8.046   4.644   2.264
 2953WAT     H1 9101   8.040   4.600   2.354
 2953WAT     H2 9102   8.004   4.735   2.269
 2954WAT      O 9103   4.119   5.525   9.601
 2954WAT     H1 9104   4.137   5.532   9.699
 2954WAT     H2 9105   4.023   5.503   9.586
 2955WAT      O 9106   1.326   8.675   3.200
 2955WAT     H1 9107   1.366   8.765   3.217
 2955WAT     H2 9108   1.227   8.684   3.186
 2956WAT      O 9109   9.765   9.832   9.359
 2956WAT     H1 9110   9.742   9.929   9.344
 2956WAT     H2 9111   9.832   9.803   9.292
 2957WAT      O 9112   5.505   9.372   9.834
 2957WAT     H1 9113   5.443   9.303   9.872
 2957WAT     H2 9114   5.595   9.363   9.877
 2958WAT      O 9115   3.594   2.663   6.911
 2958WAT     H1 9116   3.508   2.707   6.885
 2958WAT     H2 9117   3.666   2.733   6.917
 2959WAT      O 9118   2.358   5.970   9.478
 2959WAT     H1 9119   2.451   5.986   9.512
 2959WAT     H2 9120   2.297   6.039   9.516
 2960WAT      O 9121   1.638   6.694   3.098
 2960WAT     H1 9122   1.689   6.732   3.021
 2960WAT     H2 9123   1.656   6.596   3.106
 2961WAT      O 9124   1.378   9.051   6.602
 2961WAT     H1 9125   1.431   8.989   6.659
 2961WAT     H2 9126   1.434   9.083   6.526
 2962WAT      O 9127   5.878   0.948   4.083
 2962WAT     H1 9128   5.866   0.854   4.050
 2962WAT     H2 9129   5.799   1.004   4.055
 2963WAT      O 9130   6.737   2.714   7.439
 2963WAT     H1 9131   6.798   2.670   7.505
 2963WAT     H2 9132   6.666   2.648   7.411
 2964WAT      O 9133   9.062   5.767   4.427
 2964WAT     H1 9134   9.087   5.864   4.430
 2964WAT     H2 9135   8.964   5.759   4.410
 2965WAT      O 9136   2.776   9.054   3.080
 2965WAT     H1 9137   2.771   8.963   3.122
 2965WAT     H2 9138   2.760   9.045   2.981
 2966WAT      O 9139   6.139   4.265   0.700
 2966WAT     H1 9140   6.085   4.183   0.716
 2966WAT     H2 9141   6.111   4.337   0.764
 2967WAT      O 9142   5.635   6.277   7.911
 2967WAT     H1 9143   5.720   6.289   7.860
 2967WAT     H2 9144   5.656   6.263   8.008
 2968WAT      O 9145   5.730   8.660   0.653
 2968WAT     H1 9146   5.737   8.592   0.580
 2968WAT     H2 9147   5.798   8.732   0.638
 2969WAT      O 9148   9.523   2.048   5.711
 2969WAT     H1 9149   9.583   2.110   5.662
 2969WAT     H2 9150   9.514   1.963   5.659
 2970WAT      O 9151   9.394   3.061   4.098
 2970WAT     H1 9152   9.483   3.085   4.061
 2970WAT     H2 9153   9.322   3.094   4.036
 2971WAT      O 9154   5.706   0.170   1.008
 2971WAT     H1 9155   5.673   0.084   0.969
 2971WAT     H2 9156   5.739   0.229   0.934
 2972WAT      O 9157   9.839   7.407   5.919
 2972WAT     H1 9158   9.783   7.490   5.912
 2972WAT     H2 9159   9.803   7.338   5.856
 2973WAT      O 9160   7.502   8.377   7.423
 2973WAT     H1 9161   7.503   8.329   7.511
 2973WAT     H2 9162   7.538   8.317   7.352
 2974WAT      O 9163   3.328   6.819   3.020
 2974WAT     H1 9164   3.272   6.890   3.063
 2974WAT     H2 9165   3.368   6.761   3.090
 2975WAT      O 9166   6.540   9.372   4.630
 2975WAT     H1 9167   6.480   9.347   4.554
 2975WAT     H2 9168   6.485   9.384   4.713
 2976WAT      O 9169   3.508   1.249   5.797
 2976WAT     H1 9170   3.422   1.295   5.816
 2976WAT     H2 9171   3.518   1.234   5.699
 2977WAT      O 9172   5.167   6.080   2.666
 2977WAT     H1 9173   5.177   6.086   2.567
 2977WAT     H2 9174   5.186   6.170   2.706
 2978WAT      O 9175   9.399   3.536   5.994
 2978WAT     H1 9176   9.303   3.558   5.973
 2978WAT     H2 9177   9.409   3.525   6.093
 2979WAT      O 9178   6.657   8.986   0.674
 2979WAT     H1 9179   6.562   9.000   0.647
 2979WAT     H2 9180   6.680   8.889   0.668
 2980WAT      O 9181   6.272   1.020   0.252
 2980WAT     H1 9182   6.372   1.015   0.247
 2980WAT     H2 9183   6.232   0.943   0.201
 2981WAT      O 9184   3.001   3.096   8.063
 2981WAT     H1 9185   3.032   3.003   8.083
 2981WAT     H2 9186   2.973   3.140   8.148
 2982WAT      O 9187   1.560   6.777   7.464
 2982WAT     H1 9188   1.617   6.822   7.395
 2982WAT     H2 9189   1.593   6.800   7.555
 2983WAT      O 9190   1.722   4.910   7.409
 2983WAT     H1 9191   1.779   4.902   7.327
 2983WAT     H2 9192   1.657   4.985   7.396
 2984WAT      O 9193   7.331   0.556   8.282
 2984WAT     H1 9194   7.379   0.611   8.214
 2984WAT     H2 9195   7.375   0.568   8.371
 2985WAT      O 9196   1.468   5.248   9.278
 2985WAT     H1 9197   1.459   5.344   9.254
 2985WAT     H2 9198   1.478   5.238   9.377
 2986WAT      O 9199   6.129   1.979   1.965
 2986WAT     H1 9200   6.065   2.048   1.999
 2986WAT     H2 9201   6.170   1.931   2.042
 2987WAT      O 9202   1.556   2.712   6.594
 2987WAT     H1 9203   1.575   2.785   6.659
 2987WAT     H2 9204   1.569   2.623   6.639
 2988WAT      O 9205   7.815   9.733   9.763
 2988WAT     H1 9206   7.815   9.828   9.732
 2988WAT     H2 9207   7.763   9.676   9.699
 2989WAT      O 9208   1.069   7.195   4.878
 2989WAT     H1 9209   1.099   7.107   4.842
 2989WAT     H2 9210   1.096   7.268   4.815
 2990WAT      O 9211   4.983   3.737   0.999
 2990WAT     H1 9212   4.967   3.734   1.098
 2990WAT     H2 9213   4.952   3.652   0.957
 2991WAT      O 9214   5.783   4.353   3.899
 2991WAT     H1 9215   5.718   4.425   3.921
 2991WAT     H2 9216   5.867   4.393   3.863
 2992WAT      O 9217   2.057   8.438   3.309
 2992WAT     H1 9218   2.012   8.349   3.307
 2992WAT     H2 9219   2.131   8.440   3.242
 2993WAT      O 9220   2.423   4.532   0.398
 2993WAT     H1 9221   2.350   4.547   0.464
 2993WAT     H2 9222   2.509   4.570   0.433
 2994WAT      O 9223   8.263   6.314   5.718
 2994WAT     H1 9224   8.174   6.333   5.676
 2994WAT     H2 9225   8.296   6.396   5.765
 2995WAT      O 9226   3.698   7.200   0.886
 2995WAT     H1 9227   3.698   7.229   0.982
 2995WAT     H2 9228   3.790   7.212   0.847
 2996WAT      O 9229   5.028   7.745   1.294
 2996WAT     H1 9230   4.999   7.657   1.255
 2996WAT     H2 9231   4.948   7.798   1.319
 2997WAT      O 9232   5.938   5.218   7.116
 2997WAT     H1 9233   5.916   5.313   7.095
 2997WAT     H2 9234   6.036   5.203   7.104
 2998WAT      O 9235   2.988   2.933   6.803
 2998WAT     H1 9236   2.968   3.003   6.735
 2998WAT     H2 9237   3.036   2.973   6.880
 2999WAT      O 9238   7.479   6.069   9.054
 2999WAT     H1 9239   7.419   6.143   9.086
 2999WAT     H2 9240   7.566   6.109   9.023
 3000WAT      O 9241   7.736   6.251   4.397
 3000WAT     H1 9242   7.662   6.317   4.405
 3000WAT     H2 9243   7.814   6.293   4.352
 3001WAT      O 9244   6.465   0.826   3.154
 3001WAT     H1 9245   6.453   0.730   3.129
 3001WAT     H2 9246   6.481   0.833   3.253
 3002WAT      O 9247   9.674   4.505   9.647
 3002WAT     H1 9248   9.709   4.575   9.708
 3002WAT     H2 9249   9.581   4.479   9.676
 3003WAT      O 9250   7.878   8.116   1.356
 3003WAT     H1 9251   7.813   8.189   1.332
 3003WAT     H2 9252   7.917   8.077   1.273
 3004WAT      O 9253   2.538   3.098   5.027
 3004WAT     H1 9254   2.618   3.149   4.995
 3004WAT     H2 9255   2.476   3.160   5.075
 3005WAT      O 9256   9.399   7.346   9.581
 3005WAT     H1 9257   9.463   7.415   9.614
 3005WAT     H2 9258   9.309   7.387   9.567
 3006WAT      O 9259   8.326   9.518   3.426
 3006WAT     H1 9260   8.414   9.471   3.416
 3006WAT     H2 9261   8.274   9.476   3.500
 3007WAT      O 9262   1.150   7.422   4.362
 3007WAT     H1 9263   1.213   7.499   4.351
 3007WAT     H2 9264   1.187   7.357   4.429
 3008WAT      O 9265   5.484   7.517   9.611
 3008WAT     H1 9266   5.477   7.600   9.556
 3008WAT     H2 9267   5.528   7.538   9.698
 3009WAT      O 9268   6.470   2.029   5.451
 3009WAT     H1 9269   6.500   2.057   5.542
 3009WAT     H2 9270   6.468   2.109   5.390
 3010WAT      O 9271   7.147   7.368   6.795
 3010WAT     H1 9272   7.058   7.340   6.831
 3010WAT     H2 9273   7.220   7.330   6.853
 3011WAT      O 9274   2.784   2.945   8.567
 3011WAT     H1 9275   2.699   2.898   8.545
 3011WAT     H2 9276   2.774   2.995   8.653
 3012WAT      O 9277   4.145   4.462   9.511
 3012WAT     H1 9278   4.082   4.534   9.481
 3012WAT     H2 9279   4.230   4.504   9.544
 3013WAT      O 9280   5.628   6.892   3.944
 3013WAT     H1 9281   5.706   6.910   4.004
 3013WAT     H2 9282   5.660   6.872   3.851
 3014WAT      O 9283   8.115   1.066   0.832
 3014WAT     H1 9284   8.154   1.093   0.920
 3014WAT     H2 9285   8.030   1.015   0.847
 3015WAT      O 9286   1.211   2.449   6.815
 3015WAT     H1 9287   1.126   2.502   6.808
 3015WAT     H2 9288   1.243   2.449   6.909
 3016WAT      O 9289   2.622   4.858   5.109
 3016WAT     H1 9290   2.664   4.854   5.200
 3016WAT     H2 9291   2.594   4.952   5.090
 3017WAT      O 9292   6.949   9.613   1.740
 3017WAT     H1 9293   7.032   9.564   1.712
 3017WAT     H2 9294   6.902   9.561   1.812
 3018WAT      O 9295   4.152   8.793   9.675
 3018WAT     H1 9296   4.150   8.751   9.584
 3018WAT     H2 9297   4.208   8.737   9.736
 3019WAT      O 9298   9.708   9.724   4.221
 3019WAT     H1 9299   9.706   9.795   4.291
 3019WAT     H2 9300   9.712   9.634   4.266
 3020WAT      O 9301   4.030   2.993   5.769
 3020WAT     H1 9302   4.071   3.051   5.839
 3020WAT     H2 9303   4.057   2.898   5.784
 3021WAT      O 9304   4.358   3.228   1.210
 3021WAT     H1 9305   4.275   3.284   1.198
 3021WAT     H2 9306   4.427   3.257   1.144
 3022WAT      O 9307   2.290   4.065   8.005
 3022WAT     H1 9308   2.217   4.001   8.028
 3022WAT     H2 9309   2.335   4.034   7.921
 3023WAT      O 9310   5.978   5.851   0.668
 3023WAT     H1 9311   6.018   5.785   0.732
 3023WAT     H2 9312   5.918   5.804   0.604
 3024WAT      O 9313   0.289   3.427   7.429
 3024WAT     H1 9314   0.283   3.412   7.528
 3024WAT     H2 9315   0.275   3.341   7.382
 3025WAT      O 9316   8.400   7.391   6.936
 3025WAT     H1 9317   8.383   7.311   6.994
 3025WAT     H2 9318   8.485   7.377   6.886
 3026WAT      O 9319   8.765   7.317   1.205
 3026WAT     H1 9320   8.843   7.287   1.150
 3026WAT     H2 9321   8.699   7.242   1.213
 3027WAT      O 9322   3.280   4.068   9.891
 3027WAT     H1 9323   3.202   4.022   9.847
 3027WAT     H2 9324   3.250   4.155   9.929
 3028WAT      O 9325   6.535   1.510   1.220
 3028WAT     H1 9326   6.497   1.452   1.293
 3028WAT     H2 9327   6.626   1.475   1.195
 3029WAT      O 9328   9.527   7.453   2.366
 3029WAT     H1 9329   9.568   7.380   2.421
 3029WAT     H2 9330   9.588   7.532   2.368
 3030WAT      O 9331   0.018   1.890   4.292
 3030WAT     H1 9332   0.015   1.840   4.378
 3030WAT     H2 9333  -0.075   1.906   4.259
 3031WAT      O 9334   8.882   9.050   3.065
 3031WAT     H1 9335   8.786   9.033   3.086
 3031WAT     H2 9336   8.939   8.994   3.125
 3032WAT      O 9337   9.007   0.225   1.892
 3032WAT     H1 9338   9.088   0.280   1.872
 3032WAT     H2 9339   8.925   0.282   1.879
 3033WAT      O 9340   3.765   8.255   3.050
 3033WAT     H1 9341   3.790   8.172   3.099
 3033WAT     H2 9342   3.707   8.312   3.108
 3034WAT      O 9343   0.257   3.528   0.912
 3034WAT     H1 9344   0.171   3.500   0.955
 3034WAT     H2 9345   0.273   3.625   0.928
 3035WAT      O 9346   1.755   7.593   9.669
 3035WAT     H1 9347   1.849   7.583   9.636
 3035WAT     H2 9348   1.733   7.518   9.732
 3036WAT      O 9349   8.793   1.365   6.427
 3036WAT     H1 9350   8.749   1.276   6.414
 3036WAT     H2 9351   8.889   1.352   6.451
 3037WAT      O 9352   6.422   4.653   7.564
 3037WAT     H1 9353   6.407   4.663   7.663
 3037WAT     H2 9354   6.471   4.568   7.546
 3038WAT      O 9355   6.103   7.278   6.916
 3038WAT     H1 9356   6.059   7.355   6.869
 3038WAT     H2 9357   6.041   7.200   6.918
 3039WAT      O 9358   7.941   3.262   6.592
 3039WAT     H1 9359   7.870   3.191   6.590
 3039WAT     H2 9360   8.005   3.247   6.517
 3040WAT      O 9361   8.497   2.002   2.380
 3040WAT     H1 9362   8.511   2.030   2.285
 3040WAT     H2 9363   8.570   1.938   2.406
 3041WAT      O 9364   4.833   9.693   0.821
 3041WAT     H1 9365   4.740   9.703   0.787
 3041WAT     H2 9366   4.863   9.599   0.807
 3042WAT      O 9367   8.545   8.384   5.088
 3042WAT     H1 9368   8.488   8.333   5.024
 3042WAT     H2 9369   8.486   8.432   5.154
 3043WAT      O 9370   9.529   7.806   2.059
 3043WAT     H1 9371   9.555   7.786   2.154
 3043WAT     H2 9372   9.595   7.869   2.019
 3044WAT      O 9373   8.996   3.919   1.025
 3044WAT     H1 9374   9.069   3.987   1.029
 3044WAT     H2 9375   8.955   3.909   1.116
 3045WAT      O 9376   5.855   2.771   5.418
 3045WAT     H1 9377   5.847   2.805   5.512
 3045WAT     H2 9378   5.839   2.672   5.417
 3046WAT      O 9379   3.993   1.662   2.402
 3046WAT     H1 9380   3.935   1.691   2.326
 3046WAT     H2 9381   3.997   1.735   2.470
 3047WAT      O 9382   5.290   0.998   7.177
 3047WAT     H1 9383   5.230   1.078   7.173
 3047WAT     H2 9384   5.356   1.001   7.103
 3048WAT      O 9385   2.739   8.232   0.653
 3048WAT     H1 9386   2.678   8.307   0.626
 3048WAT     H2 9387   2.821   8.234   0.595
 3049WAT      O 9388   1.679   0.834   5.177
 3049WAT     H1 9389   1.779   0.834   5.178
 3049WAT     H2 9390   1.645   0.740   5.180
 3050WAT      O 9391   2.269   0.214   0.659
 3050WAT     H1 9392   2.194   0.157   0.626
 3050WAT     H2 9393   2.232   0.302   0.690
 3051WAT      O 9394   0.505   3.866   0.556
 3051WAT     H1 9395   0.522   3.854   0.654
 3051WAT     H2 9396   0.515   3.778   0.509
 3052WAT      O 9397   9.864   9.498   9.444
 3052WAT     H1 9398   9.891   9.489   9.348
 3052WAT     H2 9399   9.773   9.541   9.449
 3053WAT      O 9400   7.411   8.924   6.011
 3053WAT     H1 9401   7.469   8.861   5.959
 3053WAT     H2 9402   7.358   8.981   5.948
 3054WAT      O 9403   5.679   4.182   9.002
 3054WAT     H1 9404   5.758   4.154   8.948
 3054WAT     H2 9405   5.657   4.278   8.982
 3055WAT      O 9406   1.528   9.841   3.483
 3055WAT     H1 9407   1.464   9.879   3.417
 3055WAT     H2 9408   1.527   9.741   3.476
 3056WAT      O 9409   8.210   4.492   1.020
 3056WAT     H1 9410   8.197   4.590   1.034
 3056WAT     H2 9411   8.189   4.468   0.925
 3057WAT      O 9412   1.908   5.301   2.889
 3057WAT     H1 9413   1.810   5.295   2.907
 3057WAT     H2 9414   1.930   5.392   2.855
 3058WAT      O 9415   1.638   3.535   5.419
 3058WAT     H1 9416   1.696   3.461   5.453
 3058WAT     H2 9417   1.672   3.622   5.455
 3059WAT      O 9418   6.944   0.892   3.728
 3059WAT     H1 9419   6.933   0.857   3.821
 3059WAT     H2 9420   6.865   0.864   3.672
 3060WAT      O 9421   0.750   4.079   2.917
 3060WAT     H1 9422   0.660   4.110   2.947
 3060WAT     H2 9423   0.748   4.060   2.819
 3061WAT      O 9424   5.347   0.574   5.104
 3061WAT     H1 9425   5.354   0.492   5.047
 3061WAT     H2 9426   5.439   0.604   5.130
 3062WAT      O 9427   7.173   0.794   7.325
 3062WAT     H1 9428   7.084   0.784   7.280
 3062WAT     H2 9429   7.245   0.805   7.256
 3063WAT      O 9430   9.486   0.531   3.959
 3063WAT     H1 9431   9.463   0.440   3.924
 3063WAT     H2 9432   9.582   0.551   3.939
 3064WAT      O 9433   1.937   7.045   7.358
 3064WAT     H1 9434   1.966   7.140   7.366
 3064WAT     H2 9435   1.893   7.016   7.443
 3065WAT      O 9436   8.613   3.853   1.581
 3065WAT     H1 9437   8.711   3.865   1.594
 3065WAT     H2 9438   8.576   3.794   1.653
 3066WAT      O 9439   6.801   7.906   4.301
 3066WAT     H1 9440   6.876   7.840   4.302
 3066WAT     H2 9441   6.718   7.862   4.336
 3067WAT      O 9442   0.649   5.463   8.082
 3067WAT     H1 9443   0.559   5.506   8.083
 3067WAT     H2 9444   0.710   5.512   8.145
 3068WAT      O 9445   4.944   2.161   1.430
 3068WAT     H1 9446   4.896   2.085   1.387
 3068WAT     H2 9447   4.884   2.241   1.435
 3069WAT      O 9448   9.055   4.589   3.957
 3069WAT     H1 9449   9.105   4.612   4.041
 3069WAT     H2 9450   9.120   4.560   3.887
 3070WAT      O 9451   3.204   1.114   0.329
 3070WAT     H1 9452   3.144   1.059   0.270
 3070WAT     H2 9453   3.150   1.158   0.400
 3071WAT      O 9454   4.284   0.212   6.902
 3071WAT     H1 9455   4.377   0.247   6.891
 3071WAT     H2 9456   4.277   0.159   6.986
 3072WAT      O 9457   9.312   8.722   3.935
 3072WAT     H1 9458   9.357   8.784   3.871
 3072WAT     H2 9459   9.367   8.714   4.018
 3073WAT      O 9460   9.360   5.325   5.426
 3073WAT     H1 9461   9.334   5.315   5.522
 3073WAT     H2 9462   9.350   5.421   5.398
 3074WAT      O 9463   0.072   4.599   7.055
 3074WAT     H1 9464   0.045   4.676   6.998
 3074WAT     H2 9465   0.164   4.615   7.091
 3075WAT      O 9466   5.884   4.875   4.413
 3075WAT     H1 9467   5.979   4.844   4.418
 3075WAT     H2 9468   5.872   4.934   4.333
 3076WAT      O 9469   0.737   9.102   7.325
 3076WAT     H1 9470   0.792   9.182   7.300
 3076WAT     H2 9471   0.794   9.020   7.321
 3077WAT      O 9472   4.291   9.088   3.541
 3077WAT     H1 9473   4.349   9.016   3.580
 3077WAT     H2 9474   4.311   9.174   3.588
 3078WAT      O 9475   5.286   4.988   3.142
 3078WAT     H1 9476   5.286   4.900   3.094
 3078WAT     H2 9477   5.275   5.062   3.076
 3079WAT      O 9478   5.752   7.059   2.232
 3079WAT     H1 9479   5.768   6.981   2.293
 3079WAT     H2 9480   5.657   7.059   2.202
 3080WAT      O 9481   9.592   9.127   4.325
 3080WAT     H1 9482   9.648   9.062   4.375
 3080WAT     H2 9483   9.497   9.123   4.358
 3081WAT      O 9484   4.167   4.504   1.621
 3081WAT     H1 9485   4.259   4.518   1.658
 3081WAT     H2 9486   4.166   4.422   1.564
 3082WAT      O 9487   8.154   3.055   7.291
 3082WAT     H1 9488   8.113   3.106   7.367
 3082WAT     H2 9489   8.253   3.047   7.305
 3083WAT      O 9490   2.248   6.835   1.762
 3083WAT     H1 9491   2.293   6.903   1.704
 3083WAT     H2 9492   2.316   6.773   1.801
 3084WAT      O 9493   5.939   0.255   5.542
 3084WAT     H1 9494   5.877   0.325   5.577
 3084WAT     H2 9495   5.888   0.193   5.482
 3085WAT      O 9496   3.561   7.458   5.741
 3085WAT     H1 9497   3.622   7.455   5.820
 3085WAT     H2 9498   3.470   7.426   5.768
 3086WAT      O 9499   8.391   2.850   2.484
 3086WAT     H1 9500   8.347   2.769   2.523
 3086WAT     H2 9501   8.321   2.918   2.463
 3087WAT      O 9502   6.836   6.907   1.960
 3087WAT     H1 9503   6.923   6.857   1.967
 3087WAT     H2 9504   6.832   6.976   2.032
 3088WAT      O 9505   6.725   7.145   5.281
 3088WAT     H1 9506   6.717   7.062   5.226
 3088WAT     H2 9507   6.640   7.197   5.276
 3089WAT      O 9508   9.044   2.701   0.794
 3089WAT     H1 9509   8.980   2.683   0.869
 3089WAT     H2 9510   9.084   2.615   0.763
 3090WAT      O 9511   0.059   5.145   4.934
 3090WAT     H1 9512   0.132   5.102   4.988
 3090WAT     H2 9513  -0.024   5.150   4.990
 3091WAT      O 9514   2.633   8.221   2.816
 3091WAT     H1 9515   2.714   8.162   2.809
 3091WAT     H2 9516   2.557   8.169   2.854
 3092WAT      O 9517   0.460   4.977   8.970
 3092WAT     H1 9518   0.389   4.908   8.961
 3092WAT     H2 9519   0.424   5.055   9.022
 3093WAT      O 9520   4.432   1.902   2.346
 3093WAT     H1 9521   4.486   1.972   2.393
 3093WAT     H2 9522   4.383   1.943   2.269
 3094WAT      O 9523   8.531   4.691   1.307
 3094WAT     H1 9524   8.442   4.684   1.351
 3094WAT     H2 9525   8.591   4.749   1.362
 3095WAT      O 9526   7.867   3.367   5.191
 3095WAT     H1 9527   7.849   3.280   5.144
 3095WAT     H2 9528   7.903   3.349   5.283
 3096WAT      O 9529   8.225   7.109   4.473
 3096WAT     H1 9530   8.258   7.202   4.460
 3096WAT     H2 9531   8.253   7.052   4.396
 3097WAT      O 9532   5.235   3.124   1.047
 3097WAT     H1 9533   5.253   3.026   1.058
 3097WAT     H2 9534   5.308   3.177   1.091
 3098WAT      O 9535   3.266   7.608   5.863
 3098WAT     H1 9536   3.342   7.648   5.914
 3098WAT     H2 9537   3.185   7.602   5.923
 3099WAT      O 9538   5.955   0.447   4.365
 3099WAT     H1 9539   6.021   0.372   4.363
 3099WAT     H2 9540   5.901   0.446   4.281
 3100WAT      O 9541   1.795   4.334   1.077
 3100WAT     H1 9542   1.810   4.426   1.040
 3100WAT     H2 9543   1.831   4.329   1.170
 3101WAT      O 9544   5.599   9.084   5.945
 3101WAT     H1 9545   5.565   9.175   5.924
 3101WAT     H2 9546   5.670   9.059   5.878
 3102WAT      O 9547   1.494   4.145   0.105
 3102WAT     H1 9548   1.448   4.234   0.097
 3102WAT     H2 9549   1.538   4.138   0.194
 3103WAT      O 9550   9.513   8.109   4.318
 3103WAT     H1 9551   9.520   8.123   4.417
 3103WAT     H2 9552   9.504   8.197   4.272
 3104WAT      O 9553   0.956   5.072   1.125
 3104WAT     H1 9554   0.949   5.171   1.113
 3104WAT     H2 9555   1.038   5.039   1.078
 3105WAT      O 9556   5.585   1.950   7.650
 3105WAT     H1 9557   5.539   1.947   7.562
 3105WAT     H2 9558   5.661   1.886   7.651
 3106WAT      O 9559   9.830   6.379   4.151
 3106WAT     H1 9560   9.806   6.429   4.068
 3106WAT     H2 9561   9.838   6.443   4.228
 3107WAT      O 9562   8.261   4.523   0.456
 3107WAT     H1 9563   8.349   4.501   0.496
 3107WAT     H2 9564   8.244   4.464   0.377
 3108WAT      O 9565   9.475   4.398   7.057
 3108WAT     H1 9566   9.464   4.454   7.139
 3108WAT     H2 9567   9.562   4.421   7.013
 3109WAT      O 9568   5.776   2.743   8.056
 3109WAT     H1 9569   5.762   2.790   8.142
 3109WAT     H2 9570   5.868   2.704   8.053
 3110WAT      O 9571   1.329   3.110   7.518
 3110WAT     H1 9572   1.336   3.201   7.558
 3110WAT     H2 9573   1.281   3.049   7.581
 3111WAT      O 9574   6.018   0.846   6.867
 3111WAT     H1 9575   6.092   0.780   6.885
 3111WAT     H2 9576   5.986   0.884   6.954
 3112WAT      O 9577   0.975   6.628   3.783
 3112WAT     H1 9578   1.026   6.589   3.706
 3112WAT     H2 9579   0.878   6.635   3.759
 3113WAT      O 9580   6.169   1.252   7.649
 3113WAT     H1 9581   6.182   1.345   7.683
 3113WAT     H2 9582   6.257   1.204   7.653
 3114WAT      O 9583   7.439   1.486   1.282
 3114WAT     H1 9584   7.354   1.487   1.334
 3114WAT     H2 9585   7.512   1.448   1.338
 3115WAT      O 9586   2.590   8.227   6.887
 3115WAT     H1 9587   2.496   8.200   6.865
 3115WAT     H2 9588   2.601   8.232   6.987
 3116WAT      O 9589   1.216   3.328   0.273
 3116WAT     H1 9590   1.290   3.283   0.223
 3116WAT     H2 9591   1.132   3.321   0.219
 3117WAT      O 9592   2.036   7.593   1.096
 3117WAT     H1 9593   2.010   7.501   1.065
 3117WAT     H2 9594   2.118   7.623   1.047
 3118WAT      O 9595   4.186   0.672   7.592
 3118WAT     H1 9596   4.127   0.727   7.651
 3118WAT     H2 9597   4.150   0.672   7.499
 3119WAT      O 9598   6.047   8.312   2.312
 3119WAT     H1 9599   5.976   8.377   2.341
 3119WAT     H2 9600   6.044   8.231   2.371
 3120WAT      O 9601   5.937   0.493   5.273
 3120WAT     H1 9602   5.910   0.588   5.285
 3120WAT     H2 9603   6.011   0.470   5.337
 3121WAT      O 9604   0.855   8.479   8.362
 3121WAT     H1 9605   0.799   8.559   8.338
 3121WAT     H2 9606   0.907   8.450   8.282
 3122WAT      O 9607   8.562   6.258   9.507
 3122WAT     H1 9608   8.500   6.190   9.467
 3122WAT     H2 9609   8.656   6.233   9.486
 3123WAT      O 9610   9.376   9.127   0.699
 3123WAT     H1 9611   9.394   9.055   0.632
 3123WAT     H2 9612   9.459   9.147   0.750
 3124WAT      O 9613   2.816   2.455   1.541
 3124WAT     H1 9614   2.825   2.451   1.442
 3124WAT     H2 9615   2.736   2.510   1.566
 3125WAT      O 9616   6.968   3.224   1.126
 3125WAT     H1 9617   7.019   3.309   1.132
 3125WAT     H2 9618   6.875   3.243   1.093
 3126WAT      O 9619   6.728   1.332   1.936
 3126WAT     H1 9620   6.718   1.251   1.994
 3126WAT     H2 9621   6.656   1.334   1.867
 3127WAT      O 9622   9.592   7.516   0.021
 3127WAT     H1 9623   9.526   7.546   0.090
 3127WAT     H2 9624   9.637   7.595  -0.018
 3128WAT      O 9625   3.851   5.297   6.621
 3128WAT     H1 9626   3.774   5.233   6.623
 3128WAT     H2 9627   3.895   5.299   6.711
 3129WAT      O 9628   5.158   1.126   3.320
 3129WAT     H1 9629   5.120   1.201   3.266
 3129WAT     H2 9630   5.250   1.152   3.352
 3130WAT      O 9631   4.504   5.062   2.641
 3130WAT     H1 9632   4.435   5.072   2.570
 3130WAT     H2 9633   4.592   5.098   2.608
 3131WAT      O 9634   8.062   3.715   2.842
 3131WAT     H1 9635   8.081   3.787   2.909
 3131WAT     H2 9636   7.969   3.681   2.855
 3132WAT      O 9637   7.966   4.023   6.417
 3132WAT     H1 9638   7.990   3.935   6.458
 3132WAT     H2 9639   7.905   4.072   6.478
 3133WAT      O 9640   9.703   0.804   4.360
 3133WAT     H1 9641   9.632   0.741   4.330
 3133WAT     H2 9642   9.789   0.781   4.315
 3134WAT      O 9643   9.017   7.431   6.800
 3134WAT     H1 9644   8.926   7.405   6.769
 3134WAT     H2 9645   9.044   7.373   6.877
 3135WAT      O 9646   9.105   9.345   6.980
 3135WAT     H1 9647   9.037   9.417   6.975
 3135WAT     H2 9648   9.111   9.298   6.892
 3136WAT      O 9649   5.265   8.909   0.241
 3136WAT     H1 9650   5.305   8.996   0.269
 3136WAT     H2 9651   5.252   8.851   0.321
 3137WAT      O 9652   0.431   2.372   2.850
 3137WAT     H1 9653   0.388   2.446   2.903
 3137WAT     H2 9654   0.529   2.390   2.841
 3138WAT      O 9655   6.592   1.897   8.810
 3138WAT     H1 9656   6.532   1.860   8.881
 3138WAT     H2 9657   6.650   1.969   8.849
 3139WAT      O 9658   1.355   0.788   7.152
 3139WAT     H1 9659   1.284   0.773   7.221
 3139WAT     H2 9660   1.407   0.703   7.140
 3140WAT      O 9661   0.997   6.006   6.128
 3140WAT     H1 9662   0.902   6.031   6.148
 3140WAT     H2 9663   1.011   6.009   6.029
 3141WAT      O 9664   0.771   9.677   1.546
 3141WAT     H1 9665   0.846   9.742   1.534
 3141WAT     H2 9666   0.696   9.721   1.595
 3142WAT      O 9667   6.234   9.776   7.194
 3142WAT     H1 9668   6.134   9.784   7.194
 3142WAT     H2 9669   6.273   9.855   7.146
 3143WAT      O 9670   5.004   4.588   0.979
 3143WAT     H1 9671   5.038   4.551   0.892
 3143WAT     H2 9672   4.926   4.535   1.010
 3144WAT      O 9673   0.293   7.896   6.950
 3144WAT     H1 9674   0.271   7.799   6.960
 3144WAT     H2 9675   0.322   7.913   6.856
 3145WAT      O 9676   7.501   1.703   5.591
 3145WAT     H1 9677   7.600   1.706   5.578
 3145WAT     H2 9678   7.479   1.647   5.672
 3146WAT      O 9679   3.496   0.426   6.635
 3146WAT     H1 9680   3.434   0.370   6.689
 3146WAT     H2 9681   3.446   0.469   6.560
 3147WAT      O 9682   3.032   5.990   2.824
 3147WAT     H1 9683   3.060   5.898   2.850
 3147WAT     H2 9684   2.951   6.016   2.877
 3148WAT      O 9685   7.557   7.183   0.514
 3148WAT     H1 9686   7.644   7.168   0.467
 3148WAT     H2 9687   7.487   7.208   0.448
 3149WAT      O 9688   8.617   7.141   2.132
 3149WAT     H1 9689   8.571   7.224   2.101
 3149WAT     H2 9690   8.691   7.165   2.194
 3150WAT      O 9691   7.531   1.919   8.251
 3150WAT     H1 9692   7.581   2.002   8.225
 3150WAT     H2 9693   7.535   1.907   8.350
 3151WAT      O 9694   0.591   2.014   3.769
 3151WAT     H1 9695   0.553   1.935   3.719
 3151WAT     H2 9696   0.670   2.049   3.720
 3152WAT      O 9697   1.266   9.585   4.497
 3152WAT     H1 9698   1.193   9.597   4.564
 3152WAT     H2 9699   1.354   9.572   4.544
 3153WAT      O 9700   7.186   9.719   7.583
 3153WAT     H1 9701   7.210   9.816   7.593
 3153WAT     H2 9702   7.226   9.667   7.658
 3154WAT      O 9703   3.989   6.125   7.450
 3154WAT     H1 9704   3.898   6.083   7.441
 3154WAT     H2 9705   4.028   6.101   7.538
 3155WAT      O 9706   2.759   0.608   7.032
 3155WAT     H1 9707   2.856   0.630   7.020
 3155WAT     H2 9708   2.748   0.550   7.113
 3156WAT      O 9709   3.713   6.566   8.744
 3156WAT     H1 9710   3.626   6.516   8.745
 3156WAT     H2 9711   3.698   6.657   8.706
 3157WAT      O 9712   2.033   8.984   6.074
 3157WAT     H1 9713   2.039   8.988   6.173
 3157WAT     H2 9714   2.024   8.889   6.045
 3158WAT      O 9715   6.711   2.367   4.008
 3158WAT     H1 9716   6.761   2.411   4.084
 3158WAT     H2 9717   6.752   2.395   3.921
 3159WAT      O 9718   8.113   9.222   0.864
 3159WAT     H1 9719   8.184   9.183   0.923
 3159WAT     H2 9720   8.129   9.194   0.769
 3160WAT      O 9721   0.419   3.573   2.196
 3160WAT     H1 9722   0.420   3.482   2.236
 3160WAT     H2 9723   0.512   3.607   2.186
 3161WAT      O 9724   1.915   6.264   1.039
 3161WAT     H1 9725   1.883   6.245   0.947
 3161WAT     H2 9726   2.003   6.313   1.035
 3162WAT      O 9727   8.342   6.149   3.325
 3162WAT     H1 9728   8.348   6.052   3.303
 3162WAT     H2 9729   8.433   6.185   3.347
 3163WAT      O 9730   8.178   3.030   5.204
 3163WAT     H1 9731   8.236   3.071   5.274
 3163WAT     H2 9732   8.204   2.934   5.192
 3164WAT      O 9733   3.139   0.753   3.785
 3164WAT     H1 9734   3.199   0.682   3.748
 3164WAT     H2 9735   3.161   0.769   3.881
 3165WAT      O 9736   4.329   8.446   1.245
 3165WAT     H1 9737   4.314   8.357   1.288
 3165WAT     H2 9738   4.421   8.478   1.266
 3166WAT      O 9739   7.444   8.965   7.915
 3166WAT     H1 9740   7.479   8.877   7.883
 3166WAT     H2 9741   7.414   9.019   7.836
 3167WAT      O 9742   9.372   3.150   7.167
 3167WAT     H1 9743   9.430   3.146   7.086
 3167WAT     H2 9744   9.429   3.168   7.247
 3168WAT      O 9745   5.312   1.454   2.186
 3168WAT     H1 9746   5.312   1.403   2.272
 3168WAT     H2 9747   5.282   1.548   2.203
 3169WAT      O 9748   3.557   2.162   5.860
 3169WAT     H1 9749   3.602   2.176   5.773
 3169WAT     H2 9750   3.613   2.199   5.934
 3170WAT      O 9751   2.078   4.737   3.725
 3170WAT     H1 9752   2.010   4.670   3.755
 3170WAT     H2 9753   2.164   4.722   3.773
 3171WAT      O 9754   0.363   2.042   2.360
 3171WAT     H1 9755   0.451   2.074   2.395
 3171WAT     H2 9756   0.326   1.973   2.421
 3172WAT      O 9757   5.541   3.694   3.025
 3172WAT     H1 9758   5.500   3.699   2.934
 3172WAT     H2 9759   5.600   3.774   3.039
 3173WAT      O 9760   0.062   2.658   3.693
 3173WAT     H1 9761   0.034   2.691   3.784
 3173WAT     H2 9762   0.122   2.579   3.703
 3174WAT      O 9763   3.327   0.887   5.820
 3174WAT     H1 9764   3.280   0.805   5.852
 3174WAT     H2 9765   3.363   0.937   5.898
 3175WAT      O 9766   5.306   7.778   9.565
 3175WAT     H1 9767   5.306   7.874   9.537
 3175WAT     H2 9768   5.362   7.725   9.502
 3176WAT      O 9769   8.022   5.220   0.279
 3176WAT     H1 9770   8.052   5.221   0.184
 3176WAT     H2 9771   7.922   5.208   0.282
 3177WAT      O 9772   3.568   1.247   3.807
 3177WAT     H1 9773   3.549   1.247   3.709
 3177WAT     H2 9774   3.564   1.153   3.842
 3178WAT      O 9775   6.249   2.434   9.071
 3178WAT     H1 9776   6.276   2.487   9.151
 3178WAT     H2 9777   6.318   2.443   9.000
 3179WAT      O 9778   7.872   9.537   8.570
 3179WAT     H1 9779   7.820   9.517   8.487
 3179WAT     H2 9780   7.925   9.621   8.557
 3180WAT      O 9781   6.086   3.499   7.334
 3180WAT     H1 9782   6.105   3.539   7.244
 3180WAT     H2 9783   6.170   3.495   7.387
 3181WAT      O 9784   4.370   0.531   3.172
 3181WAT     H1 9785   4.283   0.573   3.196
 3181WAT     H2 9786   4.416   0.585   3.102
 3182WAT      O 9787   7.900   3.319   0.375
 3182WAT     H1 9788   7.808   3.354   0.391
 3182WAT     H2 9789   7.946   3.306   0.463
 3183WAT      O 9790   1.457   5.073   5.948
 3183WAT     H1 9791   1.398   5.149   5.922
 3183WAT     H2 9792   1.403   5.002   5.991
 3184WAT      O 9793   7.982   3.266   7.384
 3184WAT     H1 9794   7.924   3.348   7.384
 3184WAT     H2 9795   8.039   3.266   7.466
 3185WAT      O 9796   1.454   0.408   6.403
 3185WAT     H1 9797   1.459   0.333   6.337
 3185WAT     H2 9798   1.443   0.495   6.354
 3186WAT      O 9799   3.824   7.307   4.664
 3186WAT     H1 9800   3.833   7.348   4.573
 3186WAT     H2 9801   3.744   7.247   4.666
 3187WAT      O 9802   5.865   7.897   1.468
 3187WAT     H1 9803   5.860   7.886   1.369
 3187WAT     H2 9804   5.801   7.969   1.496
 3188WAT      O 9805   6.920   0.740   7.943
 3188WAT     H1 9806   7.005   0.774   7.903
 3188WAT     H2 9807   6.927   0.741   8.043
 3189WAT      O 9808   2.575   6.821   8.871
 3189WAT     H1 9809   2.606   6.726   8.870
 3189WAT     H2 9810   2.509   6.835   8.797
 3190WAT      O 9811   0.681   9.720   7.988
 3190WAT     H1 9812   0.663   9.636   7.937
 3190WAT     H2 9813   0.708   9.792   7.924
 3191WAT      O 9814   5.575   2.194   6.925
 3191WAT     H1 9815   5.651   2.243   6.882
 3191WAT     H2 9816   5.502   2.182   6.859
 3192WAT      O 9817   7.519   8.694   6.426
 3192WAT     H1 9818   7.500   8.600   6.456
 3192WAT     H2 9819   7.432   8.743   6.413
 3193WAT      O 9820   4.018   0.557   9.180
 3193WAT     H1 9821   3.977   0.602   9.260
 3193WAT     H2 9822   4.064   0.474   9.208
 3194WAT      O 9823   5.282   0.286   0.732
 3194WAT     H1 9824   5.359   0.285   0.795
 3194WAT     H2 9825   5.308   0.241   0.646
 3195WAT      O 9826   5.003   8.051   6.288
 3195WAT     H1 9827   5.084   7.992   6.279
 3195WAT     H2 9828   5.019   8.136   6.239
 3196WAT      O 9829   3.450   8.589   9.651
 3196WAT     H1 9830   3.390   8.652   9.701
 3196WAT     H2 9831   3.483   8.633   9.568
 3197WAT      O 9832   4.241   0.699   4.254
 3197WAT     H1 9833   4.263   0.639   4.330
 3197WAT     H2 9834   4.155   0.747   4.272
 3198WAT      O 9835   0.592   9.584   3.978
 3198WAT     H1 9836   0.542   9.602   3.894
 3198WAT     H2 9837   0.592   9.666   4.036
 3199WAT      O 9838   5.959   3.872   7.122
 3199WAT     H1 9839   5.995   3.797   7.177
 3199WAT     H2 9840   5.994   3.865   7.028
 3200WAT      O 9841   4.550   7.240   3.880
 3200WAT     H1 9842   4.490   7.274   3.951
 3200WAT     H2 9843   4.645   7.244   3.912
 3201WAT      O 9844   0.898   6.545   6.304
 3201WAT     H1 9845   0.858   6.632   6.277
 3201WAT     H2 9846   0.903   6.539   6.404
 3202WAT      O 9847   9.671   3.394   6.171
 3202WAT     H1 9848   9.595   3.447   6.210
 3202WAT     H2 9849   9.753   3.410   6.226
 3203WAT      O 9850   1.737   9.188   5.473
 3203WAT     H1 9851   1.652   9.136   5.478
 3203WAT     H2 9852   1.782   9.188   5.563
 3204WAT      O 9853   9.580   5.013   2.585
 3204WAT     H1 9854   9.671   5.049   2.605
 3204WAT     H2 9855   9.587   4.942   2.515
 3205WAT      O 9856   5.988   7.793   7.443
 3205WAT     H1 9857   5.964   7.775   7.538
 3205WAT     H2 9858   6.016   7.708   7.399
 3206WAT      O 9859   5.598   5.589   5.932
 3206WAT     H1 9860   5.561   5.499   5.952
 3206WAT     H2 9861   5.524   5.653   5.914
 3207WAT      O 9862   9.483   2.034   7.005
 3207WAT     H1 9863   9.560   2.062   6.948
 3207WAT     H2 9864   9.423   1.974   6.953
 3208WAT      O 9865   4.768   7.826   1.435
 3208WAT     H1 9866   4.669   7.842   1.434
 3208WAT     H2 9867   4.787   7.739   1.480
 3209WAT      O 9868   9.587   3.988   1.006
 3209WAT     H1 9869   9.554   4.079   1.031
 3209WAT     H2 9870   9.569   3.924   1.081
 3210WAT      O 9871   5.499   5.304   0.798
 3210WAT     H1 9872   5.519   5.322   0.895
 3210WAT     H2 9873   5.447   5.219   0.791
 3211WAT      O 9874   8.290   7.247   1.082
 3211WAT     H1 9875   8.295   7.197   1.169
 3211WAT     H2 9876   8.266   7.184   1.009
 3212WAT      O 9877   4.576   0.540   0.436
 3212WAT     H1 9878   4.548   0.569   0.345
 3212WAT     H2 9879   4.659   0.483   0.430
 3213WAT      O 9880   8.936   0.189   1.058
 3213WAT     H1 9881   8.862   0.178   0.992
 3213WAT     H2 9882   9.009   0.244   1.018
 3214WAT      O 9883   2.814   9.229   0.081
 3214WAT     H1 9884   2.752   9.305   0.060
 3214WAT     H2 9885   2.885   9.224   0.010
 3215WAT      O 9886   9.356   7.307   0.251
 3215WAT     H1 9887   9.305   7.294   0.336
 3215WAT     H2 9888   9.328   7.238   0.184
 3216WAT      O 9889   9.806   3.072   4.231
 3216WAT     H1 9890   9.758   2.992   4.266
 3216WAT     H2 9891   9.839   3.128   4.307
 3217WAT      O 9892   5.108   5.341   9.385
 3217WAT     H1 9893   5.044   5.377   9.453
 3217WAT     H2 9894   5.104   5.241   9.385
 3218WAT      O 9895   2.098   7.038   2.904
 3218WAT     H1 9896   2.182   6.986   2.889
 3218WAT     H2 9897   2.121   7.134   2.917
 3219WAT      O 9898   5.287   3.092   4.097
 3219WAT     H1 9899   5.244   3.117   4.010
 3219WAT     H2 9900   5.367   3.149   4.112
 3220WAT      O 9901   1.959   3.669   9.087
 3220WAT     H1 9902   1.972   3.607   9.009
 3220WAT     H2 9903   1.941   3.761   9.053
 3221WAT      O 9904   0.199   9.046   4.918
 3221WAT     H1 9905   0.286   9.008   4.950
 3221WAT     H2 9906   0.217   9.134   4.872
 3222WAT      O 9907   3.014   2.610   5.198
 3222WAT     H1 9908   2.919   2.617   5.168
 3222WAT     H2 9909   3.075   2.611   5.118
 3223WAT      O 9910   4.107   9.378   6.461
 3223WAT     H1 9911   4.111   9.278   6.462
 3223WAT     H2 9912   4.133   9.411   6.371
 3224WAT      O 9913   2.606   6.469   2.748
 3224WAT     H1 9914   2.556   6.447   2.664
 3224WAT     H2 9915   2.604   6.568   2.762
 3225WAT      O 9916   3.907   3.960   6.816
 3225WAT     H1 9917   3.823   3.909   6.838
 3225WAT     H2 9918   3.968   3.901   6.762
 3226WAT      O 9919   6.123   4.519   9.519
 3226WAT     H1 9920   6.185   4.532   9.597
 3226WAT     H2 9921   6.040   4.572   9.534
 3227WAT      O 9922   9.254   4.725   3.423
 3227WAT     H1 9923   9.319   4.789   3.383
 3227WAT     H2 9924   9.169   4.726   3.370
 3228WAT      O 9925   2.948   6.815   0.113
 3228WAT     H1 9926   2.943   6.887   0.182
 3228WAT     H2 9927   3.031   6.827   0.058
 3229WAT      O 9928   8.513   0.432   5.193
 3229WAT     H1 9929   8.481   0.483   5.113
 3229WAT     H2 9930   8.526   0.336   5.169
 3230WAT      O 9931   4.891   3.384   7.032
 3230WAT     H1 9932   4.978   3.415   6.992
 3230WAT     H2 9933   4.910   3.324   7.110
 3231WAT      O 9934   5.260   3.000   5.296
 3231WAT     H1 9935   5.325   2.952   5.355
 3231WAT     H2 9936   5.299   3.089   5.269
 3232WAT      O 9937   5.096   1.561   6.554
 3232WAT     H1 9938   5.100   1.484   6.490
 3232WAT     H2 9939   5.148   1.539   6.636
 3233WAT      O 9940   0.715   0.052   1.868
 3233WAT     H1 9941   0.640   0.010   1.818
 3233WAT     H2 9942   0.702   0.151   1.872
 3234WAT      O 9943   7.003   4.042   9.359
 3234WAT     H1 9944   7.084   4.033   9.302
 3234WAT     H2 9945   7.020   4.002   9.449
 3235WAT      O 9946   1.719   1.594   4.771
 3235WAT     H1 9947   1.697   1.664   4.703
 3235WAT     H2 9948   1.646   1.589   4.839
 3236WAT      O 9949   1.255   6.591   2.036
 3236WAT     H1 9950   1.336   6.545   2.000
 3236WAT     H2 9951   1.284   6.669   2.092
 3237WAT      O 9952   2.212   6.012   1.824
 3237WAT     H1 9953   2.192   5.949   1.749
 3237WAT     H2 9954   2.127   6.045   1.864
 3238WAT      O 9955   3.895   3.381   1.725
 3238WAT     H1 9956   3.845   3.343   1.647
 3238WAT     H2 9957   3.977   3.429   1.692
 3239WAT      O 9958   0.651   3.695   9.737
 3239WAT     H1 9959   0.672   3.792   9.725
 3239WAT     H2 9960   0.643   3.652   9.647
 3240WAT      O 9961   5.675   7.928   8.259
 3240WAT     H1 9962   5.611   7.851   8.257
 3240WAT     H2 9963   5.713   7.936   8.352
 3241WAT      O 9964   2.735   6.560   5.273
 3241WAT     H1 9965   2.742   6.486   5.206
 3241WAT     H2 9966   2.820   6.613   5.275
 3242WAT      O 9967   8.404   7.098   8.480
 3242WAT     H1 9968   8.422   7.119   8.384
 3242WAT     H2 9969   8.308   7.075   8.492
 3243WAT      O 9970   5.838   6.246   6.176
 3243WAT     H1 9971   5.899   6.294   6.240
 3243WAT     H2 9972   5.887   6.228   6.091
 3244WAT      O 9973   0.951   4.577   8.554
 3244WAT     H1 9974   0.908   4.665   8.533
 3244WAT     H2 9975   0.880   4.511   8.579
 3245WAT      O 9976   9.145   7.302   9.857
 3245WAT     H1 9977   9.112   7.284   9.950
 3245WAT     H2 9978   9.130   7.398   9.834
 3246WAT      O 9979   5.228   4.854   8.382
 3246WAT     H1 9980   5.243   4.925   8.450
 3246WAT     H2 9981   5.290   4.778   8.398
 3247WAT      O 9982   4.162   4.938   0.172
 3247WAT     H1 9983   4.230   4.965   0.241
 3247WAT     H2 9984   4.074   4.979   0.196
 3248WAT      O 9985   8.705   7.769   1.479
 3248WAT     H1 9986   8.731   7.848   1.535
 3248WAT     H2 9987   8.607   7.752   1.490
 3249WAT      O 9988   4.549   2.913   7.829
 3249WAT     H1 9989   4.511   2.842   7.769
 3249WAT     H2 9990   4.476   2.952   7.885
 3250WAT      O 9991   4.010   0.244   8.261
 3250WAT     H1 9992   3.958   0.315   8.309
 3250WAT     H2 9993   3.956   0.209   8.184
 3251WAT      O 9994   3.184   9.008   3.610
 3251WAT     H1 9995   3.265   9.020   3.667
 3251WAT     H2 9996   3.211   9.003   3.514
 3252WAT      O 9997   3.809   1.586   4.767
 3252WAT     H1 9998   3.735   1.519   4.757
 3252WAT     H2 9999   3.787   1.648   4.842
 3253WAT      O10000   3.584   0.942   5.279
 3253WAT     H110001   3.493   0.928   5.242
 3253WAT     H210002   3.603   1.040   5.286
 3254WAT      O10003   8.843   3.570   1.354
 3254WAT     H110004   8.843   3.501   1.281
 3254WAT     H210005   8.837   3.661   1.314
 3255WAT      O10006   5.407   3.541   6.791
 3255WAT     H110007   5.349   3.623   6.791
 3255WAT     H210008   5.398   3.494   6.879
 3256WAT      O10009   0.475   4.309   0.408
 3256WAT     H110010   0.403   4.247   0.438
 3256WAT     H210011   0.555   4.257   0.380
 3257WAT      O10012   9.186   0.463   2.484
 3257WAT     H110013   9.247   0.540   2.502
 3257WAT     H210014   9.238   0.378   2.483
 3258WAT      O10015   6.256   5.458   0.648
 3258WAT     H110016   6.341   5.498   0.682
 3258WAT     H210017   6.270   5.425   0.555
 3259WAT      O10018   9.138   9.406   1.005
 3259WAT     H110019   9.070   9.473   1.033
 3259WAT     H210020   9.149   9.338   1.078
 3260WAT      O10021   7.527   8.290   3.331
 3260WAT     H110022   7.484   8.336   3.253
 3260WAT     H210023   7.568   8.204   3.301
 3261WAT      O10024   9.033   5.645   4.052
 3261WAT     H110025   9.051   5.729   4.103
 3261WAT     H210026   9.032   5.567   4.115
 3262WAT      O10027   5.540   7.088   5.266
 3262WAT     H110028   5.576   7.040   5.346
 3262WAT     H210029   5.522   7.023   5.193
 3263WAT      O10030   7.670   5.383   2.286
 3263WAT     H110031   7.696   5.368   2.381
 3263WAT     H210032   7.602   5.315   2.259
 3264WAT      O10033   2.524   6.037   2.230
 3264WAT     H110034   2.590   5.964   2.212
 3264WAT     H210035   2.550   6.118   2.178
 3265WAT      O10036   4.056   4.147   4.735
 3265WAT     H110037   4.036   4.050   4.751
 3265WAT     H210038   4.142   4.171   4.779
 3266WAT      O10039   5.281   1.180   0.226
 3266WAT     H110040   5.252   1.178   0.130
 3266WAT     H210041   5.356   1.115   0.239
 3267WAT      O10042   2.197   4.694   5.929
 3267WAT     H110043   2.286   4.729   5.901
 3267WAT     H210044   2.156   4.756   5.996
 3268WAT      O10045   4.512   1.675   3.316
 3268WAT     H110046   4.599   1.634   3.290
 3268WAT     H210047   4.438   1.608   3.305
 3269WAT      O10048   3.006   9.436   6.949
 3269WAT     H110049   3.072   9.496   6.995
 3269WAT     H210050   2.945   9.492   6.892
 3270WAT      O10051   1.065   8.435   6.453
 3270WAT     H110052   0.987   8.498   6.453
 3270WAT     H210053   1.136   8.471   6.392
 3271WAT      O10054   9.847   2.776   3.906
 3271WAT     H110055   9.904   2.857   3.919
 3271WAT     H210056   9.756   2.804   3.876
 3272WAT      O10057   7.986   6.522   7.183
 3272WAT     H110058   8.047   6.473   7.121
 3272WAT     H210059   8.022   6.518   7.276
 3273WAT      O10060   3.050   3.523   6.398
 3273WAT     H110061   3.032   3.550   6.493
 3273WAT     H210062   2.986   3.569   6.337
 3274WAT      O10063   2.837   6.397   9.852
 3274WAT     H110064   2.840   6.494   9.831
 3274WAT     H210065   2.861   6.344   9.770
 3275WAT      O10066   9.631   6.304   1.368
 3275WAT     H110067   9.709   6.364   1.352
 3275WAT     H210068   9.632   6.229   1.302
 3276WAT      O10069   5.742   7.688   5.974
 3276WAT     H110070   5.722   7.591   5.967
 3276WAT     H210071   5.822   7.710   5.918
 3277WAT      O10072   8.093   9.447   3.591
 3277WAT     H110073   8.060   9.524   3.646
 3277WAT     H210074   8.022   9.418   3.528
 3278WAT      O10075   9.051   5.720   2.064
 3278WAT     H110076   9.052   5.797   2.001
 3278WAT     H210077   9.062   5.754   2.158
 3279WAT      O10078   9.083   8.543   3.918
 3279WAT     H110079   9.145   8.603   3.970
 3279WAT     H210080   9.063   8.462   3.972
 3280WAT      O10081   4.363   8.730   0.824
 3280WAT     H110082   4.309   8.779   0.892
 3280WAT     H210083   4.309   8.718   0.740
 3281WAT      O10084   4.164   0.981   4.509
 3281WAT     H110085   4.209   1.010   4.425
 3281WAT     H210086   4.232   0.954   4.576
 3282WAT      O10087   7.084   6.402   8.275
 3282WAT     H110088   7.107   6.321   8.329
 3282WAT     H210089   7.097   6.383   8.178
 3283WAT      O10090   9.378   6.919   8.262
 3283WAT     H110091   9.383   6.897   8.164
 3283WAT     H210092   9.300   6.980   8.278
 3284WAT      O10093   4.472   3.943   5.159
 3284WAT     H110094   4.392   3.957   5.217
 3284WAT     H210095   4.462   3.858   5.109
 3285WAT      O10096   3.126   4.946   2.496
 3285WAT     H110097   3.110   4.967   2.400
 3285WAT     H210098   3.220   4.970   2.521
 3286WAT      O10099   6.397   0.396   6.752
 3286WAT     H110100   6.335   0.317   6.747
 3286WAT     H210101   6.355   0.474   6.706
 3287WAT      O10102   1.992   6.149   1.998
 3287WAT     H110103   2.006   6.230   1.942
 3287WAT     H210104   1.975   6.175   2.093
 3288WAT      O10105   9.160   6.086   8.996
 3288WAT     H110106   9.201   6.166   8.952
 3288WAT     H210107   9.229   6.014   9.004
 3289WAT      O10108   2.422   6.426   2.559
 3289WAT     H110109   2.485   6.355   2.526
 3289WAT     H210110   2.393   6.484   2.483
 3290WAT      O10111   7.431   4.273   9.632
 3290WAT     H110112   7.440   4.225   9.720
 3290WAT     H210113   7.510   4.253   9.575
 3291WAT      O10114   2.877   1.217   6.896
 3291WAT     H110115   2.843   1.154   6.826
 3291WAT     H210116   2.866   1.176   6.986
 3292WAT      O10117   4.140   8.448   3.429
 3292WAT     H110118   4.104   8.541   3.419
 3292WAT     H210119   4.161   8.411   3.338
 3293WAT      O10120   8.355   2.526   3.601
 3293WAT     H110121   8.385   2.594   3.534
 3293WAT     H210122   8.435   2.491   3.650
 3294WAT      O10123   7.584   6.353   9.204
 3294WAT     H110124   7.653   6.297   9.158
 3294WAT     H210125   7.518   6.293   9.250
 3295WAT      O10126   6.782   1.959   2.183
 3295WAT     H110127   6.760   1.932   2.089
 3295WAT     H210128   6.712   2.022   2.218
 3296WAT      O10129   3.806   0.823   4.165
 3296WAT     H110130   3.865   0.825   4.246
 3296WAT     H210131   3.847   0.764   4.096
 3297WAT      O10132   1.632   9.813   6.420
 3297WAT     H110133   1.636   9.722   6.379
 3297WAT     H210134   1.636   9.804   6.520
 3298WAT      O10135   6.276   1.438   6.489
 3298WAT     H110136   6.342   1.366   6.465
 3298WAT     H210137   6.220   1.408   6.566
 3299WAT      O10138   9.153   5.774   3.809
 3299WAT     H110139   9.103   5.731   3.885
 3299WAT     H210140   9.156   5.711   3.731
 3300WAT      O10141   8.787   9.267   2.675
 3300WAT     H110142   8.740   9.227   2.597
 3300WAT     H210143   8.720   9.308   2.736
 3301WAT      O10144   5.839   3.887   3.991
 3301WAT     H110145   5.823   3.968   4.047
 3301WAT     H210146   5.862   3.915   3.898
 3302WAT      O10147   4.191   5.582   0.747
 3302WAT     H110148   4.213   5.508   0.683
 3302WAT     H210149   4.253   5.659   0.731
 3303WAT      O10150   5.213   3.067   7.714
 3303WAT     H110151   5.184   3.060   7.810
 3303WAT     H210152   5.311   3.048   7.708
 3304WAT      O10153   6.457   6.651   3.120
 3304WAT     H110154   6.463   6.641   3.020
 3304WAT     H210155   6.469   6.562   3.163
 3305WAT      O10156   9.028   7.020   2.454
 3305WAT     H110157   9.095   7.089   2.427
 3305WAT     H210158   9.059   6.930   2.422
 3306WAT      O10159   9.386   4.457   0.976
 3306WAT     H110160   9.331   4.537   1.003
 3306WAT     H210161   9.377   4.443   0.878
 3307WAT      O10162   4.682   3.755   6.560
 3307WAT     H110163   4.590   3.772   6.526
 3307WAT     H210164   4.685   3.665   6.605
 3308WAT      O10165   0.692   9.387   5.845
 3308WAT     H110166   0.606   9.406   5.798
 3308WAT     H210167   0.702   9.289   5.859
 3309WAT      O10168   1.216   4.828   3.252
 3309WAT     H110169   1.165   4.748   3.219
 3309WAT     H210170   1.308   4.801   3.279
 3310WAT      O10171   3.208   4.646   7.129
 3310WAT     H110172   3.254   4.674   7.213
 3310WAT     H210173   3.118   4.609   7.151
 3311WAT      O10174   4.725   8.659   6.803
 3311WAT     H110175   4.804   8.684   6.859
 3311WAT     H210176   4.641   8.689   6.848
 3312WAT      O10177   5.357   7.734   3.953
 3312WAT     H110178   5.437   7.674   3.961
 3312WAT     H210179   5.300   7.705   3.876
 3313WAT      O10180   6.116   5.824   2.808
 3313WAT     H110181   6.198   5.794   2.856
 3313WAT     H210182   6.115   5.923   2.801
 3314WAT      O10183   1.961   7.099   8.303
 3314WAT     H110184   1.882   7.146   8.343
 3314WAT     H210185   2.009   7.047   8.375
 3315WAT      O10186   0.081   8.759   0.363
 3315WAT     H110187   0.066   8.858   0.359
 3315WAT     H210188   0.004   8.715   0.409
 3316WAT      O10189   7.378   6.740   2.385
 3316WAT     H110190   7.460   6.697   2.424
 3316WAT     H210191   7.366   6.709   2.291
 3317WAT      O10192   4.681   8.715   0.232
 3317WAT     H110193   4.778   8.729   0.249
 3317WAT     H210194   4.647   8.641   0.290
 3318WAT      O10195   1.526   0.749   3.899
 3318WAT     H110196   1.589   0.705   3.834
 3318WAT     H210197   1.443   0.778   3.851
 3319WAT      O10198   3.291   1.944   5.226
 3319WAT     H110199   3.326   1.917   5.316
 3319WAT     H210200   3.199   1.907   5.214
 3320WAT      O10201   2.000   1.099   5.774
 3320WAT     H110202   2.013   1.183   5.826
 3320WAT     H210203   2.086   1.048   5.771
 3321WAT      O10204   3.394   1.889   9.247
 3321WAT     H110205   3.332   1.866   9.321
 3321WAT     H210206   3.456   1.962   9.276
 3322WAT      O10207   9.788   9.695   9.792
 3322WAT     H110208   9.692   9.674   9.774
 3322WAT     H210209   9.844   9.614   9.774
 3323WAT      O10210   5.320  -0.002   1.374
 3323WAT     H110211   5.342   0.054   1.295
 3323WAT     H210212   5.326   0.054   1.457
 3324WAT      O10213   3.017   1.156   9.043
 3324WAT     H110214   2.962   1.100   9.104
 3324WAT     H210215   2.959   1.191   8.969
 3325WAT      O10216   6.953   1.681   1.282
 3325WAT     H110217   7.045   1.698   1.248
 3325WAT     H210218   6.891   1.665   1.205
 3326WAT      O10219   2.389   1.874   2.292
 3326WAT     H110220   2.309   1.890   2.351
 3326WAT     H210221   2.439   1.960   2.280
 3327WAT      O10222   2.970   2.202   9.755
 3327WAT     H110223   2.872   2.192   9.774
 3327WAT     H210224   3.018   2.119   9.785
 3328WAT      O10225   2.724   8.651   7.763
 3328WAT     H110226   2.658   8.581   7.735
 3328WAT     H210227   2.816   8.619   7.740
 3329WAT      O10228   6.476   1.165   8.871
 3329WAT     H110229   6.391   1.190   8.825
 3329WAT     H210230   6.532   1.110   8.809
 3330WAT      O10231   1.314   5.951   2.302
 3330WAT     H110232   1.248   5.898   2.354
 3330WAT     H210233   1.346   6.029   2.356
 3331WAT      O10234   5.610   9.360   6.765
 3331WAT     H110235   5.569   9.415   6.838
 3331WAT     H210236   5.549   9.285   6.743
 3332WAT      O10237   6.957   2.130   8.163
 3332WAT     H110238   6.949   2.206   8.098
 3332WAT     H210239   7.050   2.127   8.198
 3333WAT      O10240   4.924   1.971   7.965
 3333WAT     H110241   4.937   1.914   7.884
 3333WAT     H210242   4.828   2.000   7.970
 3334WAT      O10243   4.300   6.116   3.939
 3334WAT     H110244   4.299   6.018   3.920
 3334WAT     H210245   4.395   6.149   3.937
 3335WAT      O10246   0.459   3.303   1.612
 3335WAT     H110247   0.392   3.280   1.682
 3335WAT     H210248   0.438   3.254   1.527
 3336WAT      O10249   1.051   9.484   2.394
 3336WAT     H110250   0.966   9.532   2.418
 3336WAT     H210251   1.061   9.483   2.295
 3337WAT      O10252   9.450   9.595   3.490
 3337WAT     H110253   9.384   9.665   3.516
 3337WAT     H210254   9.430   9.510   3.540
 3338WAT      O10255   9.450   1.134   0.673
 3338WAT     H110256   9.405   1.130   0.762
 3338WAT     H210257   9.507   1.053   0.660
 3339WAT      O10258   4.945   8.434   5.059
 3339WAT     H110259   4.945   8.435   5.159
 3339WAT     H210260   5.003   8.360   5.026
 3340WAT      O10261   1.910   8.211   3.276
 3340WAT     H110262   1.831   8.201   3.216
 3340WAT     H210263   1.936   8.122   3.314
 3341WAT      O10264   9.606   4.936   2.842
 3341WAT     H110265   9.561   4.847   2.847
 3341WAT     H210266   9.609   4.966   2.746
 3342WAT      O10267   1.846   4.140   3.815
 3342WAT     H110268   1.902   4.061   3.841
 3342WAT     H210269   1.810   4.126   3.723
 3343WAT      O10270   9.874   6.444   9.196
 3343WAT     H110271   9.876   6.535   9.155
 3343WAT     H210272   9.877   6.451   9.296
 3344WAT      O10273   4.095   9.360   9.047
 3344WAT     H110274   4.080   9.404   9.135
 3344WAT     H210275   4.113   9.262   9.061
 3345WAT      O10276   4.596   9.098   8.188
 3345WAT     H110277   4.567   9.051   8.271
 3345WAT     H210278   4.584   9.037   8.109
 3346WAT      O10279   6.511   2.804   7.117
 3346WAT     H110280   6.454   2.757   7.050
 3346WAT     H210281   6.466   2.889   7.145
 3347WAT      O10282   0.589   9.831   7.633
 3347WAT     H110283   0.559   9.767   7.562
 3347WAT     H210284   0.519   9.902   7.645
 3348WAT      O10285   0.519   9.462   5.636
 3348WAT     H110286   0.548   9.390   5.573
 3348WAT     H210287   0.577   9.543   5.622
 3349WAT      O10288   4.100   3.267   4.257
 3349WAT     H110289   4.129   3.190   4.313
 3349WAT     H210290   4.163   3.344   4.268
 3350WAT      O10291   4.038   2.521   0.722
 3350WAT     H110292   4.069   2.426   0.725
 3350WAT     H210293   4.107   2.580   0.764
 3351WAT      O10294   8.871   4.150   2.392
 3351WAT     H110295   8.831   4.059   2.399
 3351WAT     H210296   8.964   4.144   2.356
 3352WAT      O10297   2.138   3.564   4.344
 3352WAT     H110298   2.041   3.550   4.364
 3352WAT     H210299   2.148   3.644   4.285
 3353WAT      O10300   2.808   3.468   8.441
 3353WAT     H110301   2.860   3.418   8.510
 3353WAT     H210302   2.775   3.554   8.481
 3354WAT      O10303   5.150   0.908   9.301
 3354WAT     H110304   5.144   0.957   9.214
 3354WAT     H210305   5.061   0.909   9.346
 3355WAT      O10306   8.021   6.679   9.241
 3355WAT     H110307   8.011   6.769   9.284
 3355WAT     H210308   8.070   6.689   9.155
 3356WAT      O10309   5.194   6.794   3.918
 3356WAT     H110310   5.282   6.750   3.938
 3356WAT     H210311   5.169   6.853   3.995
 3357WAT      O10312   3.286   6.794   5.558
 3357WAT     H110313   3.339   6.860   5.611
 3357WAT     H210314   3.214   6.755   5.615
 3358WAT      O10315   7.957   7.542   3.288
 3358WAT     H110316   7.877   7.483   3.283
 3358WAT     H210317   7.968   7.576   3.381
 3359WAT      O10318   5.327   9.618   9.367
 3359WAT     H110319   5.259   9.679   9.409
 3359WAT     H210320   5.296   9.524   9.375
 3360WAT      O10321   6.780   2.382   2.202
 3360WAT     H110322   6.752   2.289   2.228
 3360WAT     H210323   6.709   2.447   2.230
 3361WAT      O10324   7.022   6.220   0.875
 3361WAT     H110325   7.030   6.139   0.933
 3361WAT     H210326   7.060   6.200   0.785
 3362WAT      O10327   6.707   1.993   4.513
 3362WAT     H110328   6.732   2.090   4.517
 3362WAT     H210329   6.790   1.938   4.505
 3363WAT      O10330   6.547   7.278   9.438
 3363WAT     H110331   6.619   7.252   9.502
 3363WAT     H210332   6.460   7.283   9.486
 3364WAT      O10333   5.579   1.992   8.486
 3364WAT     H110334   5.668   2.038   8.486
 3364WAT     H210335   5.562   1.953   8.395
 3365WAT      O10336   8.374   7.440   7.396
 3365WAT     H110337   8.426   7.358   7.421
 3365WAT     H210338   8.406   7.517   7.451
 3366WAT      O10339   5.927   4.712   8.717
 3366WAT     H110340   5.829   4.711   8.737
 3366WAT     H210341   5.978   4.729   8.802
 3367WAT      O10342   6.411   5.272   9.621
 3367WAT     H110343   6.495   5.323   9.605
 3367WAT     H210344   6.419   5.181   9.580
 3368WAT      O10345   4.169   5.832   6.543
 3368WAT     H110346   4.212   5.922   6.552
 3368WAT     H210347   4.240   5.763   6.529
 3369WAT      O10348   6.367   4.360   7.782
 3369WAT     H110349   6.434   4.379   7.853
 3369WAT     H210350   6.398   4.400   7.695
 3370WAT      O10351   2.324   7.880   4.216
 3370WAT     H110352   2.392   7.807   4.215
 3370WAT     H210353   2.257   7.864   4.143
 3371WAT      O10354   2.719   9.024   7.243
 3371WAT     H110355   2.793   8.967   7.280
 3371WAT     H210356   2.713   9.108   7.297
 3372WAT      O10357   7.052   4.384   7.059
 3372WAT     H110358   6.964   4.340   7.044
 3372WAT     H210359   7.038   4.479   7.085
 3373WAT      O10360   9.185   1.995   7.180
 3373WAT     H110361   9.193   1.946   7.267
 3373WAT     H210362   9.173   1.930   7.106
 3374WAT      O10363   4.635   7.092   2.667
 3374WAT     H110364   4.723   7.075   2.623
 3374WAT     H210365   4.648   7.146   2.750
 3375WAT      O10366   9.207   9.534   4.365
 3375WAT     H110367   9.221   9.628   4.334
 3375WAT     H210368   9.164   9.481   4.291
 3376WAT      O10369   9.298   6.840   6.553
 3376WAT     H110370   9.248   6.804   6.632
 3376WAT     H210371   9.319   6.937   6.568
 3377WAT      O10372   9.070   0.575   0.654
 3377WAT     H110373   9.082   0.477   0.670
 3377WAT     H210374   8.991   0.589   0.594
 3378WAT      O10375   8.414   8.483   9.472
 3378WAT     H110376   8.363   8.500   9.557
 3378WAT     H210377   8.369   8.530   9.396
 3379WAT      O10378   8.380   7.531   2.684
 3379WAT     H110379   8.414   7.471   2.611
 3379WAT     H210380   8.427   7.510   2.769
 3380WAT      O10381   5.008   6.226   6.299
 3380WAT     H110382   5.030   6.280   6.380
 3380WAT     H210383   4.910   6.234   6.279
 3381WAT      O10384   1.167   3.215   2.105
 3381WAT     H110385   1.137   3.189   2.013
 3381WAT     H210386   1.231   3.146   2.140
 3382WAT      O10387   9.363   4.515   3.293
 3382WAT     H110388   9.326   4.590   3.348
 3382WAT     H210389   9.458   4.534   3.270
 3383WAT      O10390   9.444   0.574   5.560
 3383WAT     H110391   9.415   0.660   5.517
 3383WAT     H210392   9.532   0.545   5.522
 3384WAT      O10393   2.367   6.161   6.964
 3384WAT     H110394   2.313   6.132   6.885
 3384WAT     H210395   2.331   6.118   7.046
 3385WAT      O10396   4.527   9.253   0.600
 3385WAT     H110397   4.461   9.318   0.636
 3385WAT     H210398   4.529   9.172   0.659
 3386WAT      O10399   4.124   5.077   5.408
 3386WAT     H110400   4.051   5.008   5.401
 3386WAT     H210401   4.159   5.078   5.502
 3387WAT      O10402   9.191   7.005   8.851
 3387WAT     H110403   9.192   6.935   8.923
 3387WAT     H210404   9.103   7.002   8.803
 3388WAT      O10405   4.916   7.048   9.606
 3388WAT     H110406   4.887   7.079   9.515
 3388WAT     H210407   4.946   7.126   9.660
 3389WAT      O10408   1.449   9.064   0.978
 3389WAT     H110409   1.505   8.986   1.004
 3389WAT     H210410   1.403   9.100   1.058
 3390WAT      O10411   1.619   7.529   9.444
 3390WAT     H110412   1.522   7.540   9.465
 3390WAT     H210413   1.674   7.554   9.524
 3391WAT      O10414   2.703   2.168   3.705
 3391WAT     H110415   2.613   2.168   3.747
 3391WAT     H210416   2.767   2.115   3.761
 3392WAT      O10417   7.653   2.147   8.176
 3392WAT     H110418   7.655   2.151   8.076
 3392WAT     H210419   7.747   2.150   8.211
 3393WAT      O10420   2.819   3.033   4.616
 3393WAT     H110421   2.721   3.045   4.605
 3393WAT     H210422   2.866   3.119   4.596
 3394WAT      O10423   6.491   3.334   3.349
 3394WAT     H110424   6.395   3.354   3.328
 3394WAT     H210425   6.533   3.415   3.389
 3395WAT      O10426   2.847   9.606   6.792
 3395WAT     H110427   2.760   9.633   6.750
 3395WAT     H210428   2.912   9.583   6.720
 3396WAT      O10429   2.278   0.587   7.535
 3396WAT     H110430   2.182   0.591   7.563
 3396WAT     H210431   2.335   0.631   7.604
 3397WAT      O10432   0.827   8.352   3.567
 3397WAT     H110433   0.790   8.278   3.622
 3397WAT     H210434   0.761   8.377   3.496
 3398WAT      O10435   2.840   3.112   8.786
 3398WAT     H110436   2.873   3.198   8.747
 3398WAT     H210437   2.746   3.124   8.817
 3399WAT      O10438   2.160   2.897   3.867
 3399WAT     H110439   2.065   2.869   3.856
 3399WAT     H210440   2.210   2.876   3.782
 3400WAT      O10441   4.366   3.701   9.621
 3400WAT     H110442   4.396   3.668   9.532
 3400WAT     H210443   4.382   3.800   9.627
 3401WAT      O10444   0.892   6.984   2.876
 3401WAT     H110445   0.861   7.074   2.909
 3401WAT     H210446   0.927   6.931   2.953
 3402WAT      O10447   0.314   4.965   8.301
 3402WAT     H110448   0.372   5.012   8.234
 3402WAT     H210449   0.359   4.963   8.390
 3403WAT      O10450   1.972   9.758   2.038
 3403WAT     H110451   1.880   9.722   2.056
 3403WAT     H210452   2.014   9.706   1.964
 3404WAT      O10453   8.910   3.100   6.973
 3404WAT     H110454   8.921   3.179   6.913
 3404WAT     H210455   8.815   3.092   7.002
 3405WAT      O10456   2.053   2.907   5.861
 3405WAT     H110457   2.022   2.863   5.777
 3405WAT     H210458   2.096   2.839   5.920
 3406WAT      O10459   3.494   8.034   5.174
 3406WAT     H110460   3.507   8.047   5.273
 3406WAT     H210461   3.466   7.940   5.156
 3407WAT      O10462   5.033   6.717   6.511
 3407WAT     H110463   5.008   6.812   6.496
 3407WAT     H210464   5.112   6.712   6.572
 3408WAT      O10465   7.617   5.383   2.557
 3408WAT     H110466   7.574   5.471   2.536
 3408WAT     H210467   7.550   5.310   2.549
 3409WAT      O10468   3.456   7.388   4.001
 3409WAT     H110469   3.529   7.454   3.983
 3409WAT     H210470   3.440   7.382   4.100
 3410WAT      O10471   5.411   9.107   8.465
 3410WAT     H110472   5.430   9.175   8.394
 3410WAT     H210473   5.473   9.030   8.454
 3411WAT      O10474   3.240   9.563   4.303
 3411WAT     H110475   3.223   9.640   4.241
 3411WAT     H210476   3.315   9.507   4.267
 3412WAT      O10477   8.109   8.072   8.602
 3412WAT     H110478   8.174   8.111   8.537
 3412WAT     H210479   8.052   8.004   8.556
 3413WAT      O10480   1.732   3.346   3.017
 3413WAT     H110481   1.685   3.302   3.094
 3413WAT     H210482   1.716   3.444   3.020
 3414WAT      O10483   2.830   7.706   8.419
 3414WAT     H110484   2.778   7.739   8.340
 3414WAT     H210485   2.878   7.622   8.396
 3415WAT      O10486   2.264   8.793   4.524
 3415WAT     H110487   2.247   8.695   4.535
 3415WAT     H210488   2.178   8.843   4.530
 3416WAT      O10489   9.378   5.290   0.325
 3416WAT     H110490   9.466   5.330   0.349
 3416WAT     H210491   9.304   5.342   0.367
 3417WAT      O10492   7.177   5.245   4.553
 3417WAT     H110493   7.090   5.195   4.559
 3417WAT     H210494   7.246   5.185   4.514
 3418WAT      O10495   0.365   1.664   0.002
 3418WAT     H110496   0.421   1.736   0.043
 3418WAT     H210497   0.423   1.586  -0.021
 3419WAT      O10498   1.015   9.598   4.610
 3419WAT     H110499   0.982   9.647   4.690
 3419WAT     H210500   0.941   9.541   4.573
 3420WAT      O10501   1.831   7.859   0.453
 3420WAT     H110502   1.884   7.918   0.391
 3420WAT     H210503   1.775   7.796   0.400
 3421WAT      O10504   0.994   1.408   9.803
 3421WAT     H110505   0.997   1.434   9.707
 3421WAT     H210506   1.083   1.370   9.830
 3422WAT      O10507   9.704   0.072   7.277
 3422WAT     H110508   9.643   0.143   7.314
 3422WAT     H210509   9.651   0.003   7.229
 3423WAT      O10510   2.183   4.458   4.783
 3423WAT     H110511   2.246   4.524   4.824
 3423WAT     H210512   2.235   4.381   4.746
 3424WAT      O10513   4.715   5.238   1.716
 3424WAT     H110514   4.802   5.281   1.692
 3424WAT     H210515   4.731   5.141   1.735
 3425WAT      O10516   4.110   6.605   7.290
 3425WAT     H110517   4.071   6.531   7.344
 3425WAT     H210518   4.060   6.690   7.308
 3426WAT      O10519   5.514   4.918   4.242
 3426WAT     H110520   5.534   4.984   4.170
 3426WAT     H210521   5.426   4.874   4.223
 3427WAT      O10522   6.029   8.157   8.398
 3427WAT     H110523   6.034   8.200   8.489
 3427WAT     H210524   6.018   8.058   8.409
 3428WAT      O10525   6.627   4.135   1.610
 3428WAT     H110526   6.670   4.127   1.520
 3428WAT     H210527   6.596   4.230   1.624
 3429WAT      O10528   6.693   3.652   6.578
 3429WAT     H110529   6.643   3.577   6.620
 3429WAT     H210530   6.643   3.684   6.497
 3430WAT      O10531   1.518   7.476   6.965
 3430WAT     H110532   1.528   7.459   6.867
 3430WAT     H210533   1.457   7.553   6.979
 3431WAT      O10534   4.537   7.965   5.259
 3431WAT     H110535   4.530   7.865   5.266
 3431WAT     H210536   4.486   8.007   5.334
 3432WAT      O10537   0.550   9.577   7.275
 3432WAT     H110538   0.616   9.577   7.350
 3432WAT     H210539   0.570   9.502   7.213
 3433WAT      O10540   6.614   9.362   6.721
 3433WAT     H110541   6.680   9.437   6.716
 3433WAT     H210542   6.652   9.282   6.673
 3434WAT      O10543   0.513   7.582   6.784
 3434WAT     H110544   0.431   7.609   6.734
 3434WAT     H210545   0.594   7.597   6.727
 3435WAT      O10546   9.865   7.318   9.863
 3435WAT     H110547   9.918   7.385   9.916
 3435WAT     H210548   9.785   7.291   9.916
 3436WAT      O10549   9.020   9.113   2.178
 3436WAT     H110550   9.075   9.167   2.241
 3436WAT     H210551   8.941   9.075   2.227
 3437WAT      O10552   3.455   3.131   1.394
 3437WAT     H110553   3.543   3.177   1.393
 3437WAT     H210554   3.421   3.126   1.488
 3438WAT      O10555   0.455   2.571   5.844
 3438WAT     H110556   0.511   2.489   5.857
 3438WAT     H210557   0.478   2.614   5.757
 3439WAT      O10558   9.820   1.847   4.702
 3439WAT     H110559   9.724   1.824   4.690
 3439WAT     H210560   9.860   1.788   4.773
 3440WAT      O10561   3.584   9.045   0.110
 3440WAT     H110562   3.522   8.967   0.108
 3440WAT     H210563   3.651   9.033   0.183
 3441WAT      O10564   6.619   0.034   5.594
 3441WAT     H110565   6.527   0.071   5.581
 3441WAT     H210566   6.625  -0.010   5.683
 3442WAT      O10567   8.173   4.815   0.784
 3442WAT     H110568   8.147   4.865   0.866
 3442WAT     H210569   8.107   4.834   0.711
 3443WAT      O10570   1.271   6.816   2.188
 3443WAT     H110571   1.202   6.773   2.247
 3443WAT     H210572   1.270   6.915   2.203
 3444WAT      O10573   6.279   9.778   3.114
 3444WAT     H110574   6.206   9.744   3.174
 3444WAT     H210575   6.252   9.866   3.076
 3445WAT      O10576   2.246   6.182   6.018
 3445WAT     H110577   2.323   6.215   6.071
 3445WAT     H210578   2.166   6.239   6.036
 3446WAT      O10579   2.967   1.758   1.255
 3446WAT     H110580   3.023   1.785   1.176
 3446WAT     H210581   2.923   1.839   1.293
 3447WAT      O10582   9.651   7.687   7.397
 3447WAT     H110583   9.586   7.631   7.345
 3447WAT     H210584   9.730   7.709   7.339
 3448WAT      O10585   5.858   7.283   7.188
 3448WAT     H110586   5.856   7.195   7.142
 3448WAT     H210587   5.779   7.291   7.249
 3449WAT      O10588   3.016   8.856   3.829
 3449WAT     H110589   2.975   8.785   3.771
 3449WAT     H210590   3.083   8.908   3.776
 3450WAT      O10591   6.820   5.067   9.102
 3450WAT     H110592   6.725   5.035   9.101
 3450WAT     H210593   6.829   5.146   9.041
 3451WAT      O10594   8.488   8.706   5.957
 3451WAT     H110595   8.408   8.756   5.991
 3451WAT     H210596   8.462   8.654   5.875
 3452WAT      O10597   6.412   3.812   9.459
 3452WAT     H110598   6.429   3.870   9.539
 3452WAT     H210599   6.368   3.727   9.488
 3453WAT      O10600   0.691   9.750   1.142
 3453WAT     H110601   0.734   9.712   1.060
 3453WAT     H210602   0.747   9.824   1.178
 3454WAT      O10603   1.190   5.137   1.957
 3454WAT     H110604   1.176   5.221   1.904
 3454WAT     H210605   1.104   5.112   2.003
 3455WAT      O10606   0.356   9.136   2.797
 3455WAT     H110607   0.285   9.116   2.730
 3455WAT     H210608   0.335   9.221   2.845
 3456WAT      O10609   1.280   8.961   9.693
 3456WAT     H110610   1.190   8.991   9.724
 3456WAT     H210611   1.319   9.029   9.630
 3457WAT      O10612   4.245   6.771   2.511
 3457WAT     H110613   4.326   6.757   2.455
 3457WAT     H210614   4.269   6.759   2.608
 3458WAT      O10615   4.319   5.115   0.858
 3458WAT     H110616   4.221   5.116   0.836
 3458WAT     H210617   4.341   5.030   0.905
 3459WAT      O10618   4.306   6.137   3.566
 3459WAT     H110619   4.347   6.049   3.590
 3459WAT     H210620   4.372   6.191   3.513
 3460WAT      O10621   4.883   8.492   1.537
 3460WAT     H110622   4.937   8.546   1.601
 3460WAT     H210623   4.797   8.539   1.517
 3461WAT      O10624   1.990   7.358   6.642
 3461WAT     H110625   2.060   7.397   6.701
 3461WAT     H210626   1.943   7.432   6.594
 3462WAT      O10627   4.191   4.981   6.464
 3462WAT     H110628   4.231   5.009   6.376
 3462WAT     H210629   4.183   5.060   6.524
 3463WAT      O10630   7.257   1.289   7.885
 3463WAT     H110631   7.223   1.360   7.824
 3463WAT     H210632   7.299   1.216   7.830
 3464WAT      O10633   2.354   5.349   8.786
 3464WAT     H110634   2.430   5.339   8.850
 3464WAT     H210635   2.311   5.438   8.798
 3465WAT      O10636   0.081   9.519   4.779
 3465WAT     H110637   0.122   9.473   4.700
 3465WAT     H210638  -0.018   9.499   4.780
 3466WAT      O10639   9.795   4.213   3.324
 3466WAT     H110640   9.720   4.184   3.383
 3466WAT     H210641   9.861   4.138   3.314
 3467WAT      O10642   9.572   3.767   7.937
 3467WAT     H110643   9.603   3.790   7.845
 3467WAT     H210644   9.473   3.780   7.942
 3468WAT      O10645   5.188   2.391   6.521
 3468WAT     H110646   5.221   2.423   6.433
 3468WAT     H210647   5.263   2.388   6.587
 3469WAT      O10648   8.045   2.698   8.411
 3469WAT     H110649   8.072   2.622   8.470
 3469WAT     H210650   8.080   2.682   8.318
 3470WAT      O10651   6.583   7.205   2.549
 3470WAT     H110652   6.571   7.223   2.647
 3470WAT     H210653   6.680   7.202   2.528
 3471WAT      O10654   3.453   9.150   5.258
 3471WAT     H110655   3.395   9.069   5.268
 3471WAT     H210656   3.408   9.217   5.200
 3472WAT      O10657   2.512   7.032   8.209
 3472WAT     H110658   2.591   7.020   8.148
 3472WAT     H210659   2.427   7.023   8.156
 3473WAT      O10660   0.715   1.530   5.706
 3473WAT     H110661   0.754   1.469   5.775
 3473WAT     H210662   0.787   1.555   5.641
 3474WAT      O10663   9.047   1.912   3.515
 3474WAT     H110664   9.089   1.993   3.473
 3474WAT     H210665   8.951   1.932   3.535
 3475WAT      O10666   2.654   0.367   6.353
 3475WAT     H110667   2.629   0.463   6.339
 3475WAT     H210668   2.604   0.310   6.287
 3476WAT      O10669   4.136   5.220   9.083
 3476WAT     H110670   4.114   5.281   9.159
 3476WAT     H210671   4.236   5.213   9.073
 3477WAT      O10672   7.862   8.178   8.731
 3477WAT     H110673   7.796   8.182   8.657
 3477WAT     H210674   7.944   8.129   8.701
 3478WAT      O10675   0.483   4.463   6.453
 3478WAT     H110676   0.529   4.489   6.537
 3478WAT     H210677   0.548   4.420   6.391
 3479WAT      O10678   8.568   8.055   4.901
 3479WAT     H110679   8.508   8.134   4.897
 3479WAT     H210680   8.646   8.068   4.839
 3480WAT      O10681   2.030   0.326   0.979
 3480WAT     H110682   2.043   0.253   1.046
 3480WAT     H210683   2.007   0.411   1.026
 3481WAT      O10684   6.919   9.743   6.608
 3481WAT     H110685   6.892   9.819   6.548
 3481WAT     H210686   6.975   9.779   6.683
 3482WAT      O10687   7.524   1.824   7.224
 3482WAT     H110688   7.497   1.752   7.287
 3482WAT     H210689   7.588   1.787   7.156
 3483WAT      O10690   0.238   3.434   5.234
 3483WAT     H110691   0.145   3.424   5.200
 3483WAT     H210692   0.296   3.470   5.160
 3484WAT      O10693   5.985   8.104   2.772
 3484WAT     H110694   6.080   8.130   2.790
 3484WAT     H210695   5.981   8.050   2.687
 3485WAT      O10696   2.745   4.460   5.843
 3485WAT     H110697   2.669   4.508   5.801
 3485WAT     H210698   2.804   4.525   5.890
 3486WAT      O10699   5.776   6.410   5.811
 3486WAT     H110700   5.704   6.405   5.880
 3486WAT     H210701   5.770   6.497   5.762
 3487WAT      O10702   2.599   1.007   6.341
 3487WAT     H110703   2.518   0.951   6.320
 3487WAT     H210704   2.587   1.049   6.431
 3488WAT      O10705   7.749   0.240   7.520
 3488WAT     H110706   7.833   0.211   7.474
 3488WAT     H210707   7.767   0.324   7.571
 3489WAT      O10708   1.358   6.633   7.957
 3489WAT     H110709   1.324   6.585   7.877
 3489WAT     H210710   1.281   6.650   8.020
 3490WAT      O10711   2.190   4.814   4.146
 3490WAT     H110712   2.217   4.730   4.193
 3490WAT     H210713   2.226   4.812   4.052
 3491WAT      O10714   9.177   8.065   7.403
 3491WAT     H110715   9.260   8.029   7.360
 3491WAT     H210716   9.096   8.031   7.355
 3492WAT      O10717   4.604   2.099   2.489
 3492WAT     H110718   4.627   2.181   2.436
 3492WAT     H210719   4.670   2.027   2.468
 3493WAT      O10720   7.125   5.354   1.692
 3493WAT     H110721   7.198   5.331   1.627
 3493WAT     H210722   7.110   5.453   1.690
 3494WAT      O10723   5.468   2.215   3.976
 3494WAT     H110724   5.371   2.190   3.979
 3494WAT     H210725   5.524   2.132   3.976
 3495WAT      O10726   0.713   6.638   2.964
 3495WAT     H110727   0.648   6.618   2.891
 3495WAT     H210728   0.805   6.613   2.935
 3496WAT      O10729   0.302   3.531   6.918
 3496WAT     H110730   0.364   3.459   6.948
 3496WAT     H210731   0.303   3.606   6.983
 3497WAT      O10732   1.949   9.451   7.605
 3497WAT     H110733   1.936   9.405   7.693
 3497WAT     H210734   2.018   9.403   7.551
 3498WAT      O10735   2.512   0.038   8.498
 3498WAT     H110736   2.561   0.013   8.414
 3498WAT     H210737   2.493   0.136   8.497
 3499WAT      O10738   8.504   6.396   6.942
 3499WAT     H110739   8.451   6.428   6.864
 3499WAT     H210740   8.445   6.342   7.002
 3500WAT      O10741   3.020   6.521   7.367
 3500WAT     H110742   2.999   6.427   7.340
 3500WAT     H210743   3.048   6.573   7.287
 3501WAT      O10744   8.462   9.757   4.047
 3501WAT     H110745   8.526   9.773   4.122
 3501WAT     H210746   8.388   9.697   4.079
 3502WAT      O10747   2.910   8.547   6.643
 3502WAT     H110748   2.856   8.482   6.590
 3502WAT     H210749   2.998   8.505   6.668
 3503WAT      O10750   9.700   8.108   5.180
 3503WAT     H110751   9.794   8.137   5.165
 3503WAT     H210752   9.650   8.108   5.093
 3504WAT      O10753   3.512   6.218   1.825
 3504WAT     H110754   3.494   6.150   1.895
 3504WAT     H210755   3.426   6.249   1.784
 3505WAT      O10756   9.254   4.699   0.316
 3505WAT     H110757   9.250   4.783   0.370
 3505WAT     H210758   9.178   4.639   0.343
 3506WAT      O10759   4.091   1.998   9.528
 3506WAT     H110760   4.145   2.068   9.481
 3506WAT     H210761   4.067   1.926   9.463
 3507WAT      O10762   3.013   5.244   2.984
 3507WAT     H110763   3.104   5.236   2.941
 3507WAT     H210764   3.003   5.172   3.052
 3508WAT      O10765   6.536   4.817   8.740
 3508WAT     H110766   6.453   4.808   8.684
 3508WAT     H210767   6.598   4.882   8.697
 3509WAT      O10768   5.575   5.605   4.526
 3509WAT     H110769   5.590   5.694   4.484
 3509WAT     H210770   5.567   5.535   4.455
 3510WAT      O10771   9.232   6.399   7.417
 3510WAT     H110772   9.270   6.361   7.333
 3510WAT     H210773   9.306   6.433   7.474
 3511WAT      O10774   6.313   8.001   2.124
 3511WAT     H110775   6.385   8.055   2.167
 3511WAT     H210776   6.262   8.058   2.059
 3512WAT      O10777   3.975   1.628   7.410
 3512WAT     H110778   3.950   1.725   7.413
 3512WAT     H210779   3.948   1.590   7.322
 3513WAT      O10780   9.698   6.275   6.924
 3513WAT     H110781   9.780   6.296   6.976
 3513WAT     H210782   9.713   6.194   6.867
 3514WAT      O10783   0.179   1.732   3.599
 3514WAT     H110784   0.277   1.718   3.614
 3514WAT     H210785   0.164   1.825   3.566
 3515WAT      O10786   7.819   3.537   2.906
 3515WAT     H110787   7.872   3.530   2.991
 3515WAT     H210788   7.725   3.563   2.928
 3516WAT      O10789   3.740   7.477   7.118
 3516WAT     H110790   3.688   7.560   7.097
 3516WAT     H210791   3.728   7.410   7.045
 3517WAT      O10792   6.490   8.984   6.813
 3517WAT     H110793   6.409   9.036   6.839
 3517WAT     H210794   6.544   9.038   6.749
 3518WAT      O10795   7.743   5.521   6.205
 3518WAT     H110796   7.809   5.594   6.227
 3518WAT     H210797   7.728   5.518   6.106
 3519WAT      O10798   3.743   3.909   7.317
 3519WAT     H110799   3.831   3.942   7.283
 3519WAT     H210800   3.734   3.812   7.294
 3520WAT      O10801   9.816   1.929   3.488
 3520WAT     H110802   9.730   1.893   3.523
 3520WAT     H210803   9.863   1.980   3.560
 3521WAT      O10804   1.079   8.791   3.108
 3521WAT     H110805   1.112   8.885   3.107
 3521WAT     H210806   0.990   8.786   3.063
 3522WAT      O10807   6.353   8.007   6.642
 3522WAT     H110808   6.341   8.068   6.564
 3522WAT     H210809   6.335   8.057   6.727
 3523WAT      O10810   1.370   2.310   9.507
 3523WAT     H110811   1.343   2.274   9.597
 3523WAT     H210812   1.288   2.322   9.451
 3524WAT      O10813   5.274   5.032   2.511
 3524WAT     H110814   5.270   5.107   2.577
 3524WAT     H210815   5.369   5.017   2.483
 3525WAT      O10816   3.801   2.638   0.693
 3525WAT     H110817   3.804   2.707   0.622
 3525WAT     H210818   3.894   2.611   0.718
 3526WAT      O10819   7.713   2.728   9.843
 3526WAT     H110820   7.649   2.701   9.916
 3526WAT     H210821   7.714   2.657   9.773
 3527WAT      O10822   1.394   5.820   3.086
 3527WAT     H110823   1.364   5.739   3.036
 3527WAT     H210824   1.371   5.902   3.034
 3528WAT      O10825   3.275   7.326   8.164
 3528WAT     H110826   3.202   7.282   8.216
 3528WAT     H210827   3.309   7.405   8.215
 3529WAT      O10828   0.138   9.707   8.346
 3529WAT     H110829   0.081   9.786   8.366
 3529WAT     H210830   0.218   9.708   8.406
 3530WAT      O10831   8.121   6.940   3.980
 3530WAT     H110832   8.106   6.884   4.062
 3530WAT     H210833   8.135   7.035   4.006
 3531WAT      O10834   2.201   9.044   1.374
 3531WAT     H110835   2.210   9.142   1.390
 3531WAT     H210836   2.291   9.002   1.364
 3532WAT      O10837   5.986   2.334   9.268
 3532WAT     H110838   5.969   2.429   9.240
 3532WAT     H210839   6.035   2.333   9.355
 3533WAT      O10840   1.914   9.820   0.921
 3533WAT     H110841   1.918   9.733   0.969
 3533WAT     H210842   1.967   9.889   0.970
 3534WAT      O10843   3.862   6.370   0.953
 3534WAT     H110844   3.832   6.373   0.858
 3534WAT     H210845   3.936   6.304   0.962
 3535WAT      O10846   6.253   2.275   2.500
 3535WAT     H110847   6.174   2.334   2.515
 3535WAT     H210848   6.321   2.294   2.571
 3536WAT      O10849   5.691   1.966   5.411
 3536WAT     H110850   5.790   1.975   5.406
 3536WAT     H210851   5.650   2.056   5.424
 3537WAT      O10852   6.400   3.210   9.000
 3537WAT     H110853   6.375   3.176   9.091
 3537WAT     H210854   6.492   3.248   9.002
 3538WAT      O10855   9.714   3.392   9.522
 3538WAT     H110856   9.729   3.341   9.607
 3538WAT     H210857   9.616   3.392   9.500
 3539WAT      O10858   9.773   8.636   1.085
 3539WAT     H110859   9.711   8.696   1.035
 3539WAT     H210860   9.736   8.621   1.177
 3540WAT      O10861   0.088   7.019   1.588
 3540WAT     H110862  -0.007   7.020   1.619
 3540WAT     H210863   0.150   7.023   1.666
 3541WAT      O10864   2.320   6.403   9.490
 3541WAT     H110865   2.404   6.410   9.545
 3541WAT     H210866   2.274   6.316   9.510
 3542WAT      O10867   6.647   4.659   4.637
 3542WAT     H110868   6.563   4.610   4.659
 3542WAT     H210869   6.711   4.652   4.713
 3543WAT      O10870   4.590   8.518   1.278
 3543WAT     H110871   4.585   8.571   1.193
 3543WAT     H210872   4.620   8.578   1.353
 3544WAT      O10873   6.610   1.646   2.590
 3544WAT     H110874   6.704   1.615   2.581
 3544WAT     H210875   6.601   1.737   2.549
 3545WAT      O10876   1.400   6.189   2.464
 3545WAT     H110877   1.331   6.258   2.442
 3545WAT     H210878   1.388   6.158   2.558
 3546WAT      O10879   3.535   9.147   6.741
 3546WAT     H110880   3.587   9.066   6.714
 3546WAT     H210881   3.511   9.139   6.838
 3547WAT      O10882   4.995   5.503   7.633
 3547WAT     H110883   4.900   5.508   7.664
 3547WAT     H210884   5.014   5.579   7.572
 3548WAT      O10885   7.543   3.924   7.634
 3548WAT     H110886   7.562   3.973   7.720
 3548WAT     H210887   7.487   3.844   7.653
 3549WAT      O10888   7.745   8.899   9.714
 3549WAT     H110889   7.651   8.932   9.723
 3549WAT     H210890   7.800   8.933   9.790
 3550WAT      O10891   5.915   3.465   2.442
 3550WAT     H110892   5.952   3.372   2.439
 3550WAT     H210893   5.816   3.461   2.431
 3551WAT      O10894   7.318   6.771   2.888
 3551WAT     H110895   7.268   6.852   2.856
 3551WAT     H210896   7.315   6.700   2.817
 3552WAT      O10897   0.670   5.855   1.792
 3552WAT     H110898   0.659   5.952   1.816
 3552WAT     H210899   0.629   5.798   1.863
 3553WAT      O10900   8.910   4.782   7.877
 3553WAT     H110901   8.814   4.766   7.902
 3553WAT     H210902   8.917   4.869   7.828
 3554WAT      O10903   3.555   9.086   7.006
 3554WAT     H110904   3.516   9.112   7.095
 3554WAT     H210905   3.654   9.093   7.010
 3555WAT      O10906   8.223   8.490   6.296
 3555WAT     H110907   8.276   8.441   6.365
 3555WAT     H210908   8.125   8.476   6.312
 3556WAT      O10909   9.287   1.875   6.044
 3556WAT     H110910   9.344   1.927   5.981
 3556WAT     H210911   9.346   1.828   6.111
 3557WAT      O10912   1.832   8.375   3.629
 3557WAT     H110913   1.809   8.404   3.722
 3557WAT     H210914   1.893   8.442   3.587
 3558WAT      O10915   3.314   5.754   8.352
 3558WAT     H110916   3.302   5.738   8.450
 3558WAT     H210917   3.227   5.780   8.311
 3559WAT      O10918   6.526   3.539   4.910
 3559WAT     H110919   6.575   3.535   4.823
 3559WAT     H210920   6.436   3.579   4.896
 3560WAT      O10921   0.007   9.442   8.574
 3560WAT     H110922  -0.039   9.362   8.613
 3560WAT     H210923   0.103   9.420   8.558
 3561WAT      O10924   2.607   9.538   9.671
 3561WAT     H110925   2.633   9.475   9.597
 3561WAT     H210926   2.673   9.612   9.676
 3562WAT      O10927   8.008   0.258   6.131
 3562WAT     H110928   8.106   0.240   6.138
 3562WAT     H210929   7.959   0.194   6.190
 3563WAT      O10930   5.721   8.398   2.308
 3563WAT     H110931   5.760   8.463   2.373
 3563WAT     H210932   5.671   8.327   2.357
 3564WAT      O10933   3.725   3.140   7.560
 3564WAT     H110934   3.649   3.075   7.565
 3564WAT     H210935   3.697   3.219   7.505
 3565WAT      O10936   1.971   8.871   0.652
 3565WAT     H110937   2.019   8.958   0.638
 3565WAT     H210938   1.905   8.856   0.579
 3566WAT      O10939   2.016   5.377   0.315
 3566WAT     H110940   2.075   5.451   0.282
 3566WAT     H210941   2.070   5.316   0.374
 3567WAT      O10942   2.512   2.537   3.303
 3567WAT     H110943   2.516   2.559   3.206
 3567WAT     H210944   2.547   2.614   3.356
 3568WAT      O10945   6.326   5.187   0.676
 3568WAT     H110946   6.372   5.117   0.730
 3568WAT     H210947   6.376   5.201   0.590
 3569WAT      O10948   3.291   4.799   5.523
 3569WAT     H110949   3.271   4.800   5.621
 3569WAT     H210950   3.353   4.724   5.502
 3570WAT      O10951   6.469   8.965   7.752
 3570WAT     H110952   6.444   9.039   7.814
 3570WAT     H210953   6.563   8.976   7.722
 3571WAT      O10954   3.054   2.716   1.869
 3571WAT     H110955   3.127   2.675   1.924
 3571WAT     H210956   3.028   2.653   1.796
 3572WAT      O10957   5.604   2.763   8.550
 3572WAT     H110958   5.513   2.743   8.586
 3572WAT     H210959   5.664   2.684   8.566
 3573WAT      O10960   8.348   5.448   4.440
 3573WAT     H110961   8.271   5.507   4.414
 3573WAT     H210962   8.318   5.353   4.441
 3574WAT      O10963   4.822   9.343   8.836
 3574WAT     H110964   4.820   9.269   8.904
 3574WAT     H210965   4.762   9.417   8.867
 3575WAT      O10966   8.894   1.182   9.799
 3575WAT     H110967   8.935   1.273   9.806
 3575WAT     H210968   8.965   1.112   9.806
 3576WAT      O10969   4.189   3.439   8.664
 3576WAT     H110970   4.279   3.446   8.621
 3576WAT     H210971   4.200   3.431   8.763
 3577WAT      O10972   2.358   1.057   2.630
 3577WAT     H110973   2.451   1.056   2.593
 3577WAT     H210974   2.342   0.973   2.683
 3578WAT      O10975   6.874   3.081   4.071
 3578WAT     H110976   6.941   3.084   4.145
 3578WAT     H210977   6.798   3.143   4.092
 3579WAT      O10978   4.433   4.570   7.139
 3579WAT     H110979   4.379   4.486   7.144
 3579WAT     H210980   4.403   4.634   7.209
 3580WAT      O10981   4.868   8.687   4.120
 3580WAT     H110982   4.782   8.714   4.076
 3580WAT     H210983   4.863   8.710   4.218
 3581WAT      O10984   8.886   4.687   5.659
 3581WAT     H110985   8.864   4.738   5.742
 3581WAT     H210986   8.869   4.745   5.579
 3582WAT      O10987   0.307   3.517   6.420
 3582WAT     H110988   0.348   3.432   6.452
 3582WAT     H210989   0.308   3.519   6.320
 3583WAT      O10990   4.301   9.541   5.709
 3583WAT     H110991   4.385   9.555   5.656
 3583WAT     H210992   4.223   9.575   5.657
 3584WAT      O10993   1.885   7.503   2.385
 3584WAT     H110994   1.881   7.418   2.438
 3584WAT     H210995   1.865   7.483   2.289
 3585WAT      O10996   7.599   0.493   6.633
 3585WAT     H110997   7.641   0.436   6.703
 3585WAT     H210998   7.551   0.436   6.567
 3586WAT      O10999   5.014   7.649   3.555
 3586WAT     H111000   4.942   7.634   3.623
 3586WAT     H211001   5.021   7.569   3.496
 3587WAT      O11002   1.373   2.880   6.198
 3587WAT     H111003   1.377   2.835   6.287
 3587WAT     H211004   1.289   2.854   6.151
 3588WAT      O11005   7.081   4.512   5.024
 3588WAT     H111006   7.160   4.529   5.084
 3588WAT     H211007   7.001   4.492   5.080
 3589WAT      O11008   3.078   5.656   7.343
 3589WAT     H111009   3.017   5.648   7.422
 3589WAT     H211010   3.170   5.627   7.370
 3590WAT      O11011   8.803   7.757   4.184
 3590WAT     H111012   8.782   7.768   4.087
 3590WAT     H211013   8.766   7.836   4.235
 3591WAT      O11014   0.483   3.050   5.124
 3591WAT     H111015   0.458   3.080   5.216
 3591WAT     H211016   0.446   3.115   5.057
 3592WAT      O11017   0.061   5.178   1.111
 3592WAT     H111018  -0.034   5.180   1.143
 3592WAT     H211019   0.106   5.264   1.135
 3593WAT      O11020   7.132   0.168   2.036
 3593WAT     H111021   7.128   0.073   2.006
 3593WAT     H211022   7.218   0.183   2.085
 3594WAT      O11023   6.026   4.225   5.497
 3594WAT     H111024   6.092   4.199   5.568
 3594WAT     H211025   6.051   4.183   5.410
 3595WAT      O11026   7.523   4.953   7.871
 3595WAT     H111027   7.530   4.910   7.782
 3595WAT     H211028   7.594   4.917   7.932
 3596WAT      O11029   3.076   6.121   5.764
 3596WAT     H111030   3.010   6.085   5.830
 3596WAT     H211031   3.080   6.060   5.684
 3597WAT      O11032   4.739   0.069   4.190
 3597WAT     H111033   4.717   0.061   4.092
 3597WAT     H211034   4.654   0.079   4.242
 3598WAT      O11035   0.547   1.277   6.563
 3598WAT     H111036   0.450   1.289   6.542
 3598WAT     H211037   0.579   1.354   6.617
 3599WAT      O11038   7.845   1.261   5.799
 3599WAT     H111039   7.913   1.311   5.853
 3599WAT     H211040   7.811   1.320   5.726
 3600WAT      O11041   5.705   7.977   6.236
 3600WAT     H111042   5.797   7.962   6.199
 3600WAT     H211043   5.692   7.921   6.318
 3601WAT      O11044   1.648   1.698   3.524
 3601WAT     H111045   1.568   1.691   3.584
 3601WAT     H211046   1.708   1.771   3.556
 3602WAT      O11047   3.962   0.550   5.859
 3602WAT     H111048   3.873   0.545   5.906
 3602WAT     H211049   4.016   0.625   5.899
 3603WAT      O11050   2.234   2.196   6.759
 3603WAT     H111051   2.224   2.100   6.783
 3603WAT     H211052   2.241   2.206   6.660
 3604WAT      O11053   0.415   6.058   6.753
 3604WAT     H111054   0.455   5.985   6.807
 3604WAT     H211055   0.347   6.107   6.808
 3605WAT      O11056   6.424   4.142   7.451
 3605WAT     H111057   6.377   4.071   7.398
 3605WAT     H211058   6.506   4.103   7.493
 3606WAT      O11059   1.530   1.165   6.137
 3606WAT     H111060   1.431   1.150   6.142
 3606WAT     H211061   1.569   1.104   6.068
 3607WAT      O11062   1.981   1.969   3.219
 3607WAT     H111063   2.028   1.940   3.135
 3607WAT     H211064   2.010   2.062   3.242
 3608WAT      O11065   5.376   8.636   9.262
 3608WAT     H111066   5.355   8.549   9.307
 3608WAT     H211067   5.408   8.619   9.169
 3609WAT      O11068   2.997   5.272   1.956
 3609WAT     H111069   2.996   5.172   1.963
 3609WAT     H211070   3.024   5.311   2.043
 3610WAT      O11071   2.576   7.180   4.114
 3610WAT     H111072   2.668   7.145   4.131
 3610WAT     H211073   2.527   7.189   4.201
 3611WAT      O11074   3.655   0.352   9.219
 3611WAT     H111075   3.643   0.411   9.139
 3611WAT     H211076   3.609   0.393   9.298
 3612WAT      O11077   0.218   3.379   9.563
 3612WAT     H111078   0.297   3.382   9.502
 3612WAT     H211079   0.248   3.348   9.654
 3613WAT      O11080   9.554   7.766   5.071
 3613WAT     H111081   9.548   7.688   5.009
 3613WAT     H211082   9.548   7.734   5.166
 3614WAT      O11083   4.109   0.226   7.563
 3614WAT     H111084   4.065   0.288   7.628
 3614WAT     H211085   4.141   0.278   7.484
 3615WAT      O11086   5.844   9.283   8.256
 3615WAT     H111087   5.751   9.250   8.270
 3615WAT     H211088   5.847   9.338   8.172
 3616WAT      O11089   2.794   3.820   4.724
 3616WAT     H111090   2.840   3.732   4.741
 3616WAT     H211091   2.720   3.806   4.658
 3617WAT      O11092   8.382   2.961   6.461
 3617WAT     H111093   8.359   3.017   6.541
 3617WAT     H211094   8.478   2.934   6.465
 3618WAT      O11095   3.663   7.905   3.875
 3618WAT     H111096   3.683   7.976   3.808
 3618WAT     H211097   3.675   7.943   3.967
 3619WAT      O11098   8.298   7.914   2.423
 3619WAT     H111099   8.212   7.920   2.474
 3619WAT     H211100   8.341   8.004   2.421
 3620WAT      O11101   9.097   2.952   7.216
 3620WAT     H111102   9.197   2.953   7.224
 3620WAT     H211103   9.069   3.009   7.139
 3621WAT      O11104   3.157   2.355   7.911
 3621WAT     H111105   3.234   2.413   7.940
 3621WAT     H211106   3.169   2.331   7.815
 3622WAT      O11107   7.958   8.665   4.400
 3622WAT     H111108   7.887   8.653   4.469
 3622WAT     H211109   7.949   8.755   4.358
 3623WAT      O11110   2.747   2.147   8.261
 3623WAT     H111111   2.792   2.080   8.320
 3623WAT     H211112   2.675   2.193   8.312
 3624WAT      O11113   2.916   5.775   5.004
 3624WAT     H111114   2.906   5.710   5.079
 3624WAT     H211115   2.882   5.864   5.032
 3625WAT      O11116   2.807   4.856   4.071
 3625WAT     H111117   2.841   4.764   4.089
 3625WAT     H211118   2.741   4.853   3.996
 3626WAT      O11119   5.717   3.022   0.046
 3626WAT     H111120   5.632   3.070   0.021
 3626WAT     H211121   5.793   3.086   0.045
 3627WAT      O11122   8.858   6.064   1.432
 3627WAT     H111123   8.878   6.097   1.524
 3627WAT     H211124   8.763   6.033   1.428
 3628WAT      O11125   0.794   6.282   4.953
 3628WAT     H111126   0.837   6.342   5.020
 3628WAT     H211127   0.859   6.212   4.924
 3629WAT      O11128   5.171   6.304   2.815
 3629WAT     H111129   5.130   6.228   2.866
 3629WAT     H211130   5.188   6.380   2.877
 3630WAT      O11131   7.016   7.915   7.951
 3630WAT     H111132   6.985   7.843   8.013
 3630WAT     H211133   6.977   7.900   7.860
 3631WAT      O11134   9.123   0.279   7.031
 3631WAT     H111135   9.143   0.375   7.012
 3631WAT     H211136   9.186   0.221   6.980
 3632WAT      O11137   3.738   9.645   5.044
 3632WAT     H111138   3.770   9.658   4.950
 3632WAT     H211139   3.705   9.551   5.055
 3633WAT      O11140   1.579   1.262   0.179
 3633WAT     H111141   1.500   1.302   0.224
 3633WAT     H211142   1.639   1.220   0.248
 3634WAT      O11143   6.369   6.187   7.876
 3634WAT     H111144   6.426   6.251   7.823
 3634WAT     H211145   6.390   6.094   7.847
 3635WAT      O11146   1.495   7.557   1.273
 3635WAT     H111147   1.461   7.500   1.347
 3635WAT     H211148   1.517   7.648   1.308
 3636WAT      O11149   5.983   1.387   2.829
 3636WAT     H111150   5.928   1.448   2.886
 3636WAT     H211151   6.080   1.400   2.849
 3637WAT      O11152   3.558   9.058   4.630
 3637WAT     H111153   3.617   8.986   4.594
 3637WAT     H211154   3.532   9.120   4.556
 3638WAT      O11155   7.567   3.590   2.964
 3638WAT     H111156   7.568   3.579   3.064
 3638WAT     H211157   7.473   3.595   2.932
 3639WAT      O11158   5.089   4.689   7.378
 3639WAT     H111159   5.121   4.767   7.432
 3639WAT     H211160   5.159   4.618   7.378
 3640WAT      O11161   1.147   4.164   2.362
 3640WAT     H111162   1.203   4.229   2.413
 3640WAT     H211163   1.051   4.176   2.387
 3641WAT      O11164   8.844   2.770   1.198
 3641WAT     H111165   8.845   2.713   1.280
 3641WAT     H211166   8.890   2.857   1.217
 3642WAT      O11167   9.173   1.797   9.808
 3642WAT     H111168   9.217   1.718   9.765
 3642WAT     H211169   9.086   1.816   9.762
 3643WAT      O11170   3.995   6.339   6.305
 3643WAT     H111171   3.981   6.325   6.403
 3643WAT     H211172   4.093   6.339   6.285
 3644WAT      O11173   7.481   0.377   9.323
 3644WAT     H111174   7.548   0.433   9.276
 3644WAT     H211175   7.400   0.432   9.344
 3645WAT      O11176   5.899   4.995   6.761
 3645WAT     H111177   5.846   5.074   6.792
 3645WAT     H211178   5.887   4.919   6.825
 3646WAT      O11179   5.247   3.173   5.001
 3646WAT     H111180   5.289   3.206   5.086
 3646WAT     H211181   5.244   3.248   4.934
 3647WAT      O11182   4.200   5.218   9.777
 3647WAT     H111183   4.226   5.284   9.847
 3647WAT     H211184   4.106   5.235   9.747
 3648WAT      O11185   6.387   2.882   6.761
 3648WAT     H111186   6.383   2.810   6.829
 3648WAT     H211187   6.387   2.971   6.807
 3649WAT      O11188   1.076   1.589   5.870
 3649WAT     H111189   1.000   1.526   5.852
 3649WAT     H211190   1.138   1.588   5.791
 3650WAT      O11191   6.670   4.371   5.985
 3650WAT     H111192   6.600   4.429   5.943
 3650WAT     H211193   6.697   4.409   6.074
 3651WAT      O11194   7.788   6.969   4.352
 3651WAT     H111195   7.742   6.929   4.431
 3651WAT     H211196   7.819   7.061   4.375
 3652WAT      O11197   0.691   2.512   0.440
 3652WAT     H111198   0.663   2.539   0.532
 3652WAT     H211199   0.712   2.593   0.386
 3653WAT      O11200   8.552   6.157   6.243
 3653WAT     H111201   8.529   6.131   6.337
 3653WAT     H211202   8.468   6.162   6.188
 3654WAT      O11203   5.495   3.751   8.845
 3654WAT     H111204   5.591   3.729   8.833
 3654WAT     H211205   5.440   3.668   8.836
 3655WAT      O11206   6.094   6.427   5.664
 3655WAT     H111207   6.147   6.342   5.661
 3655WAT     H211208   6.021   6.418   5.732
 3656WAT      O11209   7.309   8.448   6.721
 3656WAT     H111210   7.230   8.401   6.681
 3656WAT     H211211   7.385   8.384   6.728
 3657WAT      O11212   9.606   9.024   1.822
 3657WAT     H111213   9.643   9.111   1.790
 3657WAT     H211214   9.660   8.949   1.786
 3658WAT      O11215   8.215   4.508   6.083
 3658WAT     H111216   8.303   4.489   6.039
 3658WAT     H211217   8.224   4.500   6.182
 3659WAT      O11218   9.788   8.104   9.785
 3659WAT     H111219   9.772   8.145   9.874
 3659WAT     H211220   9.772   8.172   9.713
 3660WAT      O11221   2.621   4.583   7.471
 3660WAT     H111222   2.698   4.614   7.416
 3660WAT     H211223   2.644   4.497   7.517
 3661WAT      O11224   6.899   6.462   4.167
 3661WAT     H111225   6.979   6.412   4.199
 3661WAT     H211226   6.906   6.477   4.068
 3662WAT      O11227   3.327   0.837   6.555
 3662WAT     H111228   3.280   0.754   6.585
 3662WAT     H211229   3.403   0.856   6.617
 3663WAT      O11230   0.196   9.615   3.597
 3663WAT     H111231   0.203   9.614   3.498
 3663WAT     H211232   0.148   9.698   3.626
 3664WAT      O11233   9.590   9.346   4.577
 3664WAT     H111234   9.622   9.386   4.491
 3664WAT     H211235   9.643   9.264   4.598
 3665WAT      O11236   5.037   0.207   0.443
 3665WAT     H111237   4.975   0.284   0.429
 3665WAT     H211238   4.987   0.121   0.438
 3666WAT      O11239   9.514   5.283   2.680
 3666WAT     H111240   9.534   5.185   2.679
 3666WAT     H211241   9.417   5.297   2.700
 3667WAT      O11242   1.036   0.891   5.554
 3667WAT     H111243   1.073   0.859   5.641
 3667WAT     H211244   0.940   0.917   5.567
 3668WAT      O11245   4.116   3.639   1.343
 3668WAT     H111246   4.145   3.718   1.397
 3668WAT     H211247   4.037   3.664   1.287
 3669WAT      O11248   7.379   5.628   7.399
 3669WAT     H111249   7.308   5.692   7.371
 3669WAT     H211250   7.461   5.642   7.342
 3670WAT      O11251   4.463   2.926   0.205
 3670WAT     H111252   4.397   2.882   0.145
 3670WAT     H211253   4.554   2.922   0.164
 3671WAT      O11254   9.399   7.955   8.628
 3671WAT     H111255   9.408   7.949   8.529
 3671WAT     H211256   9.399   7.863   8.668
 3672WAT      O11257   7.844   8.601   4.868
 3672WAT     H111258   7.796   8.519   4.899
 3672WAT     H211259   7.924   8.616   4.925
 3673WAT      O11260   8.358   7.866   6.658
 3673WAT     H111261   8.409   7.886   6.742
 3673WAT     H211262   8.418   7.820   6.593
 3674WAT      O11263   4.010   6.848   2.174
 3674WAT     H111264   3.944   6.910   2.215
 3674WAT     H211265   4.003   6.853   2.074
 3675WAT      O11266   5.953   4.569   6.879
 3675WAT     H111267   5.936   4.665   6.898
 3675WAT     H211268   5.960   4.519   6.965
 3676WAT      O11269   7.558   2.028   9.032
 3676WAT     H111270   7.527   2.116   8.995
 3676WAT     H211271   7.519   1.954   8.978
 3677WAT      O11272   3.117   4.442   1.827
 3677WAT     H111273   3.114   4.542   1.832
 3677WAT     H211274   3.204   4.409   1.863
 3678WAT      O11275   0.169   4.981   7.064
 3678WAT     H111276   0.105   4.931   7.006
 3678WAT     H211277   0.253   4.927   7.075
 3679WAT      O11278   6.713   3.978   4.883
 3679WAT     H111279   6.670   3.899   4.926
 3679WAT     H211280   6.679   4.062   4.926
 3680WAT      O11281   2.690   4.006   4.384
 3680WAT     H111282   2.639   3.921   4.398
 3680WAT     H211283   2.787   3.990   4.405
 3681WAT      O11284   7.425   9.077   6.268
 3681WAT     H111285   7.442   9.053   6.172
 3681WAT     H211286   7.394   9.172   6.273
 3682WAT      O11287   1.253   1.289   3.556
 3682WAT     H111288   1.297   1.369   3.514
 3682WAT     H211289   1.294   1.272   3.646
 3683WAT      O11290   8.031   2.153   4.431
 3683WAT     H111291   8.129   2.131   4.434
 3683WAT     H211292   7.993   2.146   4.523
 3684WAT      O11293   5.349   2.889   9.796
 3684WAT     H111294   5.436   2.842   9.784
 3684WAT     H211295   5.301   2.893   9.709
 3685WAT      O11296   1.471   5.368   0.321
 3685WAT     H111297   1.404   5.298   0.302
 3685WAT     H211298   1.430   5.459   0.309
 3686WAT      O11299   9.325   7.151   3.141
 3686WAT     H111300   9.384   7.140   3.221
 3686WAT     H211301   9.342   7.078   3.075
 3687WAT      O11302   5.423   2.205   1.939
 3687WAT     H111303   5.512   2.244   1.915
 3687WAT     H211304   5.353   2.239   1.877
 3688WAT      O11305   5.863   1.894   6.606
 3688WAT     H111306   5.903   1.858   6.522
 3688WAT     H211307   5.768   1.920   6.589
 3689WAT      O11308   2.630   0.024   4.333
 3689WAT     H111309   2.593   0.097   4.389
 3689WAT     H211310   2.571   0.008   4.254
 3690WAT      O11311   2.328   2.208   5.271
 3690WAT     H111312   2.239   2.165   5.252
 3690WAT     H211313   2.395   2.136   5.292
 3691WAT      O11314   0.860   5.582   9.101
 3691WAT     H111315   0.812   5.556   9.185
 3691WAT     H211316   0.956   5.555   9.108
 3692WAT      O11317   9.271   8.380   0.523
 3692WAT     H111318   9.204   8.309   0.502
 3692WAT     H211319   9.347   8.340   0.573
 3693WAT      O11320   9.814   6.929   5.019
 3693WAT     H111321   9.816   6.830   5.028
 3693WAT     H211322   9.885   6.969   5.077
 3694WAT      O11323   1.162   8.236   5.427
 3694WAT     H111324   1.122   8.313   5.477
 3694WAT     H211325   1.261   8.236   5.441
 3695WAT      O11326   2.011   0.458   4.135
 3695WAT     H111327   2.078   0.502   4.195
 3695WAT     H211328   1.996   0.364   4.165
 3696WAT      O11329   1.705   2.969   7.321
 3696WAT     H111330   1.616   2.988   7.279
 3696WAT     H211331   1.753   2.899   7.268
 3697WAT      O11332   2.664   8.033   2.159
 3697WAT     H111333   2.593   8.024   2.089
 3697WAT     H211334   2.745   8.076   2.119
 3698WAT      O11335   2.035   1.409   4.896
 3698WAT     H111336   2.025   1.484   4.962
 3698WAT     H211337   2.098   1.436   4.823
 3699WAT      O11338   6.913   3.727   3.971
 3699WAT     H111339   6.954   3.658   3.913
 3699WAT     H211340   6.843   3.685   4.029
 3700WAT      O11341   8.644   3.371   7.712
 3700WAT     H111342   8.704   3.313   7.768
 3700WAT     H211343   8.643   3.463   7.749
 3701WAT      O11344   2.780   6.275   6.042
 3701WAT     H111345   2.848   6.291   5.970
 3701WAT     H211346   2.826   6.274   6.131
 3702WAT      O11347   5.798   0.619   1.485
 3702WAT     H111348   5.719   0.562   1.462
 3702WAT     H211349   5.863   0.619   1.409
 3703WAT      O11350   2.334   1.958   7.509
 3703WAT     H111351   2.327   1.887   7.578
 3703WAT     H211352   2.399   2.028   7.539
 3704WAT      O11353   8.920   4.823   0.602
 3704WAT     H111354   8.853   4.881   0.649
 3704WAT     H211355   8.874   4.764   0.537
 3705WAT      O11356   0.101   3.584   4.804
 3705WAT     H111357   0.017   3.624   4.767
 3705WAT     H211358   0.180   3.624   4.757
 3706WAT      O11359   9.650   1.866   4.225
 3706WAT     H111360   9.649   1.770   4.199
 3706WAT     H211361   9.600   1.878   4.311
 3707WAT      O11362   7.432   6.016   6.528
 3707WAT     H111363   7.436   6.081   6.452
 3707WAT     H211364   7.426   6.067   6.614
 3708WAT      O11365   1.117   4.837   1.588
 3708WAT     H111366   1.060   4.785   1.524
 3708WAT     H211367   1.190   4.884   1.538
 3709WAT      O11368   7.876   8.442   7.122
 3709WAT     H111369   7.874   8.413   7.218
 3709WAT     H211370   7.901   8.364   7.065
 3710WAT      O11371   4.866   2.230   5.415
 3710WAT     H111372   4.777   2.259   5.380
 3710WAT     H211373   4.937   2.253   5.348
 3711WAT      O11374   4.578   4.966   5.350
 3711WAT     H111375   4.584   4.984   5.252
 3711WAT     H211376   4.669   4.950   5.387
 3712WAT      O11377   5.852   7.632   9.535
 3712WAT     H111378   5.890   7.542   9.511
 3712WAT     H211379   5.784   7.659   9.466
 3713WAT      O11380   9.426   5.758   0.682
 3713WAT     H111381   9.413   5.734   0.586
 3713WAT     H211382   9.405   5.854   0.696
 3714WAT      O11383   8.698   1.208   8.004
 3714WAT     H111384   8.682   1.239   7.910
 3714WAT     H211385   8.727   1.285   8.061
 3715WAT      O11386   5.053   0.141   2.036
 3715WAT     H111387   5.035   0.240   2.036
 3715WAT     H211388   5.122   0.120   1.968
 3716WAT      O11389   0.801   5.782   2.179
 3716WAT     H111390   0.818   5.848   2.253
 3716WAT     H211391   0.751   5.828   2.105
 3717WAT      O11392   8.608   2.479   3.652
 3717WAT     H111393   8.671   2.402   3.641
 3717WAT     H211394   8.630   2.529   3.736
 3718WAT      O11395   1.835   2.432   6.128
 3718WAT     H111396   1.846   2.459   6.223
 3718WAT     H211397   1.743   2.457   6.097
 3719WAT      O11398   9.806   2.199   9.860
 3719WAT     H111399   9.792   2.248   9.946
 3719WAT     H211400   9.811   2.264   9.784
 3720WAT      O11401   9.533   1.289   2.152
 3720WAT     H111402   9.467   1.292   2.226
 3720WAT     H211403   9.524   1.203   2.103
 3721WAT      O11404   2.511   5.995   2.894
 3721WAT     H111405   2.598   6.042   2.882
 3721WAT     H211406   2.444   6.031   2.829
 3722WAT      O11407   5.247   5.730   5.692
 3722WAT     H111408   5.179   5.786   5.643
 3722WAT     H211409   5.290   5.667   5.627
 3723WAT      O11410   3.952   3.668   2.971
 3723WAT     H111411   3.990   3.733   2.905
 3723WAT     H211412   3.993   3.685   3.061
 3724WAT      O11413   9.182   1.828   6.971
 3724WAT     H111414   9.253   1.834   6.901
 3724WAT     H211415   9.106   1.887   6.947
 3725WAT      O11416   1.680   8.708   3.679
 3725WAT     H111417   1.724   8.662   3.756
 3725WAT     H211418   1.733   8.692   3.596
 3726WAT      O11419   2.358   6.229   8.000
 3726WAT     H111420   2.277   6.256   8.051
 3726WAT     H211421   2.359   6.275   7.911
 3727WAT      O11422   5.371   4.092   2.096
 3727WAT     H111423   5.284   4.100   2.144
 3727WAT     H211424   5.397   4.181   2.059
 3728WAT      O11425   4.639   8.164   1.291
 3728WAT     H111426   4.637   8.241   1.227
 3728WAT     H211427   4.657   8.198   1.383
 3729WAT      O11428   4.112   4.729   2.748
 3729WAT     H111429   4.198   4.709   2.795
 3729WAT     H211430   4.116   4.821   2.709
 3730WAT      O11431   4.571   0.946   9.264
 3730WAT     H111432   4.546   1.042   9.279
 3730WAT     H211433   4.607   0.936   9.171
 3731WAT      O11434   7.781   4.381   9.003
 3731WAT     H111435   7.691   4.418   8.979
 3731WAT     H211436   7.800   4.400   9.099
 3732WAT      O11437   9.322   3.899   5.864
 3732WAT     H111438   9.410   3.908   5.911
 3732WAT     H211439   9.337   3.902   5.765
 3733WAT      O11440   6.518   0.924   1.805
 3733WAT     H111441   6.601   0.870   1.796
 3733WAT     H211442   6.488   0.923   1.901
 3734WAT      O11443   2.701   3.362   5.491
 3734WAT     H111444   2.659   3.452   5.498
 3734WAT     H211445   2.646   3.295   5.542
 3735WAT      O11446   4.291   2.345   2.502
 3735WAT     H111447   4.316   2.341   2.405
 3735WAT     H211448   4.375   2.345   2.557
 3736WAT      O11449   2.160   6.991   4.932
 3736WAT     H111450   2.117   6.944   4.855
 3736WAT     H211451   2.098   6.991   5.010
 3737WAT      O11452   0.749   2.603   3.611
 3737WAT     H111453   0.741   2.621   3.513
 3737WAT     H211454   0.682   2.657   3.661
 3738WAT      O11455   3.248   0.279   6.231
 3738WAT     H111456   3.236   0.200   6.291
 3738WAT     H211457   3.309   0.345   6.274
 3739WAT      O11458   4.872   8.048   1.199
 3739WAT     H111459   4.922   8.014   1.278
 3739WAT     H211460   4.780   8.075   1.227
 3740WAT      O11461   4.676   4.336   8.974
 3740WAT     H111462   4.665   4.282   9.058
 3740WAT     H211463   4.740   4.411   8.990
 3741WAT      O11464   3.419   0.870   2.722
 3741WAT     H111465   3.482   0.909   2.654
 3741WAT     H211466   3.330   0.914   2.714
 3742WAT      O11467   3.313   7.522   8.993
 3742WAT     H111468   3.306   7.593   8.923
 3742WAT     H211469   3.380   7.549   9.062
 3743WAT      O11470   0.614   2.904   4.488
 3743WAT     H111471   0.515   2.888   4.496
 3743WAT     H211472   0.661   2.816   4.480
 3744WAT      O11473   6.901   7.252   6.912
 3744WAT     H111474   6.944   7.281   6.997
 3744WAT     H211475   6.841   7.173   6.930
 3745WAT      O11476   3.788   9.682   0.131
 3745WAT     H111477   3.718   9.701   0.061
 3745WAT     H211478   3.877   9.675   0.087
 3746WAT      O11479   5.574   6.349   6.644
 3746WAT     H111480   5.500   6.283   6.658
 3746WAT     H211481   5.613   6.337   6.553
 3747WAT      O11482   5.187   5.576   3.582
 3747WAT     H111483   5.257   5.507   3.599
 3747WAT     H211484   5.096   5.538   3.599
 3748WAT      O11485   9.348   2.848   0.137
 3748WAT     H111486   9.309   2.843   0.045
 3748WAT     H211487   9.275   2.839   0.205
 3749WAT      O11488   4.501   0.506   3.606
 3749WAT     H111489   4.524   0.603   3.611
 3749WAT     H211490   4.545   0.457   3.681
 3750WAT      O11491   4.892   1.838   9.521
 3750WAT     H111492   4.877   1.875   9.613
 3750WAT     H211493   4.933   1.747   9.529
 3751WAT      O11494   9.219   9.511   0.322
 3751WAT     H111495   9.275   9.451   0.379
 3751WAT     H211496   9.263   9.601   0.315
 3752WAT      O11497   5.905   1.576   0.417
 3752WAT     H111498   5.897   1.505   0.487
 3752WAT     H211499   5.906   1.666   0.461
 3753WAT      O11500   9.547   7.446   1.667
 3753WAT     H111501   9.569   7.472   1.761
 3753WAT     H211502   9.632   7.433   1.615
 3754WAT      O11503   6.880   5.360   5.135
 3754WAT     H111504   6.911   5.391   5.225
 3754WAT     H211505   6.845   5.439   5.084
 3755WAT      O11506   1.504   5.242   4.452
 3755WAT     H111507   1.522   5.269   4.547
 3755WAT     H211508   1.560   5.162   4.429
 3756WAT      O11509   5.213   2.133   6.567
 3756WAT     H111510   5.204   2.229   6.541
 3756WAT     H211511   5.152   2.077   6.510
 3757WAT      O11512   2.112   8.545   8.013
 3757WAT     H111513   2.146   8.452   8.006
 3757WAT     H211514   2.044   8.562   7.941
 3758WAT      O11515   1.771   1.864   0.690
 3758WAT     H111516   1.859   1.868   0.641
 3758WAT     H211517   1.709   1.802   0.641
 3759WAT      O11518   4.923   5.223   1.276
 3759WAT     H111519   4.854   5.151   1.263
 3759WAT     H211520   4.881   5.301   1.323
 3760WAT      O11521   8.002   1.148   1.888
 3760WAT     H111522   7.932   1.168   1.957
 3760WAT     H211523   7.958   1.121   1.802
 3761WAT      O11524   4.870   4.939   3.312
 3761WAT     H111525   4.955   4.906   3.271
 3761WAT     H211526   4.809   4.972   3.240
 3762WAT      O11527   6.237   8.800   5.381
 3762WAT     H111528   6.191   8.875   5.333
 3762WAT     H211529   6.332   8.792   5.348
 3763WAT      O11530   3.182   5.827   9.597
 3763WAT     H111531   3.200   5.924   9.581
 3763WAT     H211532   3.205   5.774   9.514
 3764WAT      O11533   5.573   7.586   2.237
 3764WAT     H111534   5.585   7.489   2.214
 3764WAT     H211535   5.599   7.642   2.159
 3765WAT      O11536   0.360   1.450   1.074
 3765WAT     H111537   0.436   1.507   1.043
 3765WAT     H211538   0.333   1.388   1.001
 3766WAT      O11539   2.723   9.581   4.359
 3766WAT     H111540   2.654   9.531   4.307
 3766WAT     H211541   2.706   9.680   4.351
 3767WAT      O11542   5.097   0.382   3.240
 3767WAT     H111543   5.171   0.342   3.186
 3767WAT     H211544   5.011   0.333   3.219
 3768WAT      O11545   3.527   2.996   0.220
 3768WAT     H111546   3.463   3.026   0.150
 3768WAT     H211547   3.564   2.906   0.194
 3769WAT      O11548   6.970   5.977   4.738
 3769WAT     H111549   6.886   6.030   4.727
 3769WAT     H211550   6.947   5.880   4.747
 3770WAT      O11551   0.823   3.288   5.293
 3770WAT     H111552   0.866   3.197   5.295
 3770WAT     H211553   0.861   3.345   5.365
 3771WAT      O11554   4.013   9.052   0.767
 3771WAT     H111555   4.067   8.995   0.706
 3771WAT     H211556   4.065   9.071   0.850
 3772WAT      O11557   7.946   8.680   7.713
 3772WAT     H111558   7.998   8.729   7.783
 3772WAT     H211559   8.006   8.657   7.636
 3773WAT      O11560   0.612   6.208   0.792
 3773WAT     H111561   0.566   6.221   0.704
 3773WAT     H211562   0.627   6.297   0.835
 3774WAT      O11563   0.224   4.843   8.903
 3774WAT     H111564   0.194   4.759   8.858
 3774WAT     H211565   0.165   4.861   8.982
 3775WAT      O11566   2.747   7.791   7.808
 3775WAT     H111567   2.721   7.739   7.727
 3775WAT     H211568   2.775   7.728   7.881
 3776WAT      O11569   1.792   5.299   1.421
 3776WAT     H111570   1.854   5.291   1.343
 3776WAT     H211571   1.842   5.276   1.505
 3777WAT      O11572   3.848   4.725   7.640
 3777WAT     H111573   3.847   4.769   7.550
 3777WAT     H211574   3.761   4.678   7.654
 3778WAT      O11575   4.760   1.831   2.334
 3778WAT     H111576   4.669   1.793   2.316
 3778WAT     H211577   4.826   1.757   2.343
 3779WAT      O11578   7.980   2.966   6.249
 3779WAT     H111579   8.078   2.960   6.234
 3779WAT     H211580   7.943   3.043   6.196
 3780WAT      O11581   2.359   5.687   7.988
 3780WAT     H111582   2.422   5.612   8.008
 3780WAT     H211583   2.279   5.651   7.939
 3781WAT      O11584   0.115   0.824   0.120
 3781WAT     H111585   0.117   0.920   0.148
 3781WAT     H211586   0.065   0.816   0.034
 3782WAT      O11587   7.589   5.616   7.610
 3782WAT     H111588   7.519   5.637   7.541
 3782WAT     H211589   7.579   5.679   7.687
 3783WAT      O11590   7.886   8.030   4.694
 3783WAT     H111591   7.958   7.968   4.726
 3783WAT     H211592   7.817   7.978   4.644
 3784WAT      O11593   2.664   4.934   7.867
 3784WAT     H111594   2.600   5.000   7.827
 3784WAT     H211595   2.619   4.883   7.940
 3785WAT      O11596   8.122   4.099   4.567
 3785WAT     H111597   8.045   4.106   4.503
 3785WAT     H211598   8.207   4.089   4.515
 3786WAT      O11599   8.230   9.139   8.403
 3786WAT     H111600   8.172   9.148   8.322
 3786WAT     H211601   8.181   9.087   8.473
 3787WAT      O11602   5.096   0.304   8.009
 3787WAT     H111603   5.183   0.327   7.965
 3787WAT     H211604   5.021   0.343   7.955
 3788WAT      O11605   8.213   0.214   0.995
 3788WAT     H111606   8.243   0.307   0.975
 3788WAT     H211607   8.211   0.161   0.910
 3789WAT      O11608   1.989   8.416   9.410
 3789WAT     H111609   1.976   8.355   9.333
 3789WAT     H211610   1.916   8.403   9.477
 3790WAT      O11611   6.803   2.893   6.867
 3790WAT     H111612   6.770   2.888   6.773
 3790WAT     H211613   6.785   2.805   6.913
 3791WAT      O11614   7.808   1.008   4.221
 3791WAT     H111615   7.726   1.066   4.211
 3791WAT     H211616   7.783   0.924   4.268
 3792WAT      O11617   2.453   1.075   5.361
 3792WAT     H111618   2.479   1.084   5.458
 3792WAT     H211619   2.406   0.988   5.347
 3793WAT      O11620   8.684   1.738   1.142
 3793WAT     H111621   8.717   1.760   1.234
 3793WAT     H211622   8.689   1.820   1.085
 3794WAT      O11623   7.975   6.657   2.484
 3794WAT     H111624   7.886   6.636   2.523
 3794WAT     H211625   7.965   6.683   2.388
 3795WAT      O11626   0.770   1.965   9.298
 3795WAT     H111627   0.757   2.024   9.217
 3795WAT     H211628   0.847   1.903   9.282
 3796WAT      O11629   7.765   4.410   5.267
 3796WAT     H111630   7.846   4.455   5.229
 3796WAT     H211631   7.716   4.474   5.327
 3797WAT      O11632   1.088   5.922   8.594
 3797WAT     H111633   1.069   5.970   8.509
 3797WAT     H211634   1.123   5.987   8.662
 3798WAT      O11635   8.686   4.196   6.405
 3798WAT     H111636   8.728   4.114   6.367
 3798WAT     H211637   8.698   4.272   6.341
 3799WAT      O11638   3.140   0.930   1.370
 3799WAT     H111639   3.157   0.984   1.287
 3799WAT     H211640   3.225   0.889   1.401
 3800WAT      O11641   8.250   4.068   9.509
 3800WAT     H111642   8.293   4.007   9.575
 3800WAT     H211643   8.151   4.069   9.524
 3801WAT      O11644   5.897   6.707   4.245
 3801WAT     H111645   5.853   6.668   4.325
 3801WAT     H211646   5.860   6.799   4.228
 3802WAT      O11647   5.821   9.156   6.761
 3802WAT     H111648   5.777   9.156   6.672
 3802WAT     H211649   5.751   9.150   6.833
 3803WAT      O11650   4.984   9.536   8.041
 3803WAT     H111651   4.965   9.437   8.047
 3803WAT     H211652   5.011   9.569   8.131
 3804WAT      O11653   9.140   8.505   1.970
 3804WAT     H111654   9.054   8.463   2.000
 3804WAT     H211655   9.126   8.603   1.957
 3805WAT      O11656   3.198   0.715   7.583
 3805WAT     H111657   3.117   0.696   7.527
 3805WAT     H211658   3.266   0.763   7.528
 3806WAT      O11659   8.523   3.353   0.505
 3806WAT     H111660   8.616   3.385   0.525
 3806WAT     H211661   8.522   3.253   0.510
 3807WAT      O11662   3.748   4.904   5.909
 3807WAT     H111663   3.684   4.979   5.921
 3807WAT     H211664   3.756   4.852   5.994
 3808WAT      O11665   3.739   2.368   0.641
 3808WAT     H111666   3.793   2.325   0.712
 3808WAT     H211667   3.752   2.467   0.645
 3809WAT      O11668   5.574   5.495   1.521
 3809WAT     H111669   5.551   5.535   1.433
 3809WAT     H211670   5.545   5.399   1.523
 3810WAT      O11671   3.907   2.863   3.783
 3810WAT     H111672   3.807   2.860   3.784
 3810WAT     H211673   3.939   2.931   3.849
 3811WAT      O11674   7.169   8.358   1.924
 3811WAT     H111675   7.236   8.431   1.931
 3811WAT     H211676   7.160   8.330   1.829
 3812WAT      O11677   5.634   0.727   9.396
 3812WAT     H111678   5.606   0.646   9.446
 3812WAT     H211679   5.701   0.778   9.450
 3813WAT      O11680   3.402   4.765   1.639
 3813WAT     H111681   3.393   4.824   1.720
 3813WAT     H211682   3.487   4.788   1.591
 3814WAT      O11683   6.231   1.680   4.614
 3814WAT     H111684   6.166   1.628   4.669
 3814WAT     H211685   6.271   1.753   4.669
 3815WAT      O11686   5.923   2.376   2.865
 3815WAT     H111687   5.841   2.425   2.837
 3815WAT     H211688   5.899   2.280   2.885
 3816WAT      O11689   1.035   3.307   1.142
 3816WAT     H111690   1.064   3.255   1.061
 3816WAT     H211691   0.937   3.323   1.137
 3817WAT      O11692   0.347   0.350   6.586
 3817WAT     H111693   0.435   0.353   6.540
 3817WAT     H211694   0.351   0.406   6.669
 3818WAT      O11695   8.988   2.070   1.276
 3818WAT     H111696   9.018   2.014   1.199
 3818WAT     H211697   9.038   2.042   1.359
 3819WAT      O11698   7.791   4.739   1.674
 3819WAT     H111699   7.874   4.693   1.641
 3819WAT     H211700   7.734   4.764   1.595
 3820WAT      O11701   0.012   0.767   4.189
 3820WAT     H111702  -0.016   0.681   4.147
 3820WAT     H211703  -0.009   0.843   4.128
 3821WAT      O11704   9.828   6.065   3.043
 3821WAT     H111705   9.810   6.051   2.946
 3821WAT     H211706   9.838   5.976   3.089
 3822WAT      O11707   6.285   3.974   6.790
 3822WAT     H111708   6.276   4.074   6.788
 3822WAT     H211709   6.199   3.934   6.820
 3823WAT      O11710   8.554   5.265   5.126
 3823WAT     H111711   8.490   5.205   5.077
 3823WAT     H211712   8.544   5.359   5.092
 3824WAT      O11713   2.810   4.457   8.344
 3824WAT     H111714   2.803   4.418   8.252
 3824WAT     H211715   2.886   4.414   8.393
 3825WAT      O11716   4.354   3.893   1.226
 3825WAT     H111717   4.427   3.929   1.167
 3825WAT     H211718   4.293   3.837   1.171
 3826WAT      O11719   7.718   5.526   9.525
 3826WAT     H111720   7.708   5.433   9.561
 3826WAT     H211721   7.684   5.591   9.593
 3827WAT      O11722   4.412   3.564   9.224
 3827WAT     H111723   4.397   3.591   9.129
 3827WAT     H211724   4.425   3.645   9.281
 3828WAT      O11725   8.120   1.276   4.454
 3828WAT     H111726   8.116   1.371   4.486
 3828WAT     H211727   8.202   1.232   4.491
 3829WAT      O11728   7.220   8.804   3.970
 3829WAT     H111729   7.263   8.811   3.879
 3829WAT     H211730   7.225   8.893   4.016
 3830WAT      O11731   3.739   8.905   4.496
 3830WAT     H111732   3.750   8.925   4.398
 3830WAT     H211733   3.800   8.965   4.548
 3831WAT      O11734   0.903   6.663   7.875
 3831WAT     H111735   0.935   6.706   7.959
 3831WAT     H211736   0.859   6.576   7.898
 3832WAT      O11737   5.141   2.571   8.131
 3832WAT     H111738   5.067   2.504   8.144
 3832WAT     H211739   5.158   2.584   8.034
 3833WAT      O11740   3.778   1.306   0.401
 3833WAT     H111741   3.843   1.372   0.439
 3833WAT     H211742   3.810   1.274   0.312
 3834WAT      O11743   2.528   2.858   3.834
 3834WAT     H111744   2.492   2.831   3.924
 3834WAT     H211745   2.562   2.777   3.787
 3835WAT      O11746   1.568   2.472   6.060
 3835WAT     H111747   1.574   2.497   5.963
 3835WAT     H211748   1.493   2.521   6.103
 3836WAT      O11749   8.645   3.552   6.356
 3836WAT     H111750   8.546   3.540   6.349
 3836WAT     H211751   8.683   3.481   6.415
 3837WAT      O11752   9.340   8.581   1.068
 3837WAT     H111753   9.264   8.622   1.019
 3837WAT     H211754   9.402   8.652   1.099
 3838WAT      O11755   8.432   3.258   7.149
 3838WAT     H111756   8.373   3.199   7.204
 3838WAT     H211757   8.443   3.219   7.058
 3839WAT      O11758   2.626   1.221   2.018
 3839WAT     H111759   2.711   1.272   2.033
 3839WAT     H211760   2.627   1.138   2.073
 3840WAT      O11761   8.612   6.144   2.667
 3840WAT     H111762   8.557   6.226   2.680
 3840WAT     H211763   8.654   6.118   2.754
 3841WAT      O11764   1.210   0.640   8.556
 3841WAT     H111765   1.295   0.629   8.504
 3841WAT     H211766   1.166   0.551   8.567
 3842WAT      O11767   6.349   9.111   8.892
 3842WAT     H111768   6.321   9.197   8.849
 3842WAT     H211769   6.360   9.126   8.990
 3843WAT      O11770   4.697   1.374   5.258
 3843WAT     H111771   4.601   1.401   5.250
 3843WAT     H211772   4.729   1.342   5.168
 3844WAT      O11773   7.778   8.997   7.948
 3844WAT     H111774   7.730   9.019   8.033
 3844WAT     H211775   7.789   9.080   7.893
 3845WAT      O11776   2.855   2.312   8.906
 3845WAT     H111777   2.905   2.278   8.985
 3845WAT     H211778   2.886   2.405   8.885
 3846WAT      O11779   9.482   1.346   8.364
 3846WAT     H111780   9.447   1.440   8.356
 3846WAT     H211781   9.533   1.323   8.281
 3847WAT      O11782   7.994   6.948   9.320
 3847WAT     H111783   8.040   7.027   9.279
 3847WAT     H211784   7.901   6.974   9.345
 3848WAT      O11785   9.731   8.101   2.281
 3848WAT     H111786   9.780   8.059   2.205
 3848WAT     H211787   9.738   8.043   2.361
 3849WAT      O11788   4.181   0.415   7.062
 3849WAT     H111789   4.193   0.340   6.997
 3849WAT     H211790   4.085   0.441   7.067
 3850WAT      O11791   9.806   9.455   8.300
 3850WAT     H111792   9.754   9.532   8.263
 3850WAT     H211793   9.835   9.476   8.394
 3851WAT      O11794   9.817   2.985   6.802
 3851WAT     H111795   9.731   2.954   6.762
 3851WAT     H211796   9.813   3.084   6.817
 3852WAT      O11797   6.934   3.111   8.183
 3852WAT     H111798   6.928   3.030   8.242
 3852WAT     H211799   6.882   3.186   8.223
 3853WAT      O11800   0.768   8.320   1.058
 3853WAT     H111801   0.843   8.257   1.038
 3853WAT     H211802   0.800   8.414   1.048
 3854WAT      O11803   9.224   9.105   8.110
 3854WAT     H111804   9.138   9.059   8.132
 3854WAT     H211805   9.292   9.083   8.180
 3855WAT      O11806   6.068   8.801   9.104
 3855WAT     H111807   6.019   8.716   9.123
 3855WAT     H211808   6.157   8.798   9.149
 3856WAT      O11809   1.300   4.443   9.078
 3856WAT     H111810   1.281   4.352   9.041
 3856WAT     H211811   1.221   4.502   9.064
 3857WAT      O11812   0.722   8.213   9.269
 3857WAT     H111813   0.625   8.228   9.247
 3857WAT     H211814   0.777   8.284   9.226
 3858WAT      O11815   1.659   5.701   9.595
 3858WAT     H111816   1.626   5.775   9.654
 3858WAT     H211817   1.712   5.636   9.649
 3859WAT      O11818   6.014   1.214   4.775
 3859WAT     H111819   5.969   1.186   4.860
 3859WAT     H211820   6.023   1.135   4.714
 3860WAT      O11821   1.557   6.766   5.700
 3860WAT     H111822   1.491   6.823   5.749
 3860WAT     H211823   1.509   6.688   5.659
 3861WAT      O11824   4.002   1.049   8.235
 3861WAT     H111825   4.100   1.064   8.248
 3861WAT     H211826   3.976   0.963   8.279
 3862WAT      O11827   5.390   3.975   7.901
 3862WAT     H111828   5.408   3.938   7.810
 3862WAT     H211829   5.326   4.051   7.894
 3863WAT      O11830   7.968   4.832   4.037
 3863WAT     H111831   7.880   4.820   4.082
 3863WAT     H211832   7.954   4.858   3.941
 3864WAT      O11833   5.693   2.981   5.307
 3864WAT     H111834   5.758   2.920   5.353
 3864WAT     H211835   5.600   2.953   5.329
 3865WAT      O11836   7.646   8.937   7.292
 3865WAT     H111837   7.707   8.896   7.360
 3865WAT     H211838   7.679   8.916   7.200
 3866WAT      O11839   5.598   1.399   0.185
 3866WAT     H111840   5.650   1.474   0.225
 3866WAT     H211841   5.592   1.324   0.251
 3867WAT      O11842   6.354   0.360   6.457
 3867WAT     H111843   6.304   0.277   6.435
 3867WAT     H211844   6.290   0.433   6.480
 3868WAT      O11845   7.796   2.811   7.141
 3868WAT     H111846   7.733   2.791   7.066
 3868WAT     H211847   7.788   2.908   7.166
 3869WAT      O11848   9.697   2.214   5.584
 3869WAT     H111849   9.689   2.215   5.484
 3869WAT     H211850   9.704   2.308   5.617
 3870WAT      O11851   1.508   7.505   3.637
 3870WAT     H111852   1.588   7.465   3.681
 3870WAT     H211853   1.487   7.454   3.553
 3871WAT      O11854   7.188   7.231   4.463
 3871WAT     H111855   7.175   7.314   4.408
 3871WAT     H211856   7.254   7.249   4.536
 3872WAT      O11857   4.214   3.204   7.518
 3872WAT     H111858   4.253   3.274   7.577
 3872WAT     H211859   4.140   3.242   7.464
 3873WAT      O11860   1.054   5.030   8.331
 3873WAT     H111861   1.069   5.001   8.236
 3873WAT     H211862   1.057   5.130   8.336
 3874WAT      O11863   9.357   2.125   5.314
 3874WAT     H111864   9.361   2.051   5.381
 3874WAT     H211865   9.407   2.098   5.232
 3875WAT      O11866   8.369   8.213   7.585
 3875WAT     H111867   8.442   8.219   7.517
 3875WAT     H211868   8.283   8.189   7.540
 3876WAT      O11869   8.496   7.893   6.379
 3876WAT     H111870   8.502   7.980   6.428
 3876WAT     H211871   8.403   7.881   6.344
 3877WAT      O11872   8.211   1.864   4.459
 3877WAT     H111873   8.253   1.951   4.433
 3877WAT     H211874   8.131   1.882   4.517
 3878WAT      O11875   5.985   8.049   6.176
 3878WAT     H111876   6.005   8.146   6.186
 3878WAT     H211877   6.012   8.001   6.260
 3879WAT      O11878   9.348   7.253   1.219
 3879WAT     H111879   9.430   7.264   1.162
 3879WAT     H211880   9.297   7.338   1.220
 3880WAT      O11881   4.112   4.803   8.252
 3880WAT     H111882   4.163   4.886   8.228
 3880WAT     H211883   4.080   4.759   8.169
 3881WAT      O11884   0.138   5.704   6.267
 3881WAT     H111885   0.170   5.643   6.194
 3881WAT     H211886   0.215   5.726   6.328
 3882WAT      O11887   3.346   0.972   3.681
 3882WAT     H111888   3.276   0.906   3.655
 3882WAT     H211889   3.312   1.031   3.754
 3883WAT      O11890   1.439   7.148   3.673
 3883WAT     H111891   1.492   7.230   3.650
 3883WAT     H211892   1.365   7.174   3.736
 3884WAT      O11893   1.720   3.667   0.278
 3884WAT     H111894   1.815   3.674   0.249
 3884WAT     H211895   1.707   3.585   0.333
 3885WAT      O11896   6.391   6.339   7.232
 3885WAT     H111897   6.430   6.331   7.324
 3885WAT     H211898   6.303   6.292   7.229
 3886WAT      O11899   5.343   1.814   3.371
 3886WAT     H111900   5.326   1.901   3.324
 3886WAT     H211901   5.258   1.761   3.374
 3887WAT      O11902   6.274   4.785   1.281
 3887WAT     H111903   6.325   4.866   1.250
 3887WAT     H211904   6.312   4.753   1.367
 3888WAT      O11905   9.557   4.900   9.411
 3888WAT     H111906   9.493   4.832   9.378
 3888WAT     H211907   9.649   4.860   9.417
 3889WAT      O11908   3.402   8.081   9.501
 3889WAT     H111909   3.374   8.115   9.411
 3889WAT     H211910   3.457   8.151   9.547
 3890WAT      O11911   1.220   3.986   6.571
 3890WAT     H111912   1.189   4.033   6.488
 3890WAT     H211913   1.281   4.046   6.623
 3891WAT      O11914   1.685   4.033   9.542
 3891WAT     H111915   1.776   4.055   9.508
 3891WAT     H211916   1.629   3.995   9.468
 3892WAT      O11917   7.677   6.747   7.403
 3892WAT     H111918   7.635   6.833   7.429
 3892WAT     H211919   7.774   6.749   7.426
 3893WAT      O11920   2.838   5.619   0.443
 3893WAT     H111921   2.813   5.710   0.411
 3893WAT     H211922   2.875   5.626   0.536
 3894WAT      O11923   0.607   1.198   4.025
 3894WAT     H111924   0.694   1.156   3.997
 3894WAT     H211925   0.540   1.187   3.952
 3895WAT      O11926   2.561   9.311   2.229
 3895WAT     H111927   2.491   9.357   2.285
 3895WAT     H211928   2.563   9.214   2.251
 3896WAT      O11929   1.815   0.759   6.258
 3896WAT     H111930   1.741   0.776   6.193
 3896WAT     H211931   1.802   0.814   6.340
 3897WAT      O11932   7.780   4.123   1.059
 3897WAT     H111933   7.747   4.218   1.062
 3897WAT     H211934   7.869   4.117   1.104
 3898WAT      O11935   7.748   7.517   9.789
 3898WAT     H111936   7.691   7.438   9.810
 3898WAT     H211937   7.839   7.504   9.830
 3899WAT      O11938   8.073   1.082   1.139
 3899WAT     H111939   8.163   1.122   1.159
 3899WAT     H211940   8.076   0.984   1.153
 3900WAT      O11941   1.240   7.464   0.187
 3900WAT     H111942   1.260   7.493   0.281
 3900WAT     H211943   1.170   7.523   0.148
 3901WAT      O11944   2.620   7.028   9.729
 3901WAT     H111945   2.642   7.041   9.826
 3901WAT     H211946   2.538   7.080   9.706
 3902WAT      O11947   2.974   0.147   3.782
 3902WAT     H111948   2.960   0.066   3.724
 3902WAT     H211949   2.898   0.210   3.771
 3903WAT      O11950   9.733   6.932   8.474
 3903WAT     H111951   9.647   6.911   8.522
 3903WAT     H211952   9.724   6.906   8.378
 3904WAT      O11953   0.239   7.442   5.916
 3904WAT     H111954   0.140   7.453   5.925
 3904WAT     H211955   0.284   7.496   5.988
 3905WAT      O11956   6.972   6.415   6.753
 3905WAT     H111957   6.930   6.463   6.831
 3905WAT     H211958   6.908   6.414   6.676
 3906WAT      O11959   5.941   8.134   1.773
 3906WAT     H111960   5.951   8.224   1.815
 3906WAT     H211961   5.948   8.143   1.673
 3907WAT      O11962   6.075   0.234   2.315
 3907WAT     H111963   5.989   0.221   2.365
 3907WAT     H211964   6.098   0.332   2.314
 3908WAT      O11965   0.906   0.052   4.763
 3908WAT     H111966   0.921   0.150   4.749
 3908WAT     H211967   0.992   0.009   4.790
 3909WAT      O11968   5.486   8.198   5.137
 3909WAT     H111969   5.550   8.215   5.212
 3909WAT     H211970   5.529   8.226   5.051
 3910WAT      O11971   1.527   7.839   3.849
 3910WAT     H111972   1.467   7.811   3.774
 3910WAT     H211973   1.617   7.861   3.812
 3911WAT      O11974   0.908   0.693   1.917
 3911WAT     H111975   0.897   0.792   1.920
 3911WAT     H211976   0.843   0.650   1.979
 3912WAT      O11977   4.148   3.162   8.668
 3912WAT     H111978   4.050   3.147   8.682
 3912WAT     H211979   4.165   3.260   8.656
 3913WAT      O11980   2.475   1.229   7.595
 3913WAT     H111981   2.498   1.318   7.633
 3913WAT     H211982   2.375   1.219   7.591
 3914WAT      O11983   7.221   2.395   3.492
 3914WAT     H111984   7.282   2.390   3.572
 3914WAT     H211985   7.194   2.303   3.464
 3915WAT      O11986   1.169   9.034   3.091
 3915WAT     H111987   1.167   9.067   3.186
 3915WAT     H211988   1.258   9.056   3.051
 3916WAT      O11989   6.477   8.948   4.385
 3916WAT     H111990   6.484   8.850   4.367
 3916WAT     H211991   6.381   8.975   4.386
 3917WAT      O11992   8.260   3.237   6.735
 3917WAT     H111993   8.201   3.157   6.745
 3917WAT     H211994   8.235   3.286   6.652
 3918WAT      O11995   1.133   8.307   4.007
 3918WAT     H111996   1.228   8.286   3.982
 3918WAT     H211997   1.072   8.240   3.965
 3919WAT      O11998   1.659   2.373   3.534
 3919WAT     H111999   1.723   2.404   3.605
 3919WAT     H212000   1.703   2.380   3.445
 3920WAT      O12001   2.247   1.299   8.150
 3920WAT     H112002   2.194   1.218   8.124
 3920WAT     H212003   2.197   1.352   8.218
 3921WAT      O12004   0.566   4.273   0.087
 3921WAT     H112005   0.542   4.247   0.180
 3921WAT     H212006   0.564   4.192   0.028
 3922WAT      O12007   0.572   9.815   7.131
 3922WAT     H112008   0.583   9.740   7.195
 3922WAT     H212009   0.622   9.796   7.047
 3923WAT      O12010   8.885   1.119   5.687
 3923WAT     H112011   8.954   1.191   5.683
 3923WAT     H212012   8.811   1.141   5.623
 3924WAT      O12013   5.457   2.956   7.305
 3924WAT     H112014   5.413   2.868   7.320
 3924WAT     H212015   5.554   2.950   7.331
 3925WAT      O12016   6.668   0.885   9.244
 3925WAT     H112017   6.701   0.805   9.194
 3925WAT     H212018   6.732   0.907   9.318
 3926WAT      O12019   1.728   3.769   6.513
 3926WAT     H112020   1.815   3.817   6.503
 3926WAT     H212021   1.738   3.674   6.484
 3927WAT      O12022   3.586   3.928   6.255
 3927WAT     H112023   3.650   3.957   6.326
 3927WAT     H212024   3.542   4.008   6.215
 3928WAT      O12025   8.165   3.884   3.536
 3928WAT     H112026   8.122   3.796   3.557
 3928WAT     H212027   8.239   3.901   3.601
 3929WAT      O12028   9.663   4.541   0.666
 3929WAT     H112029   9.711   4.570   0.749
 3929WAT     H212030   9.682   4.444   0.650
 3930WAT      O12031   8.922   9.246   5.707
 3930WAT     H112032   8.872   9.328   5.680
 3930WAT     H212033   8.862   9.166   5.696
 3931WAT      O12034   2.335   9.398   0.298
 3931WAT     H112035   2.289   9.414   0.385
 3931WAT     H212036   2.272   9.356   0.233
 3932WAT      O12037   1.163   4.190   4.213
 3932WAT     H112038   1.066   4.188   4.187
 3932WAT     H212039   1.198   4.283   4.203
 3933WAT      O12040   1.190   7.599   5.069
 3933WAT     H112041   1.204   7.579   4.972
 3933WAT     H212042   1.227   7.689   5.090
 3934WAT      O12043   1.126   6.332   7.468
 3934WAT     H112044   1.122   6.272   7.547
 3934WAT     H212045   1.038   6.379   7.457
 3935WAT      O12046   4.848   5.686   5.172
 3935WAT     H112047   4.796   5.762   5.210
 3935WAT     H212048   4.920   5.660   5.236
 3936WAT      O12049   6.850   3.319   8.373
 3936WAT     H112050   6.809   3.407   8.400
 3936WAT     H212051   6.942   3.311   8.412
 3937WAT      O12052   8.153   1.268   8.597
 3937WAT     H112053   8.139   1.359   8.557
 3937WAT     H212054   8.249   1.258   8.624
 3938WAT      O12055   3.508   2.138   9.223
 3938WAT     H112056   3.446   2.207   9.261
 3938WAT     H212057   3.594   2.181   9.198
 3939WAT      O12058   0.376   5.798   0.207
 3939WAT     H112059   0.401   5.765   0.298
 3939WAT     H212060   0.288   5.846   0.212
 3940WAT      O12061   5.333   1.404   7.799
 3940WAT     H112062   5.325   1.490   7.748
 3940WAT     H212063   5.264   1.339   7.766
 3941WAT      O12064   1.286   6.658   7.240
 3941WAT     H112065   1.383   6.663   7.215
 3941WAT     H212066   1.277   6.668   7.339
 3942WAT      O12067   7.462   5.580   8.038
 3942WAT     H112068   7.376   5.533   8.022
 3942WAT     H212069   7.476   5.590   8.137
 3943WAT      O12070   6.052   3.095   9.729
 3943WAT     H112071   6.013   3.087   9.821
 3943WAT     H212072   6.048   3.191   9.700
 3944WAT      O12073   7.624   3.157   5.161
 3944WAT     H112074   7.543   3.149   5.219
 3944WAT     H212075   7.606   3.220   5.086
 3945WAT      O12076   1.559   5.887   0.498
 3945WAT     H112077   1.488   5.880   0.568
 3945WAT     H212078   1.580   5.983   0.482
 3946WAT      O12079   4.486   8.652   4.311
 3946WAT     H112080   4.564   8.608   4.356
 3946WAT     H212081   4.401   8.612   4.346
 3947WAT      O12082   1.936   7.246   7.941
 3947WAT     H112083   2.026   7.240   7.984
 3947WAT     H212084   1.895   7.155   7.936
 3948WAT      O12085   6.568   4.546   7.203
 3948WAT     H112086   6.619   4.593   7.131
 3948WAT     H212087   6.632   4.501   7.265
 3949WAT      O12088   9.533   9.615   9.706
 3949WAT     H112089   9.532   9.604   9.606
 3949WAT     H212090   9.493   9.534   9.749
 3950WAT      O12091   1.720   6.339   5.248
 3950WAT     H112092   1.768   6.421   5.277
 3950WAT     H212093   1.756   6.259   5.297
 3951WAT      O12094   5.087   6.628   4.298
 3951WAT     H112095   5.139   6.543   4.295
 3951WAT     H212096   4.990   6.607   4.307
 3952WAT      O12097   6.507   2.880   8.214
 3952WAT     H112098   6.599   2.879   8.253
 3952WAT     H212099   6.452   2.808   8.257
 3953WAT      O12100   1.658   8.967   7.608
 3953WAT     H112101   1.569   8.946   7.568
 3953WAT     H212102   1.665   9.065   7.625
 3954WAT      O12103   9.594   6.228   5.618
 3954WAT     H112104   9.515   6.191   5.570
 3954WAT     H212105   9.579   6.223   5.717
 3955WAT      O12106   1.787   1.798   9.367
 3955WAT     H112107   1.849   1.816   9.290
 3955WAT     H212108   1.693   1.811   9.337
 3956WAT      O12109   7.181   5.598   0.059
 3956WAT     H112110   7.246   5.621   0.132
 3956WAT     H212111   7.089   5.626   0.086
 3957WAT      O12112   3.955   8.394   3.629
 3957WAT     H112113   4.008   8.363   3.708
 3957WAT     H212114   4.017   8.413   3.553
 3958WAT      O12115   4.980   0.030   6.460
 3958WAT     H112116   5.073   0.006   6.488
 3958WAT     H212117   4.915  -0.009   6.525
 3959WAT      O12118   5.277   7.477   8.102
 3959WAT     H112119   5.366   7.454   8.141
 3959WAT     H212120   5.212   7.403   8.121
 3960WAT      O12121   5.334   6.741   5.256
 3960WAT     H112122   5.369   6.829   5.289
 3960WAT     H212123   5.340   6.738   5.156
 3961WAT      O12124   6.297   0.765   9.761
 3961WAT     H112125   6.204   0.800   9.771
 3961WAT     H212126   6.336   0.797   9.675
 3962WAT      O12127   2.457   3.320   1.698
 3962WAT     H112128   2.412   3.331   1.786
 3962WAT     H212129   2.553   3.344   1.706
 3963WAT      O12130   3.045   1.921   6.909
 3963WAT     H112131   3.100   2.004   6.908
 3963WAT     H212132   2.948   1.946   6.905
 3964WAT      O12133   9.095   2.939   9.157
 3964WAT     H112134   9.172   2.936   9.220
 3964WAT     H212135   9.019   2.886   9.194
 3965WAT      O12136   9.300   6.458   5.391
 3965WAT     H112137   9.319   6.360   5.397
 3965WAT     H212138   9.269   6.481   5.299
 3966WAT      O12139   2.390   6.038   7.730
 3966WAT     H112140   2.463   5.976   7.702
 3966WAT     H212141   2.418   6.133   7.713
 3967WAT      O12142   8.951   8.883   5.145
 3967WAT     H112143   8.967   8.822   5.222
 3967WAT     H212144   8.994   8.971   5.162
 3968WAT      O12145   0.386   8.886   1.101
 3968WAT     H112146   0.413   8.791   1.112
 3968WAT     H212147   0.291   8.897   1.128
 3969WAT      O12148   8.041   0.701   4.783
 3969WAT     H112149   8.009   0.788   4.745
 3969WAT     H212150   8.117   0.719   4.847
 3970WAT      O12151   9.817   2.094   8.380
 3970WAT     H112152   9.727   2.127   8.410
 3970WAT     H212153   9.878   2.089   8.458
 3971WAT      O12154   2.654   3.408   2.236
 3971WAT     H112155   2.664   3.407   2.335
 3971WAT     H212156   2.658   3.502   2.202
 3972WAT      O12157   4.439   3.827   3.679
 3972WAT     H112158   4.361   3.774   3.646
 3972WAT     H212159   4.523   3.773   3.668
 3973WAT      O12160   5.391   8.821   5.253
 3973WAT     H112161   5.430   8.762   5.182
 3973WAT     H212162   5.299   8.849   5.226
 3974WAT      O12163   8.084   7.369   4.662
 3974WAT     H112164   8.037   7.282   4.649
 3974WAT     H212165   8.073   7.426   4.580
 3975WAT      O12166   3.022   7.385   3.715
 3975WAT     H112167   2.983   7.469   3.679
 3975WAT     H212168   3.122   7.390   3.713
 3976WAT      O12169   7.155   6.601   6.673
 3976WAT     H112170   7.100   6.634   6.597
 3976WAT     H212171   7.110   6.523   6.716
 3977WAT      O12172   5.750   7.896   2.149
 3977WAT     H112173   5.829   7.921   2.093
 3977WAT     H212174   5.695   7.829   2.099
 3978WAT      O12175   9.201   8.417   5.414
 3978WAT     H112176   9.107   8.450   5.402
 3978WAT     H212177   9.250   8.424   5.327
 3979WAT      O12178   0.751   8.593   0.997
 3979WAT     H112179   0.719   8.582   0.903
 3979WAT     H212180   0.787   8.685   1.010
 3980WAT      O12181   5.230   7.158   4.790
 3980WAT     H112182   5.317   7.142   4.742
 3980WAT     H212183   5.196   7.249   4.768
 3981WAT      O12184   9.258   2.673   3.744
 3981WAT     H112185   9.246   2.724   3.659
 3981WAT     H212186   9.196   2.709   3.813
 3982WAT      O12187   9.123   2.244   9.757
 3982WAT     H112188   9.198   2.184   9.730
 3982WAT     H212189   9.150   2.339   9.742
 3983WAT      O12190   6.630   4.927   9.360
 3983WAT     H112191   6.544   4.977   9.356
 3983WAT     H212192   6.618   4.837   9.320
 3984WAT      O12193   9.439   7.198   8.882
 3984WAT     H112194   9.376   7.160   8.950
 3984WAT     H212195   9.398   7.279   8.841
 3985WAT      O12196   1.749   2.935   5.138
 3985WAT     H112197   1.744   3.034   5.151
 3985WAT     H212198   1.725   2.911   5.044
 3986WAT      O12199   1.783   2.460   4.572
 3986WAT     H112200   1.708   2.423   4.516
 3986WAT     H212201   1.869   2.451   4.522
 3987WAT      O12202   3.056   4.116   0.595
 3987WAT     H112203   3.129   4.083   0.535
 3987WAT     H212204   3.044   4.051   0.670
 3988WAT      O12205   5.753   9.559   3.126
 3988WAT     H112206   5.810   9.493   3.175
 3988WAT     H212207   5.810   9.616   3.067
 3989WAT      O12208   7.229   4.619   3.783
 3989WAT     H112209   7.163   4.628   3.858
 3989WAT     H212210   7.196   4.670   3.703
 3990WAT      O12211   2.761   6.998   6.122
 3990WAT     H112212   2.776   7.036   6.031
 3990WAT     H212213   2.788   6.902   6.123
 3991WAT      O12214   4.720   5.063   3.108
 3991WAT     H112215   4.634   5.017   3.085
 3991WAT     H212216   4.783   5.058   3.030
 3992WAT      O12217   9.284   9.007   2.526
 3992WAT     H112218   9.234   9.013   2.613
 3992WAT     H212219   9.266   8.918   2.483
 3993WAT      O12220   4.444   7.427   3.740
 3993WAT     H112221   4.404   7.392   3.656
 3993WAT     H212222   4.480   7.351   3.794
 3994WAT      O12223   0.942   2.560   2.488
 3994WAT     H112224   0.919   2.532   2.395
 3994WAT     H212225   0.892   2.644   2.511
 3995WAT      O12226   8.763   5.971   6.983
 3995WAT     H112227   8.788   5.912   6.906
 3995WAT     H212228   8.729   5.915   7.058
 3996WAT      O12229   7.711   8.205   0.942
 3996WAT     H112230   7.779   8.148   0.896
 3996WAT     H212231   7.656   8.148   1.003
 3997WAT      O12232   0.904   6.097   0.475
 3997WAT     H112233   0.900   6.122   0.571
 3997WAT     H212234   0.859   6.167   0.420
 3998WAT      O12235   0.122   0.856   1.063
 3998WAT     H112236   0.070   0.811   0.991
 3998WAT     H212237   0.172   0.788   1.116
 3999WAT      O12238   7.442   7.855   4.212
 3999WAT     H112239   7.405   7.946   4.199
 3999WAT     H212240   7.368   7.791   4.233
 4000WAT      O12241   4.201   3.763   1.063
 4000WAT     H112242   4.218   3.669   1.034
 4000WAT     H212243   4.109   3.770   1.102
 4001WAT      O12244   3.767   0.244   2.093
 4001WAT     H112245   3.845   0.227   2.033
 4001WAT     H212246   3.764   0.340   2.119
 4002WAT      O12247   3.280   2.149   2.302
 4002WAT     H112248   3.279   2.069   2.363
 4002WAT     H212249   3.330   2.223   2.347
 4003WAT      O12250   5.069   3.959   0.862
 4003WAT     H112251   4.989   4.005   0.823
 4003WAT     H212252   5.039   3.881   0.916
 4004WAT      O12253   2.930   3.149   6.586
 4004WAT     H112254   2.838   3.138   6.622
 4004WAT     H212255   2.976   3.225   6.633
 4005WAT      O12256   9.582   3.954   1.560
 4005WAT     H112257   9.560   3.959   1.463
 4005WAT     H212258   9.557   4.039   1.605
 4006WAT      O12259   6.789   5.617   1.592
 4006WAT     H112260   6.768   5.526   1.629
 4006WAT     H212261   6.734   5.686   1.639
 4007WAT      O12262   0.307   8.302   8.794
 4007WAT     H112263   0.364   8.243   8.851
 4007WAT     H212264   0.214   8.266   8.791
 4008WAT      O12265   6.558   4.513   0.210
 4008WAT     H112266   6.643   4.558   0.182
 4008WAT     H212267   6.480   4.564   0.172
 4009WAT      O12268   2.855   9.183   1.268
 4009WAT     H112269   2.927   9.244   1.236
 4009WAT     H212270   2.895   9.110   1.323
 4010WAT      O12271   1.541   1.967   4.925
 4010WAT     H112272   1.480   1.896   4.890
 4010WAT     H212273   1.537   1.967   5.025
 4011WAT      O12274   5.781   0.807   8.402
 4011WAT     H112275   5.747   0.781   8.312
 4011WAT     H212276   5.746   0.742   8.470
 4012WAT      O12277   7.611   5.897   9.869
 4012WAT     H112278   7.614   5.808   9.825
 4012WAT     H212279   7.518   5.933   9.866
 4013WAT      O12280   6.664   2.405   7.029
 4013WAT     H112281   6.702   2.378   7.117
 4013WAT     H212282   6.592   2.341   7.003
 4014WAT      O12283   6.340   8.902   8.276
 4014WAT     H112284   6.362   8.999   8.269
 4014WAT     H212285   6.418   8.849   8.242
 4015WAT      O12286   8.176   2.246   4.137
 4015WAT     H112287   8.243   2.292   4.079
 4015WAT     H212288   8.104   2.310   4.163
 4016WAT      O12289   4.251   1.082   7.980
 4016WAT     H112290   4.165   1.125   7.951
 4016WAT     H212291   4.314   1.153   8.012
 4017WAT      O12292   7.500   3.467   4.577
 4017WAT     H112293   7.581   3.414   4.604
 4017WAT     H212294   7.432   3.463   4.651
 4018WAT      O12295   9.699   7.077   0.605
 4018WAT     H112296   9.601   7.081   0.626
 4018WAT     H212297   9.745   7.020   0.673
 4019WAT      O12298   7.799   9.551   6.632
 4019WAT     H112299   7.865   9.626   6.629
 4019WAT     H212300   7.814   9.496   6.714
 4020WAT      O12301   8.955   8.562   3.559
 4020WAT     H112302   8.986   8.562   3.464
 4020WAT     H212303   8.860   8.592   3.562
 4021WAT      O12304   1.849   7.038   3.906
 4021WAT     H112305   1.771   6.987   3.870
 4021WAT     H212306   1.875   7.109   3.840
 4022WAT      O12307   6.964   9.056   7.340
 4022WAT     H112308   7.011   9.096   7.261
 4022WAT     H212309   6.938   8.962   7.319
 4023WAT      O12310   9.820   8.394   1.328
 4023WAT     H112311   9.740   8.448   1.356
 4023WAT     H212312   9.903   8.443   1.352
 4024WAT      O12313   4.785   0.287   1.858
 4024WAT     H112314   4.743   0.275   1.768
 4024WAT     H212315   4.878   0.324   1.847
 4025WAT      O12316   7.691   5.991   2.604
 4025WAT     H112317   7.694   5.899   2.565
 4025WAT     H212318   7.753   6.051   2.553
 4026WAT      O12319   4.890   1.145   9.132
 4026WAT     H112320   4.890   1.057   9.083
 4026WAT     H212321   4.881   1.128   9.230
 4027WAT      O12322   5.153   9.421   0.556
 4027WAT     H112323   5.119   9.512   0.577
 4027WAT     H212324   5.166   9.411   0.458
 4028WAT      O12325   3.939   5.290   3.500
 4028WAT     H112326   3.914   5.385   3.481
 4028WAT     H212327   3.892   5.230   3.435
 4029WAT      O12328   3.081   4.459   1.154
 4029WAT     H112329   3.095   4.474   1.056
 4029WAT     H212330   2.985   4.437   1.171
 4030WAT      O12331   9.399   6.594   3.796
 4030WAT     H112332   9.308   6.569   3.762
 4030WAT     H212333   9.466   6.530   3.761
 4031WAT      O12334   7.214   5.142   7.624
 4031WAT     H112335   7.304   5.105   7.599
 4031WAT     H212336   7.215   5.173   7.719
 4032WAT      O12337   0.548   0.044   6.073
 4032WAT     H112338   0.512   0.108   6.005
 4032WAT     H212339   0.483   0.037   6.149
 4033WAT      O12340   4.979   3.188   8.394
 4033WAT     H112341   5.023   3.260   8.447
 4033WAT     H212342   5.026   3.101   8.411
 4034WAT      O12343   5.112   8.437   7.583
 4034WAT     H112344   5.112   8.470   7.489
 4034WAT     H212345   5.126   8.515   7.645
 4035WAT      O12346   5.990   6.429   2.442
 4035WAT     H112347   5.937   6.465   2.520
 4035WAT     H212348   6.065   6.373   2.476
 4036WAT      O12349   3.837   1.703   8.589
 4036WAT     H112350   3.885   1.736   8.508
 4036WAT     H212351   3.796   1.780   8.637
 4037WAT      O12352   2.069   7.648   4.532
 4037WAT     H112353   2.168   7.659   4.517
 4037WAT     H212354   2.054   7.603   4.620
 4038WAT      O12355   7.061   3.992   1.693
 4038WAT     H112356   7.107   3.916   1.738
 4038WAT     H212357   6.979   4.017   1.745
 4039WAT      O12358   6.772   4.170   1.382
 4039WAT     H112359   6.807   4.254   1.422
 4039WAT     H212360   6.748   4.187   1.286
 4040WAT      O12361   5.150   0.819   2.238
 4040WAT     H112362   5.228   0.770   2.199
 4040WAT     H212363   5.183   0.899   2.288
 4041WAT      O12364   8.676   8.395   7.900
 4041WAT     H112365   8.697   8.332   7.975
 4041WAT     H212366   8.614   8.351   7.836
 4042WAT      O12367   3.109   0.697   8.529
 4042WAT     H112368   3.110   0.764   8.455
 4042WAT     H212369   3.081   0.608   8.493
 4043WAT      O12370   7.443   0.681   5.375
 4043WAT     H112371   7.379   0.623   5.426
 4043WAT     H212372   7.536   0.654   5.396
 4044WAT      O12373   6.965   4.496   2.569
 4044WAT     H112374   6.935   4.474   2.477
 4044WAT     H212375   7.031   4.427   2.600
 4045WAT      O12376   4.797   8.462   2.804
 4045WAT     H112377   4.742   8.490   2.882
 4045WAT     H212378   4.887   8.505   2.810
 4046WAT      O12379   5.826   7.629   1.704
 4046WAT     H112380   5.745   7.629   1.646
 4046WAT     H212381   5.904   7.668   1.654
 4047WAT      O12382   5.542   0.077   7.357
 4047WAT     H112383   5.558   0.091   7.259
 4047WAT     H212384   5.445   0.090   7.377
 4048WAT      O12385   9.328   9.001   9.245
 4048WAT     H112386   9.403   8.936   9.237
 4048WAT     H212387   9.255   8.961   9.301
 4049WAT      O12388   1.896   1.883   1.235
 4049WAT     H112389   1.887   1.931   1.147
 4049WAT     H212390   1.813   1.829   1.252
 4050WAT      O12391   2.361   7.381   0.298
 4050WAT     H112392   2.303   7.450   0.342
 4050WAT     H212393   2.311   7.340   0.222
 4051WAT      O12394   4.118   9.839   5.361
 4051WAT     H112395   4.047   9.787   5.314
 4051WAT     H212396   4.131   9.928   5.316
 4052WAT      O12397   0.465   2.710   8.305
 4052WAT     H112398   0.439   2.640   8.371
 4052WAT     H212399   0.510   2.666   8.227
 4053WAT      O12400   5.868   6.344   6.732
 4053WAT     H112401   5.883   6.264   6.790
 4053WAT     H212402   5.770   6.356   6.717
 4054WAT      O12403   0.691   9.472   2.409
 4054WAT     H112404   0.700   9.438   2.503
 4054WAT     H212405   0.756   9.547   2.395
 4055WAT      O12406   8.471   8.544   8.945
 4055WAT     H112407   8.487   8.450   8.914
 4055WAT     H212408   8.556   8.597   8.935
 4056WAT      O12409   6.807   9.192   2.569
 4056WAT     H112410   6.757   9.198   2.483
 4056WAT     H212411   6.885   9.255   2.566
 4057WAT      O12412   7.601   0.186   3.294
 4057WAT     H112413   7.507   0.173   3.325
 4057WAT     H212414   7.640   0.266   3.339
 4058WAT      O12415   3.093   4.491   0.889
 4058WAT     H112416   3.122   4.462   0.798
 4058WAT     H212417   3.023   4.562   0.881
 4059WAT      O12418   9.063   7.654   7.614
 4059WAT     H112419   9.074   7.613   7.524
 4059WAT     H212420   8.982   7.617   7.659
 4060WAT      O12421   5.946   7.435   8.791
 4060WAT     H112422   5.868   7.388   8.750
 4060WAT     H212423   5.966   7.395   8.881
 4061WAT      O12424   3.928   4.250   8.856
 4061WAT     H112425   4.016   4.204   8.853
 4061WAT     H212426   3.929   4.328   8.794
 4062WAT      O12427   7.606   2.381   9.269
 4062WAT     H112428   7.547   2.460   9.254
 4062WAT     H212429   7.628   2.374   9.366
 4063WAT      O12430   8.353   3.285   9.390
 4063WAT     H112431   8.273   3.234   9.424
 4063WAT     H212432   8.337   3.312   9.296
 4064WAT      O12433   6.124   5.418   0.880
 4064WAT     H112434   6.147   5.423   0.783
 4064WAT     H212435   6.123   5.323   0.910
 4065WAT      O12436   5.704   3.688   0.045
 4065WAT     H112437   5.684   3.643  -0.043
 4065WAT     H212438   5.682   3.625   0.119
 4066WAT      O12439   1.599   6.335   8.043
 4066WAT     H112440   1.633   6.374   7.957
 4066WAT     H212441   1.673   6.333   8.110
 4067WAT      O12442   6.298   7.670   9.639
 4067WAT     H112443   6.361   7.679   9.716
 4067WAT     H212444   6.209   7.708   9.664
 4068WAT      O12445   6.376   3.027   7.217
 4068WAT     H112446   6.429   3.109   7.238
 4068WAT     H212447   6.357   2.977   7.301
 4069WAT      O12448   0.047   9.094   3.574
 4069WAT     H112449   0.040   9.137   3.664
 4069WAT     H212450   0.044   9.165   3.503
 4070WAT      O12451   5.502   6.379   0.647
 4070WAT     H112452   5.525   6.281   0.644
 4070WAT     H212453   5.491   6.413   0.554
 4071WAT      O12454   1.267   2.750   3.374
 4071WAT     H112455   1.271   2.750   3.274
 4071WAT     H212456   1.234   2.661   3.406
 4072WAT      O12457   5.504   7.121   1.720
 4072WAT     H112458   5.428   7.160   1.668
 4072WAT     H212459   5.504   7.022   1.710
 4073WAT      O12460   9.808   1.006   6.503
 4073WAT     H112461   9.776   0.981   6.412
 4073WAT     H212462   9.892   0.957   6.524
 4074WAT      O12463   1.885   8.220   1.085
 4074WAT     H112464   1.822   8.160   1.133
 4074WAT     H212465   1.941   8.166   1.021
 4075WAT      O12466   9.089   2.598   7.212
 4075WAT     H112467   9.078   2.590   7.113
 4075WAT     H212468   9.151   2.526   7.244
 4076WAT      O12469   8.063   8.211   0.737
 4076WAT     H112470   8.046   8.257   0.649
 4076WAT     H212471   8.158   8.226   0.764
 4077WAT      O12472   0.979   1.426   9.109
 4077WAT     H112473   1.071   1.463   9.098
 4077WAT     H212474   0.944   1.396   9.021
 4078WAT      O12475   0.612   7.366   8.337
 4078WAT     H112476   0.569   7.290   8.288
 4078WAT     H212477   0.681   7.408   8.279
 4079WAT      O12478   2.441   9.244   2.782
 4079WAT     H112479   2.502   9.168   2.757
 4079WAT     H212480   2.471   9.327   2.736
 4080WAT      O12481   0.887   1.110   2.492
 4080WAT     H112482   0.883   1.193   2.437
 4080WAT     H212483   0.795   1.070   2.499
 4081WAT      O12484   0.880   8.117   8.300
 4081WAT     H112485   0.928   8.165   8.373
 4081WAT     H212486   0.792   8.084   8.335
 4082WAT      O12487   4.453   6.090   0.429
 4082WAT     H112488   4.412   6.076   0.339
 4082WAT     H212489   4.551   6.107   0.419
 4083WAT      O12490   8.297   1.358   0.182
 4083WAT     H112491   8.219   1.318   0.231
 4083WAT     H212492   8.266   1.392   0.093
 4084WAT      O12493   5.008   1.079   1.661
 4084WAT     H112494   4.945   1.118   1.728
 4084WAT     H212495   5.051   1.153   1.609
 4085WAT      O12496   9.265   1.056   3.899
 4085WAT     H112497   9.276   1.155   3.912
 4085WAT     H212498   9.253   1.012   3.988
 4086WAT      O12499   3.268   5.205   0.079
 4086WAT     H112500   3.365   5.191   0.062
 4086WAT     H212501   3.251   5.302   0.100
 4087WAT      O12502   3.515   8.675   1.396
 4087WAT     H112503   3.605   8.638   1.372
 4087WAT     H212504   3.528   8.760   1.448
 4088WAT      O12505   2.160   4.209   4.215
 4088WAT     H112506   2.121   4.185   4.304
 4088WAT     H212507   2.226   4.283   4.226
 4089WAT      O12508   4.034   2.271   4.931
 4089WAT     H112509   4.104   2.249   4.863
 4089WAT     H212510   4.037   2.369   4.951
 4090WAT      O12511   5.346   6.824   1.727
 4090WAT     H112512   5.394   6.873   1.654
 4090WAT     H212513   5.400   6.746   1.757
 4091WAT      O12514   9.200   3.821   6.470
 4091WAT     H112515   9.174   3.809   6.566
 4091WAT     H212516   9.281   3.766   6.450
 4092WAT      O12517   7.910   5.702   3.651
 4092WAT     H112518   7.905   5.650   3.566
 4092WAT     H212519   7.855   5.656   3.721
 4093WAT      O12520   6.794   1.433   6.511
 4093WAT     H112521   6.846   1.392   6.586
 4093WAT     H212522   6.699   1.448   6.541
 4094WAT      O12523   8.067   2.973   8.464
 4094WAT     H112524   8.079   2.876   8.442
 4094WAT     H212525   8.085   3.028   8.382
 4095WAT      O12526   1.312   6.815   0.761
 4095WAT     H112527   1.407   6.784   0.775
 4095WAT     H212528   1.250   6.741   0.785
 4096WAT      O12529   3.729   2.966   9.722
 4096WAT     H112530   3.778   2.928   9.801
 4096WAT     H212531   3.790   3.026   9.671
 4097WAT      O12532   6.599   1.189   7.189
 4097WAT     H112533   6.559   1.222   7.104
 4097WAT     H212534   6.526   1.155   7.249
 4098WAT      O12535   5.961   5.937   5.780
 4098WAT     H112536   5.943   5.955   5.684
 4098WAT     H212537   6.059   5.927   5.795
 4099WAT      O12538   0.442   1.714   6.123
 4099WAT     H112539   0.496   1.741   6.203
 4099WAT     H212540   0.490   1.643   6.072
 4100WAT      O12541   6.314   3.839   0.630
 4100WAT     H112542   6.382   3.891   0.681
 4100WAT     H212543   6.240   3.812   0.691
 4101WAT      O12544   8.615   3.722   7.967
 4101WAT     H112545   8.658   3.680   7.887
 4101WAT     H212546   8.669   3.701   8.049
 4102WAT      O12547   8.895   7.963   7.479
 4102WAT     H112548   8.873   8.049   7.432
 4102WAT     H212549   8.876   7.886   7.419
 4103WAT      O12550   9.619   2.678   9.532
 4103WAT     H112551   9.568   2.761   9.511
 4103WAT     H212552   9.713   2.687   9.498
 4104WAT      O12553   2.276   2.672   0.220
 4104WAT     H112554   2.353   2.701   0.164
 4104WAT     H212555   2.260   2.739   0.293
 4105WAT      O12556   2.895   9.750   3.667
 4105WAT     H112557   2.893   9.723   3.571
 4105WAT     H212558   2.917   9.670   3.723
 4106WAT      O12559   0.985   7.203   7.252
 4106WAT     H112560   0.935   7.287   7.231
 4106WAT     H212561   1.046   7.180   7.176
 4107WAT      O12562   4.403   6.021   9.115
 4107WAT     H112563   4.451   6.094   9.066
 4107WAT     H212564   4.342   6.061   9.183
 4108WAT      O12565   0.361   2.565   7.980
 4108WAT     H112566   0.453   2.564   8.019
 4108WAT     H212567   0.294   2.547   8.052
 4109WAT      O12568   2.794   6.057   2.925
 4109WAT     H112569   2.795   6.135   2.863
 4109WAT     H212570   2.791   6.089   3.019
 4110WAT      O12571   3.233   1.279   2.915
 4110WAT     H112572   3.217   1.185   2.947
 4110WAT     H212573   3.160   1.304   2.851
 4111WAT      O12574   1.329   7.141   0.377
 4111WAT     H112575   1.371   7.232   0.385
 4111WAT     H212576   1.335   7.111   0.282
 4112WAT      O12577   3.077   9.358   8.001
 4112WAT     H112578   3.139   9.403   7.936
 4112WAT     H212579   3.001   9.317   7.952
 4113WAT      O12580   2.898   8.560   3.383
 4113WAT     H112581   2.932   8.473   3.348
 4113WAT     H212582   2.925   8.569   3.479
 4114WAT      O12583   9.435   6.702   5.400
 4114WAT     H112584   9.430   6.722   5.302
 4114WAT     H212585   9.401   6.610   5.417
 4115WAT      O12586   9.459   1.468   2.904
 4115WAT     H112587   9.447   1.370   2.888
 4115WAT     H212588   9.554   1.494   2.884
 4116WAT      O12589   4.777   0.760   2.428
 4116WAT     H112590   4.685   0.753   2.390
 4116WAT     H212591   4.812   0.852   2.414
 4117WAT      O12592   6.912   5.770   8.013
 4117WAT     H112593   6.818   5.759   7.978
 4117WAT     H212594   6.966   5.820   7.946
 4118WAT      O12595   2.291   9.686   3.742
 4118WAT     H112596   2.382   9.709   3.777
 4118WAT     H212597   2.250   9.768   3.702
 4119WAT      O12598   4.451   5.162   9.678
 4119WAT     H112599   4.352   5.176   9.690
 4119WAT     H212600   4.481   5.088   9.738
 4120WAT      O12601   7.698   8.611   7.791
 4120WAT     H112602   7.793   8.630   7.763
 4120WAT     H212603   7.636   8.648   7.722
 4121WAT      O12604   8.076   8.877   5.024
 4121WAT     H112605   8.135   8.874   4.944
 4121WAT     H212606   8.010   8.951   5.014
 4122WAT      O12607   9.760   2.070   7.736
 4122WAT     H112608   9.714   2.112   7.815
 4122WAT     H212609   9.844   2.120   7.716
 4123WAT      O12610   8.533   2.015   5.777
 4123WAT     H112611   8.572   1.928   5.744
 4123WAT     H212612   8.475   2.054   5.705
 4124WAT      O12613   7.848   5.662   5.007
 4124WAT     H112614   7.841   5.761   5.024
 4124WAT     H212615   7.936   5.642   4.964
 4125WAT      O12616   1.087   5.902   2.079
 4125WAT     H112617   1.132   5.987   2.055
 4125WAT     H212618   1.076   5.897   2.179
 4126WAT      O12619   4.686   0.284   5.943
 4126WAT     H112620   4.731   0.200   5.973
 4126WAT     H212621   4.641   0.327   6.020
 4127WAT      O12622   7.147   1.169   7.414
 4127WAT     H112623   7.207   1.171   7.494
 4127WAT     H212624   7.197   1.132   7.336
 4128WAT      O12625   5.991   7.941   5.939
 4128WAT     H112626   5.916   7.971   5.879
 4128WAT     H212627   5.973   7.974   6.032
 4129WAT      O12628   1.546   3.370   7.316
 4129WAT     H112629   1.595   3.454   7.340
 4129WAT     H212630   1.599   3.291   7.346
 4130WAT      O12631   5.863   1.372   4.604
 4130WAT     H112632   5.888   1.308   4.677
 4130WAT     H212633   5.858   1.323   4.517
 4131WAT      O12634   5.311   7.338   4.220
 4131WAT     H112635   5.276   7.294   4.138
 4131WAT     H212636   5.344   7.268   4.284
 4132WAT      O12637   6.297   2.574   8.110
 4132WAT     H112638   6.357   2.633   8.057
 4132WAT     H212639   6.317   2.478   8.089
 4133WAT      O12640   6.216   4.432   5.256
 4133WAT     H112641   6.207   4.337   5.225
 4133WAT     H212642   6.313   4.454   5.265
 4134WAT      O12643   5.922   6.659   6.788
 4134WAT     H112644   5.855   6.631   6.719
 4134WAT     H212645   5.992   6.588   6.796
 4135WAT      O12646   4.329   3.250   3.526
 4135WAT     H112647   4.372   3.185   3.464
 4135WAT     H212648   4.239   3.216   3.553
 4136WAT      O12649   8.261   8.046   0.456
 4136WAT     H112650   8.204   8.010   0.383
 4136WAT     H212651   8.287   8.140   0.436
 4137WAT      O12652   2.835   7.559   4.437
 4137WAT     H112653   2.803   7.634   4.494
 4137WAT     H212654   2.772   7.546   4.360
 4138WAT      O12655   0.908   9.762   7.548
 4138WAT     H112656   0.924   9.727   7.641
 4138WAT     H212657   0.921   9.861   7.547
 4139WAT      O12658   2.766   3.257   2.835
 4139WAT     H112659   2.683   3.310   2.851
 4139WAT     H212660   2.774   3.237   2.737
 4140WAT      O12661   6.178   0.071   8.653
 4140WAT     H112662   6.240   0.123   8.594
 4140WAT     H212663   6.230   0.031   8.728
 4141WAT      O12664   6.024   8.202   3.731
 4141WAT     H112665   6.095   8.144   3.772
 4141WAT     H212666   5.946   8.207   3.793
 4142WAT      O12667   4.528   5.661   6.852
 4142WAT     H112668   4.560   5.567   6.840
 4142WAT     H212669   4.571   5.720   6.784
 4143WAT      O12670   2.343   2.126   5.695
 4143WAT     H112671   2.305   2.133   5.787
 4143WAT     H212672   2.442   2.135   5.698
 4144WAT      O12673   2.437   6.453   4.132
 4144WAT     H112674   2.434   6.359   4.097
 4144WAT     H212675   2.439   6.450   4.232
 4145WAT      O12676   2.228   1.933   6.847
 4145WAT     H112677   2.230   1.927   6.947
 4145WAT     H212678   2.295   1.869   6.809
 4146WAT      O12679   9.684   2.954   0.313
 4146WAT     H112680   9.677   3.054   0.310
 4146WAT     H212681   9.704   2.925   0.406
 4147WAT      O12682   1.930   9.766   1.284
 4147WAT     H112683   1.969   9.712   1.358
 4147WAT     H212684   1.918   9.709   1.203
 4148WAT      O12685   6.766   0.167   8.173
 4148WAT     H112686   6.688   0.122   8.215
 4148WAT     H212687   6.795   0.116   8.092
 4149WAT      O12688   2.450   9.834   4.706
 4149WAT     H112689   2.498   9.779   4.775
 4149WAT     H212690   2.376   9.886   4.750
 4150WAT      O12691   7.596   2.611   6.391
 4150WAT     H112692   7.562   2.527   6.432
 4150WAT     H212693   7.690   2.628   6.423
 4151WAT      O12694   4.092   9.238   0.351
 4151WAT     H112695   4.028   9.161   0.342
 4151WAT     H212696   4.179   9.205   0.386
 4152WAT      O12697   3.113   7.241   6.998
 4152WAT     H112698   3.187   7.180   6.969
 4152WAT     H212699   3.036   7.230   6.935
 4153WAT      O12700   6.991   8.658   4.647
 4153WAT     H112701   7.010   8.614   4.735
 4153WAT     H212702   7.029   8.750   4.648
 4154WAT      O12703   4.367   6.888   8.025
 4154WAT     H112704   4.390   6.984   8.042
 4154WAT     H212705   4.331   6.847   8.109
 4155WAT      O12706   5.936   4.744   9.027
 4155WAT     H112707   5.863   4.779   9.086
 4155WAT     H212708   6.023   4.784   9.056
 4156WAT      O12709   8.602   4.157   9.811
 4156WAT     H112710   8.597   4.221   9.735
 4156WAT     H212711   8.513   4.112   9.823
 4157WAT      O12712   7.152   5.762   7.294
 4157WAT     H112713   7.118   5.833   7.357
 4157WAT     H212714   7.201   5.805   7.219
 4158WAT      O12715   6.355   1.950   0.159
 4158WAT     H112716   6.320   1.953   0.253
 4158WAT     H212717   6.283   1.980   0.096
 4159WAT      O12718   2.087   2.492   5.624
 4159WAT     H112719   2.184   2.476   5.607
 4159WAT     H212720   2.057   2.435   5.701
 4160WAT      O12721   4.738   3.215   6.874
 4160WAT     H112722   4.817   3.154   6.875
 4160WAT     H212723   4.764   3.304   6.912
 4161WAT      O12724   8.278   1.343   3.922
 4161WAT     H112725   8.198   1.340   3.982
 4161WAT     H212726   8.357   1.376   3.973
 4162WAT      O12727   3.353   1.394   4.815
 4162WAT     H112728   3.313   1.465   4.874
 4162WAT     H212729   3.322   1.304   4.845
 4163WAT      O12730   5.796   3.402   3.915
 4163WAT     H112731   5.857   3.333   3.952
 4163WAT     H212732   5.830   3.493   3.939
 4164WAT      O12733   7.322   8.337   7.908
 4164WAT     H112734   7.273   8.254   7.937
 4164WAT     H212735   7.312   8.407   7.978
 4165WAT      O12736   7.786   9.127   8.357
 4165WAT     H112737   7.737   9.102   8.274
 4165WAT     H212738   7.816   9.222   8.350
 4166WAT      O12739   4.362   5.439   1.975
 4166WAT     H112740   4.397   5.532   1.989
 4166WAT     H212741   4.376   5.412   1.880
 4167WAT      O12742   2.558   1.655   5.693
 4167WAT     H112743   2.486   1.706   5.739
 4167WAT     H212744   2.601   1.592   5.757
 4168WAT      O12745   7.431   1.888   4.155
 4168WAT     H112746   7.454   1.792   4.137
 4168WAT     H212747   7.398   1.897   4.249
 4169WAT      O12748   6.917   0.145   9.334
 4169WAT     H112749   6.863   0.064   9.310
 4169WAT     H212750   6.898   0.169   9.430
 4170WAT      O12751   0.984   8.269   7.075
 4170WAT     H112752   0.950   8.177   7.094
 4170WAT     H212753   0.941   8.303   6.991
 4171WAT      O12754   2.384   0.688   7.746
 4171WAT     H112755   2.438   0.712   7.827
 4171WAT     H212756   2.295   0.734   7.750
 4172WAT      O12757   9.080   8.558   2.310
 4172WAT     H112758   9.140   8.478   2.305
 4172WAT     H212759   9.019   8.560   2.231
 4173WAT      O12760   6.292   7.246   7.105
 4173WAT     H112761   6.218   7.226   7.040
 4173WAT     H212762   6.368   7.183   7.089
 4174WAT      O12763   5.921   0.213   2.631
 4174WAT     H112764   5.967   0.302   2.627
 4174WAT     H212765   5.960   0.158   2.704
 4175WAT      O12766   4.040   0.055   0.480
 4175WAT     H112767   4.127   0.072   0.434
 4175WAT     H212768   4.029  -0.043   0.494
 4176WAT      O12769   2.412   4.608   2.283
 4176WAT     H112770   2.326   4.640   2.322
 4176WAT     H212771   2.481   4.680   2.290
 4177WAT      O12772   5.024   5.740   2.906
 4177WAT     H112773   4.977   5.824   2.935
 4177WAT     H212774   5.042   5.683   2.986
 4178WAT      O12775   2.307   9.668   6.199
 4178WAT     H112776   2.270   9.624   6.117
 4178WAT     H212777   2.274   9.763   6.203
 4179WAT      O12778   3.896   6.624   2.740
 4179WAT     H112779   3.809   6.589   2.777
 4179WAT     H212780   3.929   6.698   2.798
 4180WAT      O12781   0.655   0.981   9.318
 4180WAT     H112782   0.684   1.033   9.398
 4180WAT     H212783   0.612   1.043   9.252
 4181WAT      O12784   3.589   9.802   1.782
 4181WAT     H112785   3.521   9.732   1.765
 4181WAT     H212786   3.575   9.842   1.873
 4182WAT      O12787   0.469   1.230   2.342
 4182WAT     H112788   0.428   1.217   2.252
 4182WAT     H212789   0.521   1.316   2.344
 4183WAT      O12790   9.750   3.293   8.900
 4183WAT     H112791   9.818   3.366   8.895
 4183WAT     H212792   9.726   3.263   8.808
 4184WAT      O12793   2.676   2.768   7.608
 4184WAT     H112794   2.606   2.743   7.676
 4184WAT     H212795   2.761   2.792   7.654
 4185WAT      O12796   8.139   4.427   6.367
 4185WAT     H112797   8.143   4.332   6.335
 4185WAT     H212798   8.192   4.435   6.452
 4186WAT      O12799   7.673   6.699   9.167
 4186WAT     H112800   7.733   6.665   9.240
 4186WAT     H212801   7.692   6.648   9.083
 4187WAT      O12802   5.103   9.312   0.798
 4187WAT     H112803   5.123   9.360   0.713
 4187WAT     H212804   5.132   9.369   0.875
 4188WAT      O12805   2.350   2.974   2.816
 4188WAT     H112806   2.321   2.903   2.752
 4188WAT     H212807   2.361   2.935   2.907
 4189WAT      O12808   3.051   7.103   5.897
 4189WAT     H112809   3.114   7.145   5.832
 4189WAT     H212810   3.064   7.004   5.897
 4190WAT      O12811   8.333   2.418   8.750
 4190WAT     H112812   8.425   2.386   8.728
 4190WAT     H212813   8.327   2.439   8.847
 4191WAT      O12814   2.594   2.598   2.126
 4191WAT     H112815   2.588   2.503   2.155
 4191WAT     H212816   2.611   2.656   2.205
 4192WAT      O12817   1.669   2.322   5.603
 4192WAT     H112818   1.719   2.247   5.646
 4192WAT     H212819   1.734   2.387   5.564
 4193WAT      O12820   0.712   9.421   2.668
 4193WAT     H112821   0.712   9.322   2.679
 4193WAT     H212822   0.684   9.464   2.755
 4194WAT      O12823   6.846   4.169   7.703
 4194WAT     H112824   6.867   4.252   7.652
 4194WAT     H212825   6.927   4.111   7.708
 4195WAT      O12826   9.255   9.222   6.310
 4195WAT     H112827   9.251   9.199   6.408
 4195WAT     H212828   9.336   9.279   6.293
 4196WAT      O12829   3.101   7.482   1.798
 4196WAT     H112830   3.157   7.497   1.716
 4196WAT     H212831   3.097   7.384   1.819
 4197WAT      O12832   2.214   3.390   2.790
 4197WAT     H112833   2.142   3.429   2.847
 4197WAT     H212834   2.274   3.464   2.757
 4198WAT      O12835   2.458   1.312   8.578
 4198WAT     H112836   2.363   1.306   8.545
 4198WAT     H212837   2.520   1.294   8.502
 4199WAT      O12838   6.043   3.010   2.298
 4199WAT     H112839   6.059   3.013   2.199
 4199WAT     H212840   5.959   2.958   2.316
 4200WAT      O12841   0.060   6.530   6.954
 4200WAT     H112842   0.158   6.551   6.961
 4200WAT     H212843   0.030   6.487   7.039
 4201WAT      O12844   7.707   1.506   7.897
 4201WAT     H112845   7.687   1.573   7.969
 4201WAT     H212846   7.622   1.483   7.848
 4202WAT      O12847   3.290   3.321   4.196
 4202WAT     H112848   3.385   3.291   4.195
 4202WAT     H212849   3.256   3.326   4.103
 4203WAT      O12850   2.865   1.555   9.061
 4203WAT     H112851   2.850   1.588   9.154
 4203WAT     H212852   2.881   1.633   9.000
 4204WAT      O12853   2.875   3.004   4.969
 4204WAT     H112854   2.842   3.095   4.944
 4204WAT     H212855   2.951   3.013   5.033
 4205WAT      O12856   7.246   3.120   6.542
 4205WAT     H112857   7.177   3.049   6.528
 4205WAT     H212858   7.327   3.080   6.586
 4206WAT      O12859   5.255   6.234   6.949
 4206WAT     H112860   5.189   6.305   6.924
 4206WAT     H212861   5.348   6.270   6.942
 4207WAT      O12862   6.292   0.182   6.069
 4207WAT     H112863   6.353   0.131   6.008
 4207WAT     H212864   6.288   0.137   6.158
 4208WAT      O12865   4.948   2.544   4.227
 4208WAT     H112866   4.910   2.475   4.165
 4208WAT     H212867   4.975   2.500   4.313
 4209WAT      O12868   1.394   3.266   5.140
 4209WAT     H112869   1.309   3.213   5.143
 4209WAT     H212870   1.406   3.315   5.226
 4210WAT      O12871   0.702   6.679   6.548
 4210WAT     H112872   0.722   6.692   6.450
 4210WAT     H212873   0.782   6.638   6.592
 4211WAT      O12874   3.307   0.963   6.329
 4211WAT     H112875   3.217   0.939   6.292
 4211WAT     H212876   3.324   0.911   6.413
 4212WAT      O12877   5.013   9.451   8.659
 4212WAT     H112878   4.976   9.366   8.695
 4212WAT     H212879   4.938   9.515   8.641
 4213WAT      O12880   2.923   5.596   0.725
 4213WAT     H112881   2.994   5.636   0.782
 4213WAT     H212882   2.933   5.496   0.724
 4214WAT      O12883   5.627   0.429   6.840
 4214WAT     H112884   5.531   0.452   6.822
 4214WAT     H212885   5.643   0.426   6.939
 4215WAT      O12886   4.783   2.638   3.402
 4215WAT     H112887   4.840   2.564   3.437
 4215WAT     H212888   4.814   2.662   3.309
 4216WAT      O12889   8.939   1.838   8.289
 4216WAT     H112890   8.910   1.881   8.204
 4216WAT     H212891   8.904   1.745   8.294
 4217WAT      O12892   6.168   7.255   3.459
 4217WAT     H112893   6.074   7.220   3.464
 4217WAT     H212894   6.170   7.335   3.399
 4218WAT      O12895   3.601   3.110   4.892
 4218WAT     H112896   3.691   3.141   4.862
 4218WAT     H212897   3.604   3.011   4.910
 4219WAT      O12898   8.947   7.972   8.640
 4219WAT     H112899   9.040   7.999   8.615
 4219WAT     H212900   8.904   8.046   8.693
 4220WAT      O12901   7.216   1.599   1.687
 4220WAT     H112902   7.123   1.564   1.696
 4220WAT     H212903   7.264   1.549   1.614
 4221WAT      O12904   4.755   0.261   1.307
 4221WAT     H112905   4.853   0.244   1.314
 4221WAT     H212906   4.716   0.270   1.399
 4222WAT      O12907   0.533   3.199   3.813
 4222WAT     H112908   0.613   3.139   3.816
 4222WAT     H212909   0.472   3.170   3.739
 4223WAT      O12910   7.365   7.968   2.075
 4223WAT     H112911   7.429   8.045   2.072
 4223WAT     H212912   7.286   7.987   2.017
 4224WAT      O12913   2.793   5.890   8.736
 4224WAT     H112914   2.741   5.805   8.743
 4224WAT     H212915   2.878   5.882   8.789
 4225WAT      O12916   0.158   0.696   3.116
 4225WAT     H112917   0.075   0.650   3.147
 4225WAT     H212918   0.142   0.740   3.028
 4226WAT      O12919   6.024   5.519   6.221
 4226WAT     H112920   5.982   5.606   6.249
 4226WAT     H212921   5.987   5.445   6.277
 4227WAT      O12922   4.131   3.896   0.628
 4227WAT     H112923   4.043   3.849   0.626
 4227WAT     H212924   4.155   3.918   0.722
 4228WAT      O12925   9.223   1.560   4.478
 4228WAT     H112926   9.201   1.653   4.507
 4228WAT     H212927   9.268   1.512   4.554
 4229WAT      O12928   5.498   6.872   9.246
 4229WAT     H112929   5.439   6.850   9.324
 4229WAT     H212930   5.493   6.799   9.178
 4230WAT      O12931   5.597   7.605   3.270
 4230WAT     H112932   5.503   7.580   3.292
 4230WAT     H212933   5.622   7.565   3.182
 4231WAT      O12934   0.715   9.503   8.526
 4231WAT     H112935   0.667   9.432   8.475
 4231WAT     H212936   0.659   9.586   8.528
 4232WAT      O12937   1.955   1.394   7.560
 4232WAT     H112938   1.944   1.297   7.540
 4232WAT     H212939   2.035   1.408   7.620
 4233WAT      O12940   5.165   4.852   8.123
 4233WAT     H112941   5.073   4.824   8.096
 4233WAT     H212942   5.180   4.829   8.220
 4234WAT      O12943   0.719   4.424   9.651
 4234WAT     H112944   0.667   4.472   9.581
 4234WAT     H212945   0.745   4.333   9.616
 4235WAT      O12946   6.346   9.461   1.041
 4235WAT     H112947   6.431   9.512   1.054
 4235WAT     H212948   6.366   9.363   1.034
 4236WAT      O12949   5.930   8.735   5.520
 4236WAT     H112950   6.007   8.689   5.563
 4236WAT     H212951   5.847   8.721   5.574
 4237WAT      O12952   2.450   9.163   4.514
 4237WAT     H112953   2.440   9.234   4.583
 4237WAT     H212954   2.472   9.076   4.559
 4238WAT      O12955   1.495   3.153   9.341
 4238WAT     H112956   1.591   3.181   9.337
 4238WAT     H212957   1.456   3.179   9.429
 4239WAT      O12958   1.556   4.156   5.858
 4239WAT     H112959   1.639   4.109   5.890
 4239WAT     H212960   1.565   4.173   5.760
 4240WAT      O12961   6.477   5.500   4.612
 4240WAT     H112962   6.472   5.531   4.707
 4240WAT     H212963   6.393   5.453   4.587
 4241WAT      O12964   1.726   2.672   2.376
 4241WAT     H112965   1.792   2.627   2.436
 4241WAT     H212966   1.774   2.731   2.312
 4242WAT      O12967   0.032   7.707   7.307
 4242WAT     H112968   0.037   7.612   7.275
 4242WAT     H212969   0.108   7.758   7.267
 4243WAT      O12970   6.517   4.794   5.294
 4243WAT     H112971   6.484   4.864   5.230
 4243WAT     H212972   6.596   4.830   5.344
 4244WAT      O12973   7.357   2.798   6.533
 4244WAT     H112974   7.258   2.806   6.550
 4244WAT     H212975   7.372   2.765   6.440
 4245WAT      O12976   0.694   6.203   4.657
 4245WAT     H112977   0.726   6.293   4.685
 4245WAT     H212978   0.615   6.177   4.713
 4246WAT      O12979   0.580   4.029   6.195
 4246WAT     H112980   0.550   3.994   6.107
 4246WAT     H212981   0.509   4.087   6.234
 4247WAT      O12982   7.086   5.155   1.400
 4247WAT     H112983   7.119   5.123   1.488
 4247WAT     H212984   6.996   5.116   1.381
 4248WAT      O12985   9.710   8.168   1.473
 4248WAT     H112986   9.790   8.189   1.416
 4248WAT     H212987   9.678   8.075   1.453
 4249WAT      O12988   5.173   8.245   7.324
 4249WAT     H112989   5.263   8.248   7.367
 4249WAT     H212990   5.103   8.270   7.391
 4250WAT      O12991   1.851   9.830   3.660
 4250WAT     H112992   1.858   9.902   3.591
 4250WAT     H212993   1.758   9.829   3.697
 4251WAT      O12994   6.148   4.905   5.448
 4251WAT     H112995   6.202   4.828   5.483
 4251WAT     H212996   6.188   4.938   5.362
 4252WAT      O12997   3.191   0.599   4.922
 4252WAT     H112998   3.156   0.512   4.959
 4252WAT     H212999   3.138   0.624   4.841
 4253WAT      O13000   0.987   4.305   6.730
 4253WAT     H113001   0.909   4.331   6.788
 4253WAT     H213002   1.054   4.255   6.785
 4254WAT      O13003   1.788   3.766   3.574
 4254WAT     H113004   1.793   3.669   3.601
 4254WAT     H213005   1.732   3.816   3.640
 4255WAT      O13006   4.894   5.031   4.241
 4255WAT     H113007   4.954   5.111   4.236
 4255WAT     H213008   4.798   5.061   4.236
 4256WAT      O13009   2.367   0.897   8.823
 4256WAT     H113010   2.379   0.801   8.798
 4256WAT     H213011   2.423   0.955   8.763
 4257WAT      O13012   3.577   2.672   2.865
 4257WAT     H113013   3.581   2.764   2.903
 4257WAT     H213014   3.598   2.676   2.767
 4258WAT      O13015   0.898   6.477   7.441
 4258WAT     H113016   0.865   6.471   7.346
 4258WAT     H213017   0.913   6.573   7.464
 4259WAT      O13018   4.793   1.707   4.746
 4259WAT     H113019   4.743   1.741   4.825
 4259WAT     H213020   4.729   1.665   4.682
 4260WAT      O13021   6.591   5.382   3.149
 4260WAT     H113022   6.652   5.403   3.225
 4260WAT     H213023   6.602   5.451   3.078
 4261WAT      O13024   0.627   4.614   4.886
 4261WAT     H113025   0.682   4.533   4.865
 4261WAT     H213026   0.604   4.614   4.983
 4262WAT      O13027   2.998   6.182   0.485
 4262WAT     H113028   2.933   6.215   0.417
 4262WAT     H213029   3.044   6.100   0.450
 4263WAT      O13030   7.050   2.692   1.042
 4263WAT     H113031   6.951   2.682   1.047
 4263WAT     H213032   7.075   2.745   0.961
 4264WAT      O13033   7.604   7.632   5.578
 4264WAT     H113034   7.523   7.662   5.527
 4264WAT     H213035   7.638   7.707   5.635
 4265WAT      O13036   9.598   8.983   9.553
 4265WAT     H113037   9.642   8.898   9.582
 4265WAT     H213038   9.534   9.013   9.625
 4266WAT      O13039   2.472   2.661   5.124
 4266WAT     H113040   2.382   2.689   5.091
 4266WAT     H213041   2.466   2.570   5.164
 4267WAT      O13042   8.850   8.845   1.056
 4267WAT     H113043   8.807   8.923   1.011
 4267WAT     H213044   8.782   8.773   1.071
 4268WAT      O13045   4.786   8.539   0.632
 4268WAT     H113046   4.879   8.523   0.599
 4268WAT     H213047   4.774   8.635   0.656
 4269WAT      O13048   0.727   5.425   0.886
 4269WAT     H113049   0.728   5.523   0.866
 4269WAT     H213050   0.643   5.401   0.933
 4270WAT      O13051   3.040   1.397   4.290
 4270WAT     H113052   2.958   1.440   4.251
 4270WAT     H213053   3.040   1.409   4.389
 4271WAT      O13054   9.370   5.555   2.616
 4271WAT     H113055   9.450   5.599   2.576
 4271WAT     H213056   9.339   5.481   2.557
 4272WAT      O13057   9.001   5.108   7.413
 4272WAT     H113058   8.952   5.024   7.434
 4272WAT     H213059   8.982   5.176   7.484
 4273WAT      O13060   5.906   8.310   4.229
 4273WAT     H113061   5.866   8.221   4.204
 4273WAT     H213062   5.836   8.367   4.272
 4274WAT      O13063   8.154   8.812   3.795
 4274WAT     H113064   8.144   8.907   3.824
 4274WAT     H213065   8.246   8.797   3.759
 4275WAT      O13066   0.274   2.213   8.669
 4275WAT     H113067   0.361   2.243   8.709
 4275WAT     H213068   0.199   2.261   8.715
 4276WAT      O13069   9.710   0.421   1.201
 4276WAT     H113070   9.684   0.510   1.164
 4276WAT     H213071   9.629   0.363   1.209
 4277WAT      O13072   6.389   2.884   5.068
 4277WAT     H113073   6.434   2.952   5.126
 4277WAT     H213074   6.454   2.847   5.002
 4278WAT      O13075   4.595   1.714   1.904
 4278WAT     H113076   4.599   1.636   1.966
 4278WAT     H213077   4.523   1.777   1.934
 4279WAT      O13078   2.222   0.562   6.965
 4279WAT     H113079   2.180   0.496   7.028
 4279WAT     H213080   2.311   0.591   7.001
 4280WAT      O13081   2.634   0.960   9.540
 4280WAT     H113082   2.653   0.865   9.519
 4280WAT     H213083   2.691   1.019   9.482
 4281WAT      O13084   7.399   8.805   2.732
 4281WAT     H113085   7.345   8.859   2.796
 4281WAT     H213086   7.445   8.866   2.668
 4282WAT      O13087   5.661   0.421   2.517
 4282WAT     H113088   5.579   0.434   2.461
 4282WAT     H213089   5.642   0.354   2.589
 4283WAT      O13090   6.856   0.682   2.344
 4283WAT     H113091   6.787   0.754   2.340
 4283WAT     H213092   6.938   0.712   2.294
 4284WAT      O13093   9.648   6.595   1.139
 4284WAT     H113094   9.626   6.620   1.234
 4284WAT     H213095   9.687   6.673   1.092
 4285WAT      O13096   3.170   5.215   4.631
 4285WAT     H113097   3.146   5.171   4.544
 4285WAT     H213098   3.201   5.147   4.696
 4286WAT      O13099   1.348   8.661   2.452
 4286WAT     H113100   1.352   8.735   2.519
 4286WAT     H213101   1.259   8.615   2.459
 4287WAT      O13102   9.762   0.798   3.256
 4287WAT     H113103   9.820   0.861   3.204
 4287WAT     H213104   9.680   0.777   3.202
 4288WAT      O13105   7.834   0.165   0.892
 4288WAT     H113106   7.788   0.252   0.907
 4288WAT     H213107   7.777   0.107   0.833
 4289WAT      O13108   3.456   7.048   6.177
 4289WAT     H113109   3.553   7.060   6.195
 4289WAT     H213110   3.421   7.127   6.126
 4290WAT      O13111   8.330   3.032   1.164
 4290WAT     H113112   8.241   3.039   1.119
 4290WAT     H213113   8.361   3.124   1.190
 4291WAT      O13114   9.420   7.787   3.739
 4291WAT     H113115   9.457   7.700   3.708
 4291WAT     H213116   9.371   7.831   3.664
 4292WAT      O13117   2.886   5.287   4.775
 4292WAT     H113118   2.884   5.270   4.676
 4292WAT     H213119   2.943   5.367   4.794
 4293WAT      O13120   2.408   3.171   2.411
 4293WAT     H113121   2.415   3.179   2.510
 4293WAT     H213122   2.314   3.146   2.386
 4294WAT      O13123   0.166   1.148   2.913
 4294WAT     H113124   0.253   1.151   2.963
 4294WAT     H213125   0.094   1.114   2.974
 4295WAT      O13126   3.647   3.162   3.902
 4295WAT     H113127   3.556   3.123   3.914
 4295WAT     H213128   3.644   3.260   3.918
 4296WAT      O13129   6.481   8.721   8.885
 4296WAT     H113130   6.515   8.804   8.841
 4296WAT     H213131   6.431   8.666   8.818
 4297WAT      O13132   5.797   9.302   5.775
 4297WAT     H113133   5.794   9.205   5.798
 4297WAT     H213134   5.763   9.316   5.682
 4298WAT      O13135   6.060   4.192   8.707
 4298WAT     H113136   6.136   4.185   8.772
 4298WAT     H213137   6.097   4.212   8.616
 4299WAT      O13138   9.334   1.514   6.192
 4299WAT     H113139   9.312   1.492   6.097
 4299WAT     H213140   9.254   1.499   6.250
 4300WAT      O13141   7.624   5.337   4.360
 4300WAT     H113142   7.547   5.389   4.398
 4300WAT     H213143   7.645   5.260   4.421
 4301WAT      O13144   9.490   4.622   6.776
 4301WAT     H113145   9.583   4.639   6.743
 4301WAT     H213146   9.487   4.635   6.875
 4302WAT      O13147   4.039   8.220   0.152
 4302WAT     H113148   4.017   8.317   0.145
 4302WAT     H213149   3.980   8.167   0.091
 4303WAT      O13150   3.599   3.050   6.524
 4303WAT     H113151   3.670   3.087   6.584
 4303WAT     H213152   3.509   3.082   6.553
 4304WAT      O13153   1.122   8.460   1.039
 4304WAT     H113154   1.069   8.383   1.073
 4304WAT     H213155   1.212   8.461   1.084
 4305WAT      O13156   6.468   1.853   1.316
 4305WAT     H113157   6.540   1.867   1.248
 4305WAT     H213158   6.501   1.789   1.386
 4306WAT      O13159   8.825   9.271   5.141
 4306WAT     H113160   8.817   9.189   5.197
 4306WAT     H213161   8.740   9.287   5.091
 4307WAT      O13162   0.650   5.697   0.238
 4307WAT     H113163   0.666   5.735   0.329
 4307WAT     H213164   0.576   5.747   0.194
 4308WAT      O13165   1.117   5.472   9.152
 4308WAT     H113166   1.195   5.525   9.185
 4308WAT     H213167   1.116   5.472   9.052
 4309WAT      O13168   0.766   5.929   3.824
 4309WAT     H113169   0.701   5.976   3.764
 4309WAT     H213170   0.808   5.852   3.775
 4310WAT      O13171   8.790   5.538   3.522
 4310WAT     H113172   8.795   5.620   3.578
 4310WAT     H213173   8.712   5.545   3.459
 4311WAT      O13174   6.176   0.389   1.975
 4311WAT     H113175   6.204   0.428   1.888
 4311WAT     H213176   6.255   0.383   2.036
 4312WAT      O13177   1.598   4.217   5.536
 4312WAT     H113178   1.585   4.187   5.442
 4312WAT     H213179   1.689   4.259   5.545
 4313WAT      O13180   9.156   8.481   1.602
 4313WAT     H113181   9.073   8.449   1.558
 4313WAT     H213182   9.150   8.466   1.701
 4314WAT      O13183   1.043   9.769   3.185
 4314WAT     H113184   1.113   9.760   3.114
 4314WAT     H213185   0.972   9.699   3.171
 4315WAT      O13186   0.185   3.788   0.384
 4315WAT     H113187   0.142   3.704   0.352
 4315WAT     H213188   0.279   3.793   0.349
 4316WAT      O13189   3.561   4.864   3.385
 4316WAT     H113190   3.633   4.857   3.454
 4316WAT     H213191   3.574   4.792   3.316
 4317WAT      O13192   2.160   1.224   7.759
 4317WAT     H113193   2.083   1.199   7.817
 4317WAT     H213194   2.226   1.277   7.813
 4318WAT      O13195   5.637   9.050   6.217
 4318WAT     H113196   5.612   9.082   6.126
 4318WAT     H213197   5.722   9.094   6.245
 4319WAT      O13198   1.884   4.138   0.512
 4319WAT     H113199   1.966   4.082   0.518
 4319WAT     H213200   1.843   4.147   0.603
 4320WAT      O13201   8.953   1.182   8.868
 4320WAT     H113202   9.013   1.261   8.857
 4320WAT     H213203   9.006   1.098   8.854
 4321WAT      O13204   8.260   1.311   1.878
 4321WAT     H113205   8.179   1.253   1.875
 4321WAT     H213206   8.317   1.284   1.956
 4322WAT      O13207   2.858   4.409   1.549
 4322WAT     H113208   2.833   4.350   1.473
 4322WAT     H213209   2.955   4.432   1.543
 4323WAT      O13210   7.431   3.695   0.706
 4323WAT     H113211   7.370   3.616   0.701
 4323WAT     H213212   7.526   3.665   0.705
 4324WAT      O13213   7.442   7.096   6.494
 4324WAT     H113214   7.344   7.098   6.473
 4324WAT     H213215   7.491   7.049   6.420
 4325WAT      O13216   4.084   4.120   5.047
 4325WAT     H113217   4.100   4.031   5.091
 4325WAT     H213218   4.146   4.131   4.970
 4326WAT      O13219   0.847   4.355   5.172
 4326WAT     H113220   0.826   4.448   5.202
 4326WAT     H213221   0.871   4.299   5.252
 4327WAT      O13222   9.057   1.133   7.985
 4327WAT     H113223   9.118   1.054   7.980
 4327WAT     H213224   9.055   1.180   7.897
 4328WAT      O13225   3.101   1.944   6.441
 4328WAT     H113226   3.162   1.959   6.519
 4328WAT     H213227   3.122   1.856   6.399
 4329WAT      O13228   8.557   1.036   0.952
 4329WAT     H113229   8.513   1.078   1.031
 4329WAT     H213230   8.547   1.095   0.872
 4330WAT      O13231   1.031   2.622   6.716
 4330WAT     H113232   0.989   2.709   6.690
 4330WAT     H213233   1.001   2.551   6.654
 4331WAT      O13234   1.725   3.336   2.627
 4331WAT     H113235   1.798   3.402   2.609
 4331WAT     H213236   1.764   3.250   2.658
 4332WAT      O13237   3.004   0.282   3.119
 4332WAT     H113238   2.965   0.193   3.143
 4332WAT     H213239   3.041   0.325   3.200
 4333WAT      O13240   5.201   7.865   6.265
 4333WAT     H113241   5.292   7.894   6.296
 4333WAT     H213242   5.209   7.822   6.175
 4334WAT      O13243   6.408   8.421   4.720
 4334WAT     H113244   6.347   8.494   4.688
 4334WAT     H213245   6.450   8.376   4.641
 4335WAT      O13246   1.635   4.223   5.233
 4335WAT     H113247   1.656   4.300   5.173
 4335WAT     H213248   1.706   4.153   5.224
 4336WAT      O13249   5.211   2.947   9.055
 4336WAT     H113250   5.228   3.015   9.126
 4336WAT     H213251   5.282   2.877   9.059
 4337WAT      O13252   7.567   4.048   8.822
 4337WAT     H113253   7.500   4.001   8.879
 4337WAT     H213254   7.529   4.136   8.791
 4338WAT      O13255   1.633   6.781   2.180
 4338WAT     H113256   1.614   6.859   2.239
 4338WAT     H213257   1.598   6.800   2.088
 4339WAT      O13258   7.883   9.573   4.386
 4339WAT     H113259   7.947   9.515   4.336
 4339WAT     H213260   7.865   9.656   4.333
 4340WAT      O13261   5.998   7.624   1.941
 4340WAT     H113262   6.074   7.679   1.906
 4340WAT     H213263   5.937   7.600   1.866
 4341WAT      O13264   5.235   0.382   4.835
 4341WAT     H113265   5.315   0.323   4.833
 4341WAT     H213266   5.253   0.466   4.783
 4342WAT      O13267   6.832   3.181   8.812
 4342WAT     H113268   6.913   3.240   8.813
 4342WAT     H213269   6.861   3.085   8.814
 4343WAT      O13270   0.087   1.811   2.832
 4343WAT     H113271   0.132   1.728   2.866
 4343WAT     H213272   0.006   1.831   2.888
 4344WAT      O13273   3.777   2.214   7.834
 4344WAT     H113274   3.692   2.266   7.825
 4344WAT     H213275   3.755   2.120   7.861
 4345WAT      O13276   8.710   7.780   8.132
 4345WAT     H113277   8.737   7.814   8.042
 4345WAT     H213278   8.768   7.821   8.202
 4346WAT      O13279   4.387   8.458   2.735
 4346WAT     H113280   4.354   8.370   2.699
 4346WAT     H213281   4.433   8.443   2.823
 4347WAT      O13282   1.233   8.020   0.813
 4347WAT     H113283   1.224   8.030   0.912
 4347WAT     H213284   1.157   8.066   0.768
 4348WAT      O13285   7.406   9.689   4.092
 4348WAT     H113286   7.411   9.783   4.058
 4348WAT     H213287   7.317   9.650   4.067
 4349WAT      O13288   2.093   8.404   4.993
 4349WAT     H113289   2.031   8.478   4.968
 4349WAT     H213290   2.176   8.442   5.034
 4350WAT      O13291   7.348   1.799   3.817
 4350WAT     H113292   7.389   1.891   3.818
 4350WAT     H213293   7.411   1.736   3.772
 4351WAT      O13294   5.374   8.516   3.958
 4351WAT     H113295   5.338   8.570   3.882
 4351WAT     H213296   5.301   8.499   4.024
 4352WAT      O13297   8.819   2.889   7.280
 4352WAT     H113298   8.915   2.882   7.308
 4352WAT     H213299   8.813   2.945   7.197
 4353WAT      O13300   3.293   4.189   8.093
 4353WAT     H113301   3.296   4.115   8.161
 4353WAT     H213302   3.269   4.152   8.004
 4354WAT      O13303   0.199   6.843   4.967
 4354WAT     H113304   0.231   6.775   4.900
 4354WAT     H213305   0.261   6.844   5.046
 4355WAT      O13306   7.738   5.195   6.154
 4355WAT     H113307   7.668   5.219   6.221
 4355WAT     H213308   7.783   5.110   6.182
 4356WAT      O13309   3.155   8.334   8.194
 4356WAT     H113310   3.080   8.274   8.167
 4356WAT     H213311   3.228   8.281   8.237
 4357WAT      O13312   8.604   3.405   4.143
 4357WAT     H113313   8.637   3.375   4.232
 4357WAT     H213314   8.639   3.497   4.123
 4358WAT      O13315   3.606   3.432   6.319
 4358WAT     H113316   3.603   3.383   6.232
 4358WAT     H213317   3.525   3.492   6.326
 4359WAT      O13318   5.277   6.002   0.421
 4359WAT     H113319   5.261   5.913   0.464
 4359WAT     H213320   5.197   6.060   0.433
 4360WAT      O13321   5.187   5.833   3.152
 4360WAT     H113322   5.197   5.924   3.113
 4360WAT     H213323   5.275   5.787   3.153
 4361WAT      O13324   3.612   7.038   2.617
 4361WAT     H113325   3.539   7.005   2.558
 4361WAT     H213326   3.608   6.991   2.705
 4362WAT      O13327   8.607   0.824   8.655
 4362WAT     H113328   8.515   0.842   8.620
 4362WAT     H213329   8.622   0.879   8.737
 4363WAT      O13330   9.011   3.145   9.875
 4363WAT     H113331   8.943   3.149   9.948
 4363WAT     H213332   9.029   3.050   9.850
 4364WAT      O13333   1.611   5.256   3.104
 4364WAT     H113334   1.598   5.292   3.012
 4364WAT     H213335   1.522   5.238   3.146
 4365WAT      O13336   0.502   1.565   7.338
 4365WAT     H113337   0.476   1.656   7.305
 4365WAT     H213338   0.596   1.545   7.309
 4366WAT      O13339   2.442   9.213   0.028
 4366WAT     H113340   2.525   9.269   0.024
 4366WAT     H213341   2.363   9.270   0.006
 4367WAT      O13342   2.625   6.585   6.179
 4367WAT     H113343   2.565   6.545   6.247
 4367WAT     H213344   2.629   6.525   6.099
 4368WAT      O13345   9.212   3.797   6.807
 4368WAT     H113346   9.194   3.786   6.905
 4368WAT     H213347   9.308   3.822   6.793
 4369WAT      O13348   2.069   2.566   6.737
 4369WAT     H113349   2.035   2.546   6.829
 4369WAT     H213350   2.042   2.658   6.711
 4370WAT      O13351   1.638   0.579   3.713
 4370WAT     H113352   1.697   0.651   3.677
 4370WAT     H213353   1.657   0.493   3.665
 4371WAT      O13354   6.046   6.623   1.062
 4371WAT     H113355   5.964   6.681   1.064
 4371WAT     H213356   6.066   6.598   0.967
 4372WAT      O13357   2.310   5.837   3.243
 4372WAT     H113358   2.381   5.819   3.175
 4372WAT     H213359   2.347   5.823   3.335
 4373WAT      O13360   2.904   5.373   5.654
 4373WAT     H113361   2.999   5.342   5.665
 4373WAT     H213362   2.855   5.362   5.740
 4374WAT      O13363   5.701   2.859   8.317
 4374WAT     H113364   5.673   2.826   8.407
 4374WAT     H213365   5.758   2.941   8.328
 4375WAT      O13366   3.912   4.932   4.481
 4375WAT     H113367   3.890   5.028   4.461
 4375WAT     H213368   3.915   4.880   4.396
 4376WAT      O13369   8.834   0.411   6.652
 4376WAT     H113370   8.796   0.345   6.717
 4376WAT     H213371   8.759   0.461   6.608
 4377WAT      O13372   6.039   3.469   8.884
 4377WAT     H113373   6.099   3.390   8.871
 4377WAT     H213374   5.966   3.445   8.948
 4378WAT      O13375   0.378   1.340   7.046
 4378WAT     H113376   0.330   1.369   7.128
 4378WAT     H213377   0.388   1.240   7.046
 4379WAT      O13378   6.694   6.621   1.426
 4379WAT     H113379   6.764   6.688   1.402
 4379WAT     H213380   6.622   6.621   1.356
 4380WAT      O13381   6.243   9.038   3.092
 4380WAT     H113382   6.189   9.009   3.013
 4380WAT     H213383   6.256   9.137   3.089
 4381WAT      O13384   0.129   6.698   2.184
 4381WAT     H113385   0.202   6.644   2.226
 4381WAT     H213386   0.157   6.723   2.091
 4382WAT      O13387   6.763   1.126   6.894
 4382WAT     H113388   6.806   1.120   6.984
 4382WAT     H213389   6.664   1.123   6.904
 4383WAT      O13390   9.276   6.371   6.916
 4383WAT     H113391   9.327   6.313   6.980
 4383WAT     H213392   9.303   6.348   6.822
 4384WAT      O13393   5.939   3.223   3.399
 4384WAT     H113394   5.871   3.162   3.440
 4384WAT     H213395   6.030   3.184   3.413
 4385WAT      O13396   4.598   2.192   0.152
 4385WAT     H113397   4.533   2.262   0.122
 4385WAT     H213398   4.559   2.101   0.135
 4386WAT      O13399   4.455   0.895   5.726
 4386WAT     H113400   4.536   0.949   5.752
 4386WAT     H213401   4.423   0.924   5.636
 4387WAT      O13402   6.519   3.977   6.670
 4387WAT     H113403   6.422   3.973   6.693
 4387WAT     H213404   6.529   3.998   6.572
 4388WAT      O13405   1.126   1.150   5.449
 4388WAT     H113406   1.155   1.172   5.356
 4388WAT     H213407   1.118   1.051   5.459
 4389WAT      O13408   0.826   9.653   0.901
 4389WAT     H113409   0.917   9.640   0.939
 4389WAT     H213410   0.828   9.642   0.802
 4390WAT      O13411   7.047   3.347   8.797
 4390WAT     H113412   7.063   3.327   8.700
 4390WAT     H213413   7.135   3.352   8.845
 4391WAT      O13414   3.948   7.809   3.039
 4391WAT     H113415   4.038   7.847   3.060
 4391WAT     H213416   3.958   7.725   2.987
 4392WAT      O13417   3.302   7.351   0.417
 4392WAT     H113418   3.210   7.382   0.395
 4392WAT     H213419   3.297   7.272   0.479
 4393WAT      O13420   5.081   5.033   2.100
 4393WAT     H113421   5.103   4.986   2.186
 4393WAT     H213422   4.995   5.082   2.110
 4394WAT      O13423   7.566   6.630   3.337
 4394WAT     H113424   7.621   6.711   3.315
 4394WAT     H213425   7.509   6.607   3.258
 4395WAT      O13426   5.563   0.725   3.328
 4395WAT     H113427   5.488   0.791   3.330
 4395WAT     H213428   5.650   0.773   3.316
 4396WAT      O13429   4.801   1.340   8.960
 4396WAT     H113430   4.824   1.275   9.033
 4396WAT     H213431   4.702   1.338   8.944
 4397WAT      O13432   9.865   7.463   0.393
 4397WAT     H113433   9.773   7.426   0.377
 4397WAT     H213434   9.933   7.393   0.373
 4398WAT      O13435   6.248   1.896   2.228
 4398WAT     H113436   6.342   1.866   2.216
 4398WAT     H213437   6.190   1.818   2.251
 4399WAT      O13438   6.051   5.183   0.657
 4399WAT     H113439   6.150   5.184   0.670
 4399WAT     H213440   6.006   5.201   0.744
 4400WAT      O13441   0.962   8.018   1.856
 4400WAT     H113442   0.941   8.012   1.759
 4400WAT     H213443   0.997   8.109   1.876
 4401WAT      O13444   9.789   7.898   2.014
 4401WAT     H113445   9.842   7.884   1.931
 4401WAT     H213446   9.782   7.812   2.065
 4402WAT      O13447   0.601   8.366   0.825
 4402WAT     H113448   0.654   8.403   0.749
 4402WAT     H213449   0.662   8.321   0.890
 4403WAT      O13450   0.169   3.683   7.812
 4403WAT     H113451   0.250   3.737   7.834
 4403WAT     H213452   0.094   3.709   7.873
 4404WAT      O13453   9.625   6.329   1.829
 4404WAT     H113454   9.579   6.343   1.917
 4404WAT     H213455   9.563   6.356   1.755
 4405WAT      O13456   0.464   5.940   8.448
 4405WAT     H113457   0.521   6.017   8.419
 4405WAT     H213458   0.516   5.880   8.509
 4406WAT      O13459   2.037   3.430   1.684
 4406WAT     H113460   1.979   3.504   1.652
 4406WAT     H213461   2.102   3.405   1.613
 4407WAT      O13462   9.389   2.932   1.740
 4407WAT     H113463   9.437   2.926   1.827
 4407WAT     H213464   9.456   2.932   1.665
 4408WAT      O13465   7.292   2.045   1.516
 4408WAT     H113466   7.343   2.097   1.447
 4408WAT     H213467   7.205   2.092   1.535
 4409WAT      O13468   4.328   4.342   5.964
 4409WAT     H113469   4.308   4.434   5.931
 4409WAT     H213470   4.261   4.316   6.033
 4410WAT      O13471   3.282   0.391   9.069
 4410WAT     H113472   3.296   0.313   9.007
 4410WAT     H213473   3.199   0.375   9.123
 4411WAT      O13474   0.711   1.462   1.884
 4411WAT     H113475   0.625   1.490   1.926
 4411WAT     H213476   0.699   1.374   1.838
 4412WAT      O13477   7.221   0.945   8.132
 4412WAT     H113478   7.204   0.929   8.035
 4412WAT     H213479   7.253   1.038   8.146
 4413WAT      O13480   1.820   9.372   5.295
 4413WAT     H113481   1.760   9.326   5.360
 4413WAT     H213482   1.806   9.471   5.301
 4414WAT      O13483   0.343   3.973   2.423
 4414WAT     H113484   0.297   4.036   2.360
 4414WAT     H213485   0.349   4.015   2.514
 4415WAT      O13486   9.341   0.962   7.344
 4415WAT     H113487   9.340   0.976   7.443
 4415WAT     H213488   9.434   0.941   7.314
 4416WAT      O13489   1.749   6.703   3.931
 4416WAT     H113490   1.765   6.768   3.857
 4416WAT     H213491   1.675   6.735   3.988
 4417WAT      O13492   1.468   6.487   0.770
 4417WAT     H113493   1.407   6.444   0.703
 4417WAT     H213494   1.424   6.486   0.860
 4418WAT      O13495   9.435   5.695   6.752
 4418WAT     H113496   9.345   5.738   6.759
 4418WAT     H213497   9.477   5.689   6.842
 4419WAT      O13498   6.032   7.994   4.699
 4419WAT     H113499   6.013   7.975   4.603
 4419WAT     H213500   5.948   7.983   4.752
 4420WAT      O13501   4.697   4.290   7.707
 4420WAT     H113502   4.602   4.317   7.697
 4420WAT     H213503   4.737   4.338   7.786
 4421WAT      O13504   8.683   7.642   8.475
 4421WAT     H113505   8.759   7.587   8.440
 4421WAT     H213506   8.610   7.646   8.406
 4422WAT      O13507   0.781   3.341   3.894
 4422WAT     H113508   0.822   3.264   3.943
 4422WAT     H213509   0.695   3.312   3.853
 4423WAT      O13510   4.057   4.488   3.282
 4423WAT     H113511   4.106   4.528   3.360
 4423WAT     H213512   3.960   4.477   3.306
 4424WAT      O13513   2.935   5.598   5.476
 4424WAT     H113514   2.911   5.529   5.544
 4424WAT     H213515   3.029   5.628   5.491
 4425WAT      O13516   2.736   7.021   0.844
 4425WAT     H113517   2.692   6.937   0.876
 4425WAT     H213518   2.818   6.997   0.791
 4426WAT      O13519   9.058   2.953   3.754
 4426WAT     H113520   9.116   2.917   3.681
 4426WAT     H213521   9.003   3.029   3.719
 4427WAT      O13522   8.383   9.248   2.093
 4427WAT     H113523   8.478   9.265   2.117
 4427WAT     H213524   8.336   9.335   2.078
 4428WAT      O13525   7.954   1.145   6.597
 4428WAT     H113526   7.869   1.162   6.646
 4428WAT     H213527   8.003   1.069   6.639
 4429WAT      O13528   5.013   0.816   4.324
 4429WAT     H113529   5.012   0.719   4.302
 4429WAT     H213530   5.030   0.828   4.422
 4430WAT      O13531   0.525   9.059   7.178
 4430WAT     H113532   0.582   9.124   7.228
 4430WAT     H213533   0.565   8.968   7.183
 4431WAT      O13534   4.563   8.687   1.035
 4431WAT     H113535   4.509   8.678   0.951
 4431WAT     H213536   4.660   8.686   1.012
 4432WAT      O13537   0.342   0.232   0.799
 4432WAT     H113538   0.361   0.324   0.835
 4432WAT     H213539   0.248   0.207   0.821
 4433WAT      O13540   7.406   3.415   0.402
 4433WAT     H113541   7.308   3.423   0.385
 4433WAT     H213542   7.442   3.337   0.350
 4434WAT      O13543   9.049   3.706   2.335
 4434WAT     H113544   9.046   3.706   2.435
 4434WAT     H213545   9.143   3.689   2.305
 4435WAT      O13546   7.423   5.468   4.578
 4435WAT     H113547   7.395   5.505   4.490
 4435WAT     H213548   7.406   5.535   4.650
 4436WAT      O13549   3.180   4.687   1.489
 4436WAT     H113550   3.241   4.735   1.553
 4436WAT     H213551   3.167   4.593   1.520
 4437WAT      O13552   2.411   2.820   8.257
 4437WAT     H113553   2.458   2.834   8.170
 4437WAT     H213554   2.356   2.901   8.279
 4438WAT      O13555   7.453   5.784   6.711
 4438WAT     H113556   7.411   5.856   6.656
 4438WAT     H213557   7.490   5.824   6.795
 4439WAT      O13558   6.045   9.751   0.776
 4439WAT     H113559   6.011   9.717   0.689
 4439WAT     H213560   6.138   9.787   0.764
 4440WAT      O13561   9.082   7.126   6.017
 4440WAT     H113562   9.105   7.058   5.948
 4440WAT     H213563   9.140   7.113   6.097
 4441WAT      O13564   7.601   6.079   8.784
 4441WAT     H113565   7.646   5.992   8.762
 4441WAT     H213566   7.664   6.155   8.762
 4442WAT      O13567   0.807   8.116   7.432
 4442WAT     H113568   0.818   8.105   7.333
 4442WAT     H213569   0.844   8.035   7.479
 4443WAT      O13570   9.557   0.346   9.755
 4443WAT     H113571   9.638   0.289   9.767
 4443WAT     H213572   9.567   0.401   9.672
 4444WAT      O13573   3.118   5.925   2.300
 4444WAT     H113574   3.185   5.877   2.356
 4444WAT     H213575   3.146   5.922   2.204
 4445WAT      O13576   0.719   9.585   7.477
 4445WAT     H113577   0.725   9.509   7.541
 4445WAT     H213578   0.769   9.664   7.514
 4446WAT      O13579   8.265   1.415   6.340
 4446WAT     H113580   8.187   1.415   6.403
 4446WAT     H213581   8.343   1.460   6.383
 4447WAT      O13582   1.250   5.330   7.725
 4447WAT     H113583   1.251   5.426   7.753
 4447WAT     H213584   1.334   5.309   7.675
 4448WAT      O13585   1.779   2.242   0.500
 4448WAT     H113586   1.874   2.243   0.529
 4448WAT     H213587   1.726   2.184   0.561
 4449WAT      O13588   6.431   2.526   2.454
 4449WAT     H113589   6.426   2.457   2.526
 4449WAT     H213590   6.380   2.607   2.483
 4450WAT      O13591   1.494   0.502   2.849
 4450WAT     H113592   1.514   0.427   2.912
 4450WAT     H213593   1.535   0.483   2.760
 4451WAT      O13594   4.590   5.085   9.117
 4451WAT     H113595   4.526   5.103   9.042
 4451WAT     H213596   4.540   5.082   9.203
 4452WAT      O13597   0.720   8.850   0.060
 4452WAT     H113598   0.630   8.806   0.069
 4452WAT     H213599   0.708   8.942   0.022
 4453WAT      O13600   7.667   2.677   5.507
 4453WAT     H113601   7.590   2.625   5.471
 4453WAT     H213602   7.710   2.626   5.582
 4454WAT      O13603   3.602   8.616   4.381
 4454WAT     H113604   3.641   8.565   4.304
 4454WAT     H213605   3.564   8.702   4.347
 4455WAT      O13606   0.694   2.676   6.813
 4455WAT     H113607   0.772   2.621   6.844
 4455WAT     H213608   0.713   2.773   6.829
 4456WAT      O13609   6.790   2.575   1.659
 4456WAT     H113610   6.882   2.554   1.627
 4456WAT     H213611   6.789   2.576   1.759
 4457WAT      O13612   2.208   3.914   3.226
 4457WAT     H113613   2.246   3.848   3.161
 4457WAT     H213614   2.240   4.006   3.203
 4458WAT      O13615   3.031   8.986   1.981
 4458WAT     H113616   3.084   8.985   2.066
 4458WAT     H213617   3.089   8.957   1.905
 4459WAT      O13618   9.026   5.598   0.787
 4459WAT     H113619   8.971   5.585   0.705
 4459WAT     H213620   9.083   5.518   0.802
 4460WAT      O13621   4.017   9.412   9.336
 4460WAT     H113622   4.103   9.462   9.338
 4460WAT     H213623   4.034   9.316   9.359
 4461WAT      O13624   3.086   8.944   5.959
 4461WAT     H113625   3.178   8.942   5.920
 4461WAT     H213626   3.058   8.850   5.982
 4462WAT      O13627   5.152   8.972   8.339
 4462WAT     H113628   5.147   9.032   8.259
 4462WAT     H213629   5.244   8.976   8.378
 4463WAT      O13630   5.771   8.513   2.855
 4463WAT     H113631   5.761   8.415   2.839
 4463WAT     H213632   5.864   8.542   2.832
 4464WAT      O13633   0.771   4.328   0.519
 4464WAT     H113634   0.684   4.364   0.485
 4464WAT     H213635   0.759   4.293   0.612
 4465WAT      O13636   5.345   5.697   0.255
 4465WAT     H113637   5.375   5.633   0.326
 4465WAT     H213638   5.424   5.743   0.215
 4466WAT      O13639   6.728   4.425   4.463
 4466WAT     H113640   6.652   4.489   4.449
 4466WAT     H213641   6.788   4.427   4.383
 4467WAT      O13642   7.176   2.826   8.556
 4467WAT     H113643   7.251   2.760   8.556
 4467WAT     H213644   7.090   2.779   8.539
 4468WAT      O13645   4.484   6.610   7.500
 4468WAT     H113646   4.427   6.544   7.452
 4468WAT     H213647   4.572   6.618   7.455
 4469WAT      O13648   8.752   1.304   1.539
 4469WAT     H113649   8.726   1.208   1.528
 4469WAT     H213650   8.702   1.343   1.617
 4470WAT      O13651   6.005   7.170   1.215
 4470WAT     H113652   6.005   7.144   1.119
 4470WAT     H213653   6.058   7.104   1.268
 4471WAT      O13654   1.465   2.525   7.261
 4471WAT     H113655   1.402   2.450   7.242
 4471WAT     H213656   1.522   2.502   7.340
 4472WAT      O13657   0.792   7.988   5.585
 4472WAT     H113658   0.799   7.983   5.485
 4472WAT     H213659   0.781   7.896   5.623
 4473WAT      O13660   1.360   1.246   0.403
 4473WAT     H113661   1.357   1.324   0.341
 4473WAT     H213662   1.269   1.206   0.411
 4474WAT      O13663   2.013   8.792   9.340
 4474WAT     H113664   2.071   8.824   9.265
 4474WAT     H213665   1.937   8.738   9.304
 4475WAT      O13666   1.874   1.621   0.841
 4475WAT     H113667   1.924   1.701   0.876
 4475WAT     H213668   1.776   1.639   0.846
 4476WAT      O13669   9.757   5.624   2.202
 4476WAT     H113670   9.713   5.535   2.216
 4476WAT     H213671   9.713   5.672   2.126
 4477WAT      O13672   9.183   3.323   7.861
 4477WAT     H113673   9.240   3.262   7.916
 4477WAT     H213674   9.151   3.399   7.918
 4478WAT      O13675   3.784   4.470   9.843
 4478WAT     H113676   3.685   4.454   9.843
 4478WAT     H213677   3.830   4.394   9.889
 4479WAT      O13678   8.849   7.196   3.068
 4479WAT     H113679   8.907   7.114   3.059
 4479WAT     H213680   8.793   7.206   2.986
 4480WAT      O13681   2.289   6.386   7.782
 4480WAT     H113682   2.193   6.358   7.791
 4480WAT     H213683   2.318   6.373   7.687
 4481WAT      O13684   4.337   2.638   3.269
 4481WAT     H113685   4.257   2.650   3.328
 4481WAT     H213686   4.414   2.608   3.325
 4482WAT      O13687   0.081   1.876   3.254
 4482WAT     H113688   0.023   1.869   3.336
 4482WAT     H213689   0.027   1.851   3.173
 4483WAT      O13690   3.665   7.302   5.538
 4483WAT     H113691   3.643   7.371   5.606
 4483WAT     H213692   3.586   7.242   5.524
 4484WAT      O13693   8.533   9.274   3.172
 4484WAT     H113694   8.486   9.349   3.125
 4484WAT     H213695   8.540   9.296   3.269
 4485WAT      O13696   2.555   9.573   0.237
 4485WAT     H113697   2.520   9.664   0.212
 4485WAT     H213698   2.478   9.513   0.260
 4486WAT      O13699   7.263   7.801   7.382
 4486WAT     H113700   7.170   7.834   7.401
 4486WAT     H213701   7.299   7.848   7.302
 4487WAT      O13702   4.013   7.423   1.224
 4487WAT     H113703   4.007   7.395   1.320
 4487WAT     H213704   4.052   7.349   1.170
 4488WAT      O13705   9.627   7.207   6.215
 4488WAT     H113706   9.576   7.272   6.271
 4488WAT     H213707   9.594   7.211   6.121
 4489WAT      O13708   6.395   4.728   1.517
 4489WAT     H113709   6.361   4.641   1.553
 4489WAT     H213710   6.466   4.764   1.578
 4490WAT      O13711   7.513   6.499   1.169
 4490WAT     H113712   7.578   6.495   1.093
 4490WAT     H213713   7.488   6.406   1.197
 4491WAT      O13714   4.065   1.763   7.116
 4491WAT     H113715   3.991   1.824   7.086
 4491WAT     H213716   4.070   1.684   7.056
 4492WAT      O13717   1.865   0.044   2.972
 4492WAT     H113718   1.888   0.131   3.014
 4492WAT     H213719   1.948   0.000   2.937
 4493WAT      O13720   5.472   7.556   7.220
 4493WAT     H113721   5.418   7.600   7.293
 4493WAT     H213722   5.494   7.624   7.150
 4494WAT      O13723   1.279   1.143   8.606
 4494WAT     H113724   1.358   1.163   8.547
 4494WAT     H213725   1.307   1.152   8.701
 4495WAT      O13726   7.912   0.110   2.261
 4495WAT     H113727   7.915   0.011   2.275
 4495WAT     H213728   8.004   0.149   2.274
 4496WAT      O13729   0.222   9.493   0.993
 4496WAT     H113730   0.255   9.415   1.046
 4496WAT     H213731   0.147   9.465   0.934
 4497WAT      O13732   8.393   2.794   7.169
 4497WAT     H113733   8.437   2.708   7.140
 4497WAT     H213734   8.294   2.786   7.157
 4498WAT      O13735   1.172   9.652   4.096
 4498WAT     H113736   1.170   9.729   4.161
 4498WAT     H213737   1.186   9.687   4.004
 4499WAT      O13738   5.972   3.345   5.577
 4499WAT     H113739   5.979   3.440   5.549
 4499WAT     H213740   5.932   3.340   5.669
 4500WAT      O13741   4.446   8.072   6.227
 4500WAT     H113742   4.522   8.102   6.170
 4500WAT     H213743   4.389   8.007   6.176
 4501WAT      O13744   8.738   1.545   7.776
 4501WAT     H113745   8.709   1.588   7.690
 4501WAT     H213746   8.727   1.446   7.770
 4502WAT      O13747   2.784   0.916   3.049
 4502WAT     H113748   2.697   0.915   3.096
 4502WAT     H213749   2.835   0.832   3.070
 4503WAT      O13750   7.574   3.436   6.176
 4503WAT     H113751   7.562   3.339   6.155
 4503WAT     H213752   7.645   3.447   6.245
 4504WAT      O13753   1.062   6.290   5.476
 4504WAT     H113754   1.125   6.367   5.478
 4504WAT     H213755   0.974   6.318   5.515
 4505WAT      O13756   7.211   3.092   2.664
 4505WAT     H113757   7.246   3.070   2.755
 4505WAT     H213758   7.281   3.072   2.596
 4506WAT      O13759   0.135   7.098   3.357
 4506WAT     H113760   0.173   7.024   3.303
 4506WAT     H213761   0.162   7.088   3.453
 4507WAT      O13762   8.170   5.452   6.874
 4507WAT     H113763   8.132   5.513   6.805
 4507WAT     H213764   8.197   5.505   6.955
 4508WAT      O13765   6.699   8.532   7.515
 4508WAT     H113766   6.656   8.557   7.602
 4508WAT     H213767   6.756   8.608   7.483
 4509WAT      O13768   0.912   6.817   3.103
 4509WAT     H113769   0.940   6.733   3.151
 4509WAT     H213770   0.842   6.795   3.036
 4510WAT      O13771   2.219   8.071   1.861
 4510WAT     H113772   2.284   8.063   1.936
 4510WAT     H213773   2.268   8.072   1.774
 4511WAT      O13774   1.014   9.539   2.115
 4511WAT     H113775   1.088   9.558   2.051
 4511WAT     H213776   0.939   9.603   2.099
 4512WAT      O13777   8.770   8.621   1.208
 4512WAT     H113778   8.730   8.538   1.247
 4512WAT     H213779   8.869   8.619   1.221
 4513WAT      O13780   0.007   2.334   9.262
 4513WAT     H113781  -0.065   2.264   9.261
 4513WAT     H213782  -0.020   2.408   9.323
 4514WAT      O13783   9.109   5.086   4.386
 4514WAT     H113784   9.011   5.093   4.369
 4514WAT     H213785   9.137   4.990   4.382
 4515WAT      O13786   3.582   1.778   3.570
 4515WAT     H113787   3.640   1.854   3.541
 4515WAT     H213788   3.603   1.755   3.665
 4516WAT      O13789   3.991   4.632   3.600
 4516WAT     H113790   4.016   4.695   3.673
 4516WAT     H213791   4.072   4.583   3.568
 4517WAT      O13792   8.078   9.445   4.219
 4517WAT     H113793   7.987   9.426   4.181
 4517WAT     H213794   8.137   9.366   4.205
 4518WAT      O13795   9.835   8.772   3.782
 4518WAT     H113796   9.919   8.723   3.761
 4518WAT     H213797   9.806   8.824   3.701
 4519WAT      O13798   3.249   8.813   7.735
 4519WAT     H113799   3.323   8.747   7.723
 4519WAT     H213800   3.180   8.774   7.796
 4520WAT      O13801   4.602   1.100   1.537
 4520WAT     H113802   4.622   1.004   1.519
 4520WAT     H213803   4.676   1.157   1.502
 4521WAT      O13804   8.707   6.029   2.894
 4521WAT     H113805   8.782   6.076   2.940
 4521WAT     H213806   8.642   5.995   2.962
 4522WAT      O13807   5.459   9.360   4.203
 4522WAT     H113808   5.509   9.431   4.252
 4522WAT     H213809   5.485   9.361   4.106
 4523WAT      O13810   7.079   7.174   3.465
 4523WAT     H113811   7.174   7.182   3.432
 4523WAT     H213812   7.040   7.265   3.474
 4524WAT      O13813   0.248   7.457   7.220
 4524WAT     H113814   0.318   7.479   7.288
 4524WAT     H213815   0.179   7.397   7.261
 4525WAT      O13816   5.104   5.548   4.021
 4525WAT     H113817   5.141   5.622   3.965
 4525WAT     H213818   5.055   5.586   4.099
 4526WAT      O13819   3.520   2.885   4.526
 4526WAT     H113820   3.506   2.984   4.515
 4526WAT     H213821   3.611   2.861   4.491
 4527WAT      O13822   8.996   8.857   3.233
 4527WAT     H113823   9.029   8.877   3.325
 4527WAT     H213824   8.978   8.759   3.224
 4528WAT      O13825   3.990   2.305   5.247
 4528WAT     H113826   4.044   2.286   5.165
 4528WAT     H213827   3.970   2.402   5.252
 4529WAT      O13828   0.695   8.507   9.115
 4529WAT     H113829   0.744   8.458   9.042
 4529WAT     H213830   0.761   8.554   9.174
 4530WAT      O13831   8.399   7.650   7.584
 4530WAT     H113832   8.324   7.603   7.630
 4530WAT     H213833   8.380   7.748   7.578
 4531WAT      O13834   2.145   1.861   1.621
 4531WAT     H113835   2.144   1.762   1.603
 4531WAT     H213836   2.073   1.883   1.687
 4532WAT      O13837   2.420   9.108   6.840
 4532WAT     H113838   2.495   9.084   6.901
 4532WAT     H213839   2.347   9.039   6.849
 4533WAT      O13840   6.242   1.460   5.717
 4533WAT     H113841   6.162   1.401   5.726
 4533WAT     H213842   6.245   1.524   5.794
 4534WAT      O13843   9.200   2.518   9.726
 4534WAT     H113844   9.107   2.552   9.736
 4534WAT     H213845   9.252   2.581   9.667
 4535WAT      O13846   2.594   9.262   6.654
 4535WAT     H113847   2.679   9.302   6.688
 4535WAT     H213848   2.568   9.186   6.714
 4536WAT      O13849   8.716   6.311   7.740
 4536WAT     H113850   8.757   6.348   7.823
 4536WAT     H213851   8.710   6.384   7.671
 4537WAT      O13852   9.271   6.683   7.534
 4537WAT     H113853   9.369   6.679   7.549
 4537WAT     H213854   9.250   6.657   7.440
 4538WAT      O13855   4.228   2.855   0.593
 4538WAT     H113856   4.267   2.832   0.504
 4538WAT     H213857   4.167   2.934   0.583
 4539WAT      O13858   6.163   9.680   6.263
 4539WAT     H113859   6.240   9.627   6.301
 4539WAT     H213860   6.077   9.637   6.291
 4540WAT      O13861   6.142   2.193   9.061
 4540WAT     H113862   6.204   2.271   9.058
 4540WAT     H213863   6.066   2.214   9.122
 4541WAT      O13864   6.745   4.680   0.133
 4541WAT     H113865   6.689   4.756   0.166
 4541WAT     H213866   6.836   4.686   0.173
 4542WAT      O13867   7.992   7.372   4.920
 4542WAT     H113868   8.055   7.385   4.843
 4542WAT     H213869   7.973   7.275   4.931
 4543WAT      O13870   0.915   1.922   2.890
 4543WAT     H113871   0.872   1.872   2.815
 4543WAT     H213872   0.860   2.002   2.912
 4544WAT      O13873   5.539   1.054   3.132
 4544WAT     H113874   5.477   0.979   3.109
 4544WAT     H213875   5.589   1.082   3.050
 4545WAT      O13876   7.233   0.808   9.075
 4545WAT     H113877   7.143   0.764   9.071
 4545WAT     H213878   7.261   0.834   8.983
 4546WAT      O13879   6.176   4.597   4.253
 4546WAT     H113880   6.172   4.669   4.322
 4546WAT     H213881   6.138   4.630   4.167
 4547WAT      O13882   1.825   1.654   9.793
 4547WAT     H113883   1.743   1.599   9.776
 4547WAT     H213884   1.799   1.738   9.841
 4548WAT      O13885   1.923   9.591   8.443
 4548WAT     H113886   1.891   9.534   8.518
 4548WAT     H213887   1.848   9.608   8.379
 4549WAT      O13888   5.221   7.213   9.424
 4549WAT     H113889   5.193   7.308   9.431
 4549WAT     H213890   5.283   7.191   9.500
 4550WAT      O13891   7.330   0.118   7.610
 4550WAT     H113892   7.333   0.111   7.710
 4550WAT     H213893   7.332   0.214   7.583
 4551WAT      O13894   0.659   7.943   9.143
 4551WAT     H113895   0.673   8.029   9.193
 4551WAT     H213896   0.718   7.941   9.062
 4552WAT      O13897   6.520   7.737   3.566
 4552WAT     H113898   6.603   7.731   3.511
 4552WAT     H213899   6.445   7.689   3.519
 4553WAT      O13900   0.831   1.173   3.880
 4553WAT     H113901   0.906   1.109   3.864
 4553WAT     H213902   0.781   1.189   3.795
 4554WAT      O13903   5.408   5.985   6.140
 4554WAT     H113904   5.339   6.033   6.194
 4554WAT     H213905   5.472   6.052   6.101
 4555WAT      O13906   7.123   3.365   9.529
 4555WAT     H113907   7.028   3.373   9.560
 4555WAT     H213908   7.185   3.391   9.603
 4556WAT      O13909   4.884   9.333   9.470
 4556WAT     H113910   4.967   9.314   9.522
 4556WAT     H213911   4.844   9.247   9.439
 4557WAT      O13912   2.859   0.404   6.568
 4557WAT     H113913   2.876   0.502   6.558
 4557WAT     H213914   2.790   0.375   6.501
 4558WAT      O13915   6.627   7.281   0.757
 4558WAT     H113916   6.637   7.225   0.675
 4558WAT     H213917   6.716   7.320   0.782
 4559WAT      O13918   9.537   1.746   0.378
 4559WAT     H113919   9.555   1.714   0.471
 4559WAT     H213920   9.480   1.828   0.381
 4560WAT      O13921   2.589   0.181   5.533
 4560WAT     H113922   2.564   0.110   5.598
 4560WAT     H213923   2.681   0.163   5.497
 4561WAT      O13924   1.607   7.534   4.441
 4561WAT     H113925   1.693   7.582   4.424
 4561WAT     H213926   1.539   7.598   4.476
 4562WAT      O13927   9.429   3.428   9.390
 4562WAT     H113928   9.446   3.493   9.316
 4562WAT     H213929   9.374   3.472   9.462
 4563WAT      O13930   2.755   9.467   7.250
 4563WAT     H113931   2.747   9.510   7.160
 4563WAT     H213932   2.791   9.533   7.316
 4564WAT      O13933   3.797   4.248   4.771
 4564WAT     H113934   3.893   4.225   4.752
 4564WAT     H213935   3.740   4.167   4.758
 4565WAT      O13936   9.530   6.721   1.370
 4565WAT     H113937   9.443   6.771   1.373
 4565WAT     H213938   9.590   6.753   1.443
 4566WAT      O13939   0.593   0.795   7.622
 4566WAT     H113940   0.664   0.823   7.687
 4566WAT     H213941   0.506   0.838   7.647
 4567WAT      O13942   1.203   7.919   4.449
 4567WAT     H113943   1.229   7.996   4.391
 4567WAT     H213944   1.186   7.839   4.392
 4568WAT      O13945   9.799   0.611   3.999
 4568WAT     H113946   9.799   0.627   3.900
 4568WAT     H213947   9.804   0.512   4.017
 4569WAT      O13948   5.123   8.076   8.965
 4569WAT     H113949   5.127   8.123   8.876
 4569WAT     H213950   5.045   8.109   9.017
 4570WAT      O13951   1.302   6.946   6.104
 4570WAT     H113952   1.378   6.947   6.169
 4570WAT     H213953   1.233   6.881   6.135
 4571WAT      O13954   2.624   7.845   0.384
 4571WAT     H113955   2.613   7.831   0.286
 4571WAT     H213956   2.658   7.761   0.426
 4572WAT      O13957   3.954   6.675   2.490
 4572WAT     H113958   4.050   6.699   2.474
 4572WAT     H213959   3.940   6.661   2.588
 4573WAT      O13960   4.939   2.338   8.566
 4573WAT     H113961   4.947   2.314   8.663
 4573WAT     H213962   4.953   2.436   8.555
 4574WAT      O13963   1.385   6.077   2.973
 4574WAT     H113964   1.416   6.098   2.880
 4574WAT     H213965   1.336   6.156   3.011
 4575WAT      O13966   2.253   7.304   6.806
 4575WAT     H113967   2.257   7.382   6.744
 4575WAT     H213968   2.291   7.223   6.760
 4576WAT      O13969   1.512   6.388   9.874
 4576WAT     H113970   1.430   6.336   9.850
 4576WAT     H213971   1.568   6.401   9.792
 4577WAT      O13972   1.327   7.873   2.380
 4577WAT     H113973   1.339   7.801   2.448
 4577WAT     H213974   1.244   7.925   2.400
 4578WAT      O13975   9.141   1.767   1.750
 4578WAT     H113976   9.056   1.721   1.775
 4578WAT     H213977   9.163   1.837   1.817
 4579WAT      O13978   8.688   0.042   9.493
 4579WAT     H113979   8.638   0.023   9.409
 4579WAT     H213980   8.737  -0.041   9.522
 4580WAT      O13981   9.108   7.147   7.160
 4580WAT     H113982   9.185   7.179   7.106
 4580WAT     H213983   9.048   7.091   7.104
 4581WAT      O13984   2.364   8.408   1.609
 4581WAT     H113985   2.329   8.362   1.690
 4581WAT     H213986   2.290   8.421   1.543
 4582WAT      O13987   0.392   6.248   6.041
 4582WAT     H113988   0.366   6.183   6.112
 4582WAT     H213989   0.478   6.292   6.066
 4583WAT      O13990   8.144   2.073   0.816
 4583WAT     H113991   8.049   2.096   0.796
 4583WAT     H213992   8.165   1.983   0.777
 4584WAT      O13993   3.706   6.748   2.398
 4584WAT     H113994   3.780   6.718   2.458
 4584WAT     H213995   3.739   6.822   2.338
 4585WAT      O13996   0.045   4.124   4.157
 4585WAT     H113997   0.036   4.077   4.244
 4585WAT     H213998   0.072   4.219   4.172
 4586WAT      O13999   6.923   7.118   5.472
 4586WAT     H114000   7.017   7.135   5.442
 4586WAT     H214001   6.863   7.114   5.392
 4587WAT      O14002   0.508   4.923   7.865
 4587WAT     H114003   0.418   4.963   7.844
 4587WAT     H214004   0.495   4.835   7.910
 4588WAT      O14005   8.510   5.919   9.215
 4588WAT     H114006   8.456   5.998   9.243
 4588WAT     H214007   8.563   5.943   9.133
 4589WAT      O14008   0.457   9.288   4.702
 4589WAT     H114009   0.525   9.302   4.775
 4589WAT     H214010   0.438   9.191   4.693
 4590WAT      O14011   8.946   5.046   8.608
 4590WAT     H114012   8.888   4.964   8.604
 4590WAT     H214013   8.896   5.124   8.571
 4591WAT      O14014   7.605   1.334   3.936
 4591WAT     H114015   7.659   1.412   3.903
 4591WAT     H214016   7.591   1.343   4.035
 4592WAT      O14017   6.400   0.438   7.540
 4592WAT     H114018   6.375   0.417   7.445
 4592WAT     H214019   6.487   0.394   7.562
 4593WAT      O14020   4.874   2.883   4.068
 4593WAT     H114021   4.888   2.927   3.979
 4593WAT     H214022   4.870   2.952   4.140
 4594WAT      O14023   1.948   8.704   4.141
 4594WAT     H114024   1.848   8.697   4.148
 4594WAT     H214025   1.971   8.779   4.078
 4595WAT      O14026   9.074   1.416   9.776
 4595WAT     H114027   9.133   1.363   9.836
 4595WAT     H214028   9.129   1.481   9.724
 4596WAT      O14029   0.774   1.838   1.142
 4596WAT     H114030   0.728   1.822   1.055
 4596WAT     H214031   0.707   1.833   1.216
 4597WAT      O14032   6.594   2.013   7.516
 4597WAT     H114033   6.660   2.041   7.446
 4597WAT     H214034   6.639   2.008   7.605
 4598WAT      O14035   6.405   4.967   6.326
 4598WAT     H114036   6.472   5.040   6.337
 4598WAT     H214037   6.313   5.003   6.343
 4599WAT      O14038   2.372   4.674   4.790
 4599WAT     H114039   2.356   4.689   4.692
 4599WAT     H214040   2.470   4.681   4.809
 4600WAT      O14041   3.876   6.063   6.660
 4600WAT     H114042   3.802   6.073   6.727
 4600WAT     H214043   3.890   6.150   6.613
 4601WAT      O14044   9.075   1.094   6.234
 4601WAT     H114045   9.050   1.164   6.300
 4601WAT     H214046   9.095   1.008   6.282
 4602WAT      O14047   7.954   5.748   9.235
 4602WAT     H114048   7.955   5.809   9.314
 4602WAT     H214049   8.048   5.730   9.207
 4603WAT      O14050   2.367   7.436   0.758
 4603WAT     H114051   2.390   7.503   0.687
 4603WAT     H214052   2.440   7.369   0.766
 4604WAT      O14053   9.726   8.904   3.997
 4604WAT     H114054   9.632   8.929   3.974
 4604WAT     H214055   9.771   8.866   3.917
 4605WAT      O14056   7.473   0.992   9.679
 4605WAT     H114057   7.495   1.051   9.602
 4605WAT     H214058   7.437   0.905   9.646
 4606WAT      O14059   9.407   7.181   5.974
 4606WAT     H114060   9.410   7.279   5.954
 4606WAT     H214061   9.356   7.134   5.902
 4607WAT      O14062   5.912   0.988   9.048
 4607WAT     H114063   5.953   0.937   8.972
 4607WAT     H214064   5.910   1.085   9.026
 4608WAT      O14065   0.034   9.800   9.153
 4608WAT     H114066  -0.029   9.830   9.082
 4608WAT     H214067   0.094   9.875   9.179
 4609WAT      O14068   3.449   0.135   9.014
 4609WAT     H114069   3.501   0.068   8.961
 4609WAT     H214070   3.510   0.204   9.050
 4610WAT      O14071   5.904   2.953   6.189
 4610WAT     H114072   5.825   2.927   6.244
 4610WAT     H214073   5.983   2.896   6.216
 4611WAT      O14074   2.267   8.716   1.284
 4611WAT     H114075   2.314   8.707   1.371
 4611WAT     H214076   2.170   8.695   1.295
 4612WAT      O14077   6.394   2.256   6.985
 4612WAT     H114078   6.347   2.209   6.911
 4612WAT     H214079   6.332   2.322   7.028
 4613WAT      O14080   3.553   1.048   9.372
 4613WAT     H114081   3.528   0.968   9.428
 4613WAT     H214082   3.560   1.020   9.277
 4614WAT      O14083   8.675   8.653   2.074
 4614WAT     H114084   8.626   8.722   2.021
 4614WAT     H214085   8.768   8.685   2.091
 4615WAT      O14086   8.550   7.844   6.111
 4615WAT     H114087   8.627   7.892   6.069
 4615WAT     H214088   8.550   7.861   6.210
 4616WAT      O14089   0.937   0.823   6.412
 4616WAT     H114090   0.984   0.745   6.370
 4616WAT     H214091   0.856   0.846   6.357
 4617WAT      O14092   6.156   8.771   2.981
 4617WAT     H114093   6.134   8.837   3.053
 4617WAT     H214094   6.256   8.767   2.970
 4618WAT      O14095   0.297   8.308   2.747
 4618WAT     H114096   0.273   8.351   2.660
 4618WAT     H214097   0.266   8.213   2.747
 4619WAT      O14098   3.521   7.935   1.662
 4619WAT     H114099   3.496   7.879   1.583
 4619WAT     H214100   3.570   8.017   1.630
 4620WAT      O14101   0.046   5.368   3.914
 4620WAT     H114102  -0.049   5.340   3.897
 4620WAT     H214103   0.092   5.297   3.967
 4621WAT      O14104   4.296   6.462   0.188
 4621WAT     H114105   4.212   6.411   0.203
 4621WAT     H214106   4.330   6.497   0.275
 4622WAT      O14107   4.057   7.454   8.083
 4622WAT     H114108   4.075   7.401   8.000
 4622WAT     H214109   4.044   7.550   8.059
 4623WAT      O14110   0.517   3.939   9.084
 4623WAT     H114111   0.451   3.929   9.010
 4623WAT     H214112   0.581   4.013   9.061
 4624WAT      O14113   3.619   1.015   0.582
 4624WAT     H114114   3.564   1.086   0.539
 4624WAT     H214115   3.716   1.036   0.572
 4625WAT      O14116   6.146   3.989   1.227
 4625WAT     H114117   6.160   3.914   1.162
 4625WAT     H214118   6.220   4.057   1.215
 4626WAT      O14119   1.058   5.457   0.727
 4626WAT     H114120   1.011   5.381   0.773
 4626WAT     H214121   1.116   5.421   0.655
 4627WAT      O14122   9.889   9.296   2.014
 4627WAT     H114123   9.801   9.338   2.037
 4627WAT     H214124   9.928   9.255   2.097
 4628WAT      O14125   5.029   8.746   8.854
 4628WAT     H114126   5.126   8.761   8.839
 4628WAT     H214127   5.014   8.655   8.892
 4629WAT      O14128   2.996   1.106   9.595
 4629WAT     H114129   2.944   1.045   9.656
 4629WAT     H214130   2.944   1.190   9.581
 4630WAT      O14131   7.328   6.050   2.373
 4630WAT     H114132   7.291   5.958   2.366
 4630WAT     H214133   7.421   6.051   2.336
 4631WAT      O14134   4.863   3.755   0.591
 4631WAT     H114135   4.955   3.792   0.582
 4631WAT     H214136   4.864   3.675   0.651
 4632WAT      O14137   8.600   7.507   2.263
 4632WAT     H114138   8.558   7.469   2.181
 4632WAT     H214139   8.607   7.607   2.253
 4633WAT      O14140   3.975   1.091   9.704
 4633WAT     H114141   4.070   1.121   9.716
 4633WAT     H214142   3.915   1.171   9.702
 4634WAT      O14143   9.675   3.056   0.837
 4634WAT     H114144   9.685   3.155   0.827
 4634WAT     H214145   9.759   3.018   0.877
 4635WAT      O14146   6.757   6.484   8.722
 4635WAT     H114147   6.725   6.453   8.811
 4635WAT     H214148   6.744   6.583   8.715
 4636WAT      O14149   8.890   7.964   2.164
 4636WAT     H114150   8.887   7.998   2.258
 4636WAT     H214151   8.813   7.903   2.148
 4637WAT      O14152   1.401   1.075   5.556
 4637WAT     H114153   1.329   1.145   5.550
 4637WAT     H214154   1.440   1.060   5.465
 4638WAT      O14155   9.370   5.495   7.946
 4638WAT     H114156   9.274   5.507   7.922
 4638WAT     H214157   9.387   5.400   7.973
 4639WAT      O14158   3.099   4.361   9.754
 4639WAT     H114159   3.038   4.435   9.725
 4639WAT     H214160   3.167   4.345   9.683
 4640WAT      O14161   3.541   9.357   8.081
 4640WAT     H114162   3.488   9.282   8.122
 4640WAT     H214163   3.527   9.441   8.134
 4641WAT      O14164   0.515   8.304   3.857
 4641WAT     H114165   0.453   8.251   3.914
 4641WAT     H214166   0.591   8.246   3.827
 4642WAT      O14167   9.234   5.665   7.023
 4642WAT     H114168   9.186   5.580   7.042
 4642WAT     H214169   9.204   5.736   7.086
 4643WAT      O14170   9.280   9.444   9.776
 4643WAT     H114171   9.262   9.441   9.875
 4643WAT     H214172   9.282   9.351   9.740
 4644WAT      O14173   3.393   3.420   8.751
 4644WAT     H114174   3.364   3.335   8.708
 4644WAT     H214175   3.344   3.432   8.837
 4645WAT      O14176   8.401   0.873   7.004
 4645WAT     H114177   8.398   0.785   6.956
 4645WAT     H214178   8.318   0.884   7.059
 4646WAT      O14179   0.252   8.264   0.956
 4646WAT     H114180   0.304   8.224   0.880
 4646WAT     H214181   0.185   8.329   0.921
 4647WAT      O14182   3.839   7.158   3.376
 4647WAT     H114183   3.780   7.228   3.417
 4647WAT     H214184   3.933   7.191   3.374
 4648WAT      O14185   6.008   2.457   1.972
 4648WAT     H114186   5.950   2.531   2.007
 4648WAT     H214187   6.089   2.448   2.029
 4649WAT      O14188   7.845   8.501   1.664
 4649WAT     H114189   7.808   8.570   1.727
 4649WAT     H214190   7.933   8.532   1.629
 4650WAT      O14191   5.241   2.493   4.596
 4650WAT     H114192   5.322   2.434   4.603
 4650WAT     H214193   5.202   2.506   4.687
 4651WAT      O14194   2.331   5.450   2.725
 4651WAT     H114195   2.305   5.353   2.730
 4651WAT     H214196   2.272   5.497   2.660
 4652WAT      O14197   5.947   7.672   3.243
 4652WAT     H114198   5.896   7.742   3.194
 4652WAT     H214199   5.938   7.687   3.342
 4653WAT      O14200   4.357   5.281   9.243
 4653WAT     H114201   4.390   5.193   9.276
 4653WAT     H214202   4.358   5.348   9.317
 4654WAT      O14203   6.383   6.107   8.144
 4654WAT     H114204   6.294   6.070   8.170
 4654WAT     H214205   6.377   6.148   8.053
 4655WAT      O14206   7.436   8.471   9.591
 4655WAT     H114207   7.403   8.529   9.666
 4655WAT     H214208   7.518   8.512   9.551
 4656WAT      O14209   9.389   9.447   8.104
 4656WAT     H114210   9.470   9.423   8.051
 4656WAT     H214211   9.394   9.405   8.194
 4657WAT      O14212   4.679   9.393   6.783
 4657WAT     H114213   4.754   9.457   6.773
 4657WAT     H214214   4.669   9.338   6.700
 4658WAT      O14215   4.740   2.061   9.103
 4658WAT     H114216   4.772   2.149   9.137
 4658WAT     H214217   4.728   1.998   9.180
 4659WAT      O14218   0.030   2.697   0.929
 4659WAT     H114219   0.112   2.669   0.879
 4659WAT     H214220  -0.037   2.623   0.926
 4660WAT      O14221   1.627   0.783   6.916
 4660WAT     H114222   1.578   0.697   6.904
 4660WAT     H214223   1.588   0.853   6.855
 4661WAT      O14224   1.924   0.637   0.826
 4661WAT     H114225   1.961   0.640   0.918
 4661WAT     H214226   1.839   0.586   0.825
 4662WAT      O14227   2.510   2.659   5.839
 4662WAT     H114228   2.444   2.600   5.885
 4662WAT     H214229   2.596   2.660   5.891
 4663WAT      O14230   9.355   1.451   2.417
 4663WAT     H114231   9.327   1.357   2.399
 4663WAT     H214232   9.369   1.499   2.330
 4664WAT      O14233   5.573   4.441   1.753
 4664WAT     H114234   5.497   4.452   1.689
 4664WAT     H214235   5.634   4.520   1.746
 4665WAT      O14236   9.548   4.299   2.413
 4665WAT     H114237   9.536   4.384   2.361
 4665WAT     H214238   9.576   4.322   2.507
 4666WAT      O14239   6.489   4.194   0.623
 4666WAT     H114240   6.426   4.199   0.545
 4666WAT     H214241   6.471   4.111   0.675
 4667WAT      O14242   3.642   4.854   1.575
 4667WAT     H114243   3.625   4.947   1.607
 4667WAT     H214244   3.737   4.830   1.592
 4668WAT      O14245   5.359   7.649   4.670
 4668WAT     H114246   5.417   7.663   4.589
 4668WAT     H214247   5.414   7.660   4.753
 4669WAT      O14248   6.023   4.719   4.050
 4669WAT     H114249   6.058   4.812   4.061
 4669WAT     H214250   5.947   4.720   3.984
 4670WAT      O14251   7.140   0.806   6.742
 4670WAT     H114252   7.076   0.749   6.793
 4670WAT     H214253   7.230   0.762   6.740
 4671WAT      O14254   0.529   3.091   9.581
 4671WAT     H114255   0.614   3.071   9.631
 4671WAT     H214256   0.454   3.039   9.621
 4672WAT      O14257   8.600   2.674   4.682
 4672WAT     H114258   8.615   2.578   4.706
 4672WAT     H214259   8.503   2.696   4.693
 4673WAT      O14260   1.383   4.019   8.281
 4673WAT     H114261   1.455   3.970   8.331
 4673WAT     H214262   1.419   4.107   8.250
 4674WAT      O14263   5.445   5.634   7.224
 4674WAT     H114264   5.476   5.656   7.316
 4674WAT     H214265   5.347   5.656   7.215
 4675WAT      O14266   3.787   2.554   5.158
 4675WAT     H114267   3.781   2.650   5.132
 4675WAT     H214268   3.779   2.497   5.076
 4676WAT      O14269   5.163   5.872   1.006
 4676WAT     H114270   5.235   5.935   1.033
 4676WAT     H214271   5.198   5.810   0.935
 4677WAT      O14272   3.349   1.057   7.662
 4677WAT     H114273   3.268   1.081   7.609
 4677WAT     H214274   3.327   0.983   7.726
 4678WAT      O14275   1.011   4.977   8.061
 4678WAT     H114276   1.077   4.947   7.992
 4678WAT     H214277   0.936   5.025   8.017
 4679WAT      O14278   7.765   6.446   6.396
 4679WAT     H114279   7.823   6.374   6.357
 4679WAT     H214280   7.811   6.488   6.474
 4680WAT      O14281   9.834   0.800   5.077
 4680WAT     H114282   9.735   0.798   5.087
 4680WAT     H214283   9.870   0.885   5.116
 4681WAT      O14284   8.796   0.101   2.858
 4681WAT     H114285   8.713   0.102   2.914
 4681WAT     H214286   8.803   0.013   2.810
 4682WAT      O14287   0.112   7.991   6.334
 4682WAT     H114288   0.032   7.934   6.353
 4682WAT     H214289   0.191   7.933   6.316
 4683WAT      O14290   0.925   5.820   9.001
 4683WAT     H114291   0.885   5.733   9.032
 4683WAT     H214292   0.990   5.802   8.927
 4684WAT      O14293   6.285   8.350   2.744
 4684WAT     H114294   6.273   8.398   2.658
 4684WAT     H214295   6.239   8.400   2.818
 4685WAT      O14296   6.770   7.313   0.236
 4685WAT     H114297   6.862   7.283   0.215
 4685WAT     H214298   6.705   7.240   0.215
 4686WAT      O14299   2.997   3.001   6.076
 4686WAT     H114300   2.980   2.957   6.164
 4686WAT     H214301   3.090   2.981   6.046
 4687WAT      O14302   9.576   1.669   3.234
 4687WAT     H114303   9.508   1.655   3.162
 4687WAT     H214304   9.668   1.672   3.193
 4688WAT      O14305   2.926   4.488   2.194
 4688WAT     H114306   2.947   4.565   2.133
 4688WAT     H214307   2.847   4.439   2.158
 4689WAT      O14308   4.165   1.174   5.160
 4689WAT     H114309   4.256   1.147   5.128
 4689WAT     H214310   4.119   1.227   5.089
 4690WAT      O14311   7.817   4.136   8.325
 4690WAT     H114312   7.872   4.057   8.353
 4690WAT     H214313   7.857   4.220   8.362
 4691WAT      O14314   1.749   6.914   0.866
 4691WAT     H114315   1.845   6.888   0.860
 4691WAT     H214316   1.693   6.833   0.885
 4692WAT      O14317   0.973   6.066   3.590
 4692WAT     H114318   1.024   6.128   3.649
 4692WAT     H214319   0.880   6.102   3.577
 4693WAT      O14320   3.302   0.515   9.355
 4693WAT     H114321   3.349   0.531   9.269
 4693WAT     H214322   3.303   0.417   9.376
 4694WAT      O14323   0.449   4.397   5.039
 4694WAT     H114324   0.474   4.485   5.080
 4694WAT     H214325   0.439   4.408   4.940
 4695WAT      O14326   0.747   0.493   8.228
 4695WAT     H114327   0.667   0.460   8.277
 4695WAT     H214328   0.822   0.427   8.238
 4696WAT      O14329   1.934   4.818   3.371
 4696WAT     H114330   1.912   4.729   3.333
 4696WAT     H214331   1.944   4.811   3.470
 4697WAT      O14332   0.838   4.002   0.791
 4697WAT     H114333   0.791   4.090   0.790
 4697WAT     H214334   0.811   3.950   0.872
 4698WAT      O14335   4.919   8.304   8.359
 4698WAT     H114336   4.865   8.380   8.322
 4698WAT     H214337   4.995   8.284   8.298
 4699WAT      O14338   2.261   0.907   4.374
 4699WAT     H114339   2.284   0.853   4.456
 4699WAT     H214340   2.162   0.923   4.372
 4700WAT      O14341   6.334   7.971   8.072
 4700WAT     H114342   6.288   8.059   8.065
 4700WAT     H214343   6.426   7.985   8.110
 4701WAT      O14344   6.924   4.706   1.286
 4701WAT     H114345   6.885   4.624   1.245
 4701WAT     H214346   6.854   4.777   1.293
 4702WAT      O14347   6.469   1.002   7.373
 4702WAT     H114348   6.470   0.907   7.344
 4702WAT     H214349   6.388   1.021   7.428
 4703WAT      O14350   5.682   0.203   7.900
 4703WAT     H114351   5.663   0.284   7.955
 4703WAT     H214352   5.718   0.130   7.959
 4704WAT      O14353   2.436   5.513   6.003
 4704WAT     H114354   2.499   5.532   5.927
 4704WAT     H214355   2.383   5.430   5.982
 4705WAT      O14356   5.429   4.424   3.933
 4705WAT     H114357   5.470   4.332   3.935
 4705WAT     H214358   5.345   4.422   3.879
 4706WAT      O14359   2.005   8.939   3.574
 4706WAT     H114360   2.041   8.863   3.628
 4706WAT     H214361   2.079   8.979   3.520
 4707WAT      O14362   9.304   0.808   5.452
 4707WAT     H114363   9.244   0.779   5.378
 4707WAT     H214364   9.303   0.908   5.459
 4708WAT      O14365   2.994   2.430   9.573
 4708WAT     H114366   2.948   2.344   9.554
 4708WAT     H214367   2.977   2.458   9.667
 4709WAT      O14368   4.554   1.444   5.934
 4709WAT     H114369   4.621   1.372   5.951
 4709WAT     H214370   4.572   1.486   5.846
 4710WAT      O14371   8.372   4.546   3.410
 4710WAT     H114372   8.432   4.519   3.485
 4710WAT     H214373   8.309   4.471   3.389
 4711WAT      O14374   1.861   7.672   6.715
 4711WAT     H114375   1.865   7.609   6.793
 4711WAT     H214376   1.860   7.619   6.630
 4712WAT      O14377   1.935   8.109   0.040
 4712WAT     H114378   1.924   8.014   0.010
 4712WAT     H214379   1.955   8.166  -0.040
 4713WAT      O14380   4.931   3.250   2.176
 4713WAT     H114381   4.917   3.158   2.139
 4713WAT     H214382   5.028   3.272   2.176
 4714WAT      O14383   8.478   7.726   5.375
 4714WAT     H114384   8.442   7.697   5.464
 4714WAT     H214385   8.562   7.676   5.355
 4715WAT      O14386   8.512   8.683   2.945
 4715WAT     H114387   8.502   8.783   2.938
 4715WAT     H214388   8.513   8.643   2.854
 4716WAT      O14389   3.646   1.441   9.264
 4716WAT     H114390   3.620   1.386   9.184
 4716WAT     H214391   3.696   1.522   9.235
 4717WAT      O14392   3.365   4.960   8.111
 4717WAT     H114393   3.308   4.878   8.103
 4717WAT     H214394   3.352   5.001   8.201
 4718WAT      O14395   9.712   0.056   3.704
 4718WAT     H114396   9.626   0.097   3.735
 4718WAT     H214397   9.746  -0.007   3.773
 4719WAT      O14398   6.294   6.057   3.458
 4719WAT     H114399   6.368   6.114   3.494
 4719WAT     H214400   6.332   5.977   3.412
 4720WAT      O14401   6.184   9.011   7.682
 4720WAT     H114402   6.125   8.938   7.646
 4720WAT     H214403   6.277   8.976   7.694
 4721WAT      O14404   0.559   7.831   1.379
 4721WAT     H114405   0.635   7.843   1.316
 4721WAT     H214406   0.504   7.915   1.382
 4722WAT      O14407   1.439   6.178   8.559
 4722WAT     H114408   1.420   6.179   8.657
 4722WAT     H214409   1.538   6.171   8.544
 4723WAT      O14410   1.791   2.912   7.942
 4723WAT     H114411   1.817   3.008   7.925
 4723WAT     H214412   1.859   2.869   8.000
 4724WAT      O14413   6.495   3.945   7.936
 4724WAT     H114414   6.571   4.010   7.936
 4724WAT     H214415   6.508   3.878   7.863
 4725WAT      O14416   1.842   3.934   1.227
 4725WAT     H114417   1.906   4.000   1.266
 4725WAT     H214418   1.850   3.847   1.276
 4726WAT      O14419   2.283   2.955   5.001
 4726WAT     H114420   2.266   2.929   4.906
 4726WAT     H214421   2.370   3.004   5.007
 4727WAT      O14422   6.220   4.260   6.800
 4727WAT     H114423   6.136   4.268   6.746
 4727WAT     H214424   6.196   4.246   6.896
 4728WAT      O14425   8.600   3.956   9.044
 4728WAT     H114426   8.523   4.001   8.998
 4728WAT     H214427   8.620   4.003   9.130
 4729WAT      O14428   9.159   8.823   6.375
 4729WAT     H114429   9.065   8.840   6.403
 4729WAT     H214430   9.189   8.896   6.314
 4730WAT      O14431   4.041   7.253   9.676
 4730WAT     H114432   4.124   7.201   9.695
 4730WAT     H214433   3.963   7.209   9.721
 4731WAT      O14434   8.546   7.729   7.327
 4731WAT     H114435   8.506   7.667   7.259
 4731WAT     H214436   8.526   7.695   7.419
 4732WAT      O14437   8.499   1.309   6.591
 4732WAT     H114438   8.494   1.381   6.522
 4732WAT     H214439   8.413   1.303   6.640
 4733WAT      O14440   3.830   7.006   3.723
 4733WAT     H114441   3.764   7.082   3.719
 4733WAT     H214442   3.786   6.926   3.763
 4734WAT      O14443   2.583   4.215   5.256
 4734WAT     H114444   2.543   4.197   5.346
 4734WAT     H214445   2.613   4.129   5.214
 4735WAT      O14446   6.507   4.996   0.824
 4735WAT     H114447   6.488   4.929   0.895
 4735WAT     H214448   6.525   5.085   0.866
 4736WAT      O14449   5.662   9.689   6.882
 4736WAT     H114450   5.622   9.749   6.952
 4736WAT     H214451   5.761   9.699   6.882
 4737WAT      O14452   5.164   0.672   4.012
 4737WAT     H114453   5.207   0.695   4.100
 4737WAT     H214454   5.078   0.723   4.003
 4738WAT      O14455   0.382   0.329   8.858
 4738WAT     H114456   0.399   0.232   8.842
 4738WAT     H214457   0.429   0.383   8.787
 4739WAT      O14458   8.322   9.073   7.440
 4739WAT     H114459   8.384   9.014   7.388
 4739WAT     H214460   8.343   9.067   7.537
 4740WAT      O14461   5.692   4.078   7.569
 4740WAT     H114462   5.700   4.178   7.578
 4740WAT     H214463   5.723   4.051   7.477
 4741WAT      O14464   3.067   3.303   5.403
 4741WAT     H114465   3.087   3.367   5.329
 4741WAT     H214466   2.970   3.311   5.428
 4742WAT      O14467   6.566   8.896   2.413
 4742WAT     H114468   6.516   8.978   2.386
 4742WAT     H214469   6.572   8.892   2.513
 4743WAT      O14470   3.401   7.191   7.838
 4743WAT     H114471   3.337   7.264   7.813
 4743WAT     H214472   3.492   7.215   7.805
 4744WAT      O14473   4.553   7.576   1.881
 4744WAT     H114474   4.520   7.536   1.967
 4744WAT     H214475   4.530   7.516   1.805
 4745WAT      O14476   0.310   6.528   4.249
 4745WAT     H114477   0.315   6.547   4.347
 4745WAT     H214478   0.368   6.449   4.228
 4746WAT      O14479   2.747   0.964   0.997
 4746WAT     H114480   2.823   0.932   0.942
 4746WAT     H214481   2.675   1.001   0.938
 4747WAT      O14482   4.563   9.480   4.679
 4747WAT     H114483   4.582   9.422   4.759
 4747WAT     H214484   4.465   9.476   4.658
 4748WAT      O14485   7.863   1.667   0.060
 4748WAT     H114486   7.863   1.593   0.126
 4748WAT     H214487   7.957   1.684   0.029
 4749WAT      O14488   6.365   6.519   4.136
 4749WAT     H114489   6.302   6.547   4.209
 4749WAT     H214490   6.458   6.546   4.161
 4750WAT      O14491   4.278   6.255   8.897
 4750WAT     H114492   4.224   6.310   8.833
 4750WAT     H214493   4.301   6.167   8.854
 4751WAT      O14494   6.814   3.740   9.077
 4751WAT     H114495   6.888   3.726   9.011
 4751WAT     H214496   6.801   3.837   9.093
 4752WAT      O14497   4.218   2.295   3.675
 4752WAT     H114498   4.303   2.295   3.728
 4752WAT     H214499   4.191   2.201   3.655
 4753WAT      O14500   5.778   2.965   5.004
 4753WAT     H114501   5.805   3.061   5.014
 4753WAT     H214502   5.708   2.943   5.072
 4754WAT      O14503   5.451   0.467   2.935
 4754WAT     H114504   5.494   0.538   2.991
 4754WAT     H214505   5.523   0.413   2.890
 4755WAT      O14506   8.546   1.239   8.895
 4755WAT     H114507   8.486   1.198   8.964
 4755WAT     H214508   8.498   1.241   8.807
 4756WAT      O14509   9.372   4.445   9.122
 4756WAT     H114510   9.292   4.384   9.124
 4756WAT     H214511   9.342   4.538   9.105
 4757WAT      O14512   8.470   6.117   1.657
 4757WAT     H114513   8.505   6.126   1.750
 4757WAT     H214514   8.372   6.096   1.659
 4758WAT      O14515   6.991   9.001   0.198
 4758WAT     H114516   6.977   9.098   0.181
 4758WAT     H214517   7.056   8.990   0.273
 4759WAT      O14518   5.292   6.096   4.545
 4759WAT     H114519   5.353   6.035   4.595
 4759WAT     H214520   5.212   6.117   4.601
 4760WAT      O14521   3.130   7.709   9.554
 4760WAT     H114522   3.203   7.728   9.620
 4760WAT     H214523   3.115   7.790   9.497
 4761WAT      O14524   6.568   0.175   6.634
 4761WAT     H114525   6.494   0.236   6.606
 4761WAT     H214526   6.569   0.167   6.734
 4762WAT      O14527   7.076   1.336   7.146
 4762WAT     H114528   7.088   1.363   7.241
 4762WAT     H214529   7.017   1.256   7.141
 4763WAT      O14530   3.426   4.388   2.192
 4763WAT     H114531   3.412   4.338   2.106
 4763WAT     H214532   3.346   4.444   2.211
 4764WAT      O14533   4.042   8.177   8.243
 4764WAT     H114534   4.096   8.256   8.214
 4764WAT     H214535   4.103   8.106   8.278
 4765WAT      O14536   9.542   8.020   2.825
 4765WAT     H114537   9.474   8.032   2.753
 4765WAT     H214538   9.576   7.926   2.823
 4766WAT      O14539   6.411   6.314   7.493
 4766WAT     H114540   6.355   6.234   7.515
 4766WAT     H214541   6.437   6.361   7.577
 4767WAT      O14542   1.325   1.511   3.447
 4767WAT     H114543   1.232   1.548   3.454
 4767WAT     H214544   1.383   1.554   3.516
 4768WAT      O14545   7.922   4.266   0.412
 4768WAT     H114546   7.944   4.322   0.493
 4768WAT     H214547   7.854   4.314   0.356
 4769WAT      O14548   3.149   3.359   6.153
 4769WAT     H114549   3.140   3.411   6.238
 4769WAT     H214550   3.213   3.284   6.167
 4770WAT      O14551   0.007   9.426   0.853
 4770WAT     H114552   0.007   9.405   0.755
 4770WAT     H214553   0.021   9.341   0.905
 4771WAT      O14554   2.459   0.218   0.433
 4771WAT     H114555   2.406   0.155   0.489
 4771WAT     H214556   2.544   0.174   0.405
 4772WAT      O14557   3.448   6.042   4.630
 4772WAT     H114558   3.363   6.069   4.675
 4772WAT     H214559   3.428   5.994   4.545
 4773WAT      O14560   9.273   9.750   1.718
 4773WAT     H114561   9.278   9.659   1.675
 4773WAT     H214562   9.323   9.748   1.805
 4774WAT      O14563   5.844   6.116   3.051
 4774WAT     H114564   5.833   6.039   2.988
 4774WAT     H214565   5.915   6.096   3.118
 4775WAT      O14566   3.868   8.155   0.404
 4775WAT     H114567   3.923   8.193   0.330
 4775WAT     H214568   3.802   8.224   0.435
 4776WAT      O14569   4.102   1.556   3.461
 4776WAT     H114570   4.151   1.634   3.423
 4776WAT     H214571   4.116   1.553   3.560
 4777WAT      O14572   8.810   9.004   8.408
 4777WAT     H114573   8.793   9.100   8.429
 4777WAT     H214574   8.887   8.972   8.463
 4778WAT      O14575   9.077   7.493   7.390
 4778WAT     H114576   9.117   7.554   7.322
 4778WAT     H214577   8.985   7.466   7.361
 4779WAT      O14578   8.956   3.487   4.328
 4779WAT     H114579   8.889   3.422   4.364
 4779WAT     H214580   8.959   3.480   4.228
 4780WAT      O14581   4.386   2.696   2.346
 4780WAT     H114582   4.296   2.660   2.371
 4780WAT     H214583   4.456   2.654   2.405
 4781WAT      O14584   7.931   8.261   4.135
 4781WAT     H114585   7.862   8.333   4.134
 4781WAT     H214586   7.894   8.179   4.092
 4782WAT      O14587   7.252   9.659   9.385
 4782WAT     H114588   7.304   9.585   9.343
 4782WAT     H214589   7.194   9.702   9.316
 4783WAT      O14590   8.148   8.037   8.868
 4783WAT     H114591   8.141   8.054   8.770
 4783WAT     H214592   8.138   8.123   8.918
 4784WAT      O14593   2.992   2.432   1.100
 4784WAT     H114594   3.003   2.508   1.035
 4784WAT     H214595   3.033   2.349   1.061
 4785WAT      O14596   7.738   2.549   7.265
 4785WAT     H114597   7.688   2.480   7.212
 4785WAT     H214598   7.764   2.625   7.205
 4786WAT      O14599   5.006   8.117   9.311
 4786WAT     H114600   4.999   8.027   9.268
 4786WAT     H214601   5.000   8.108   9.410
 4787WAT      O14602   4.798   0.188   2.708
 4787WAT     H114603   4.738   0.232   2.641
 4787WAT     H214604   4.804   0.244   2.790
 4788WAT      O14605   5.690   2.757   2.874
 4788WAT     H114606   5.760   2.767   2.945
 4788WAT     H214607   5.631   2.838   2.875
 4789WAT      O14608   3.758   8.156   3.317
 4789WAT     H114609   3.840   8.134   3.369
 4789WAT     H214610   3.699   8.076   3.312
 4790WAT      O14611   4.155   1.187   6.966
 4790WAT     H114612   4.082   1.221   6.907
 4790WAT     H214613   4.199   1.107   6.923
 4791WAT      O14614   0.675   5.277   9.066
 4791WAT     H114615   0.663   5.197   9.125
 4791WAT     H214616   0.703   5.246   8.975
 4792WAT      O14617   2.119   3.864   8.083
 4792WAT     H114618   2.057   3.825   8.015
 4792WAT     H214619   2.069   3.884   8.167
 4793WAT      O14620   6.539   3.221   6.613
 4793WAT     H114621   6.508   3.156   6.682
 4793WAT     H214622   6.521   3.314   6.645
 4794WAT      O14623   5.241   7.686   0.593
 4794WAT     H114624   5.249   7.753   0.519
 4794WAT     H214625   5.145   7.669   0.613
 4795WAT      O14626   3.962   0.334   4.672
 4795WAT     H114627   3.943   0.309   4.577
 4795WAT     H214628   4.061   0.343   4.684
 4796WAT      O14629   4.144   1.593   0.765
 4796WAT     H114630   4.120   1.518   0.704
 4796WAT     H214631   4.101   1.579   0.854
 4797WAT      O14632   8.627   3.754   5.355
 4797WAT     H114633   8.635   3.655   5.342
 4797WAT     H214634   8.568   3.793   5.285
 4798WAT      O14635   8.377   3.980   2.642
 4798WAT     H114636   8.399   4.031   2.559
 4798WAT     H214637   8.304   3.914   2.622
 4799WAT      O14638   8.816   4.861   1.741
 4799WAT     H114639   8.822   4.875   1.840
 4799WAT     H214640   8.902   4.825   1.706
 4800WAT      O14641   8.003   1.568   5.200
 4800WAT     H114642   7.911   1.531   5.191
 4800WAT     H214643   8.065   1.519   5.139
 4801WAT      O14644   3.194   2.558   2.057
 4801WAT     H114645   3.285   2.550   2.018
 4801WAT     H214646   3.200   2.559   2.157
 4802WAT      O14647   5.289   2.136   9.457
 4802WAT     H114648   5.219   2.084   9.410
 4802WAT     H214649   5.380   2.106   9.426
 4803WAT      O14650   6.955   1.023   2.451
 4803WAT     H114651   6.870   0.980   2.419
 4803WAT     H214652   7.010   1.051   2.372
 4804WAT      O14653   3.663   9.158   1.929
 4804WAT     H114654   3.708   9.171   1.841
 4804WAT     H214655   3.663   9.245   1.979
 4805WAT      O14656   2.852   9.355   9.536
 4805WAT     H114657   2.870   9.445   9.574
 4805WAT     H214658   2.906   9.287   9.586
 4806WAT      O14659   9.572   9.671   6.765
 4806WAT     H114660   9.630   9.667   6.847
 4806WAT     H214661   9.620   9.630   6.688
 4807WAT      O14662   1.695   4.430   4.165
 4807WAT     H114663   1.762   4.363   4.198
 4807WAT     H214664   1.634   4.456   4.240
 4808WAT      O14665   0.748   5.118   7.578
 4808WAT     H114666   0.783   5.172   7.501
 4808WAT     H214667   0.729   5.025   7.546
 4809WAT      O14668   8.419   3.402   4.868
 4809WAT     H114669   8.482   3.474   4.837
 4809WAT     H214670   8.390   3.422   4.962
 4810WAT      O14671   7.642   5.000   9.029
 4810WAT     H114672   7.733   5.029   8.998
 4810WAT     H214673   7.649   4.910   9.073
 4811WAT      O14674   5.253   6.136   4.280
 4811WAT     H114675   5.194   6.077   4.224
 4811WAT     H214676   5.237   6.118   4.377
 4812WAT      O14677   3.710   7.681   0.600
 4812WAT     H114678   3.767   7.606   0.566
 4812WAT     H214679   3.710   7.756   0.533
 4813WAT      O14680   1.205   7.215   1.830
 4813WAT     H114681   1.124   7.257   1.869
 4813WAT     H214682   1.280   7.281   1.827
 4814WAT      O14683   1.063   0.794   5.804
 4814WAT     H114684   1.134   0.726   5.784
 4814WAT     H214685   1.079   0.833   5.894
 4815WAT      O14686   5.276   4.983   1.460
 4815WAT     H114687   5.189   5.033   1.459
 4815WAT     H214688   5.331   5.014   1.537
 4816WAT      O14689   8.117   7.105   7.870
 4816WAT     H114690   8.126   7.154   7.783
 4816WAT     H214691   8.047   7.149   7.926
 4817WAT      O14692   9.173   5.379   0.839
 4817WAT     H114693   9.265   5.363   0.802
 4817WAT     H214694   9.152   5.309   0.907
 4818WAT      O14695   3.994   4.282   0.861
 4818WAT     H114696   3.898   4.310   0.862
 4818WAT     H214697   4.018   4.248   0.770
 4819WAT      O14698   9.872   9.077   3.022
 4819WAT     H114699   9.923   9.050   3.104
 4819WAT     H214700   9.874   9.003   2.955
 4820WAT      O14701   1.396   5.088   5.384
 4820WAT     H114702   1.358   5.129   5.468
 4820WAT     H214703   1.449   5.007   5.408
 4821WAT      O14704   6.130   4.033   0.310
 4821WAT     H114705   6.057   4.034   0.378
 4821WAT     H214706   6.149   3.938   0.282
 4822WAT      O14707   3.496   8.345   6.224
 4822WAT     H114708   3.439   8.364   6.145
 4822WAT     H214709   3.562   8.420   6.237
 4823WAT      O14710   2.413   7.095   0.246
 4823WAT     H114711   2.326   7.108   0.292
 4823WAT     H214712   2.476   7.168   0.273
 4824WAT      O14713   4.855   8.946   9.170
 4824WAT     H114714   4.789   8.871   9.165
 4824WAT     H214715   4.876   8.965   9.266
 4825WAT      O14716   6.005   6.308   5.956
 4825WAT     H114717   6.029   6.381   6.019
 4825WAT     H214718   5.930   6.339   5.897
 4826WAT      O14719   1.543   4.794   8.408
 4826WAT     H114720   1.590   4.717   8.364
 4826WAT     H214721   1.527   4.866   8.341
 4827WAT      O14722   0.902   3.498   0.452
 4827WAT     H114723   0.899   3.596   0.437
 4827WAT     H214724   0.919   3.478   0.548
 4828WAT      O14725   5.435   6.669   3.983
 4828WAT     H114726   5.482   6.752   3.952
 4828WAT     H214727   5.467   6.591   3.929
 4829WAT      O14728   2.788   7.479   2.559
 4829WAT     H114729   2.887   7.472   2.565
 4829WAT     H214730   2.746   7.417   2.626
 4830WAT      O14731   4.935   4.332   7.399
 4830WAT     H114732   4.932   4.349   7.498
 4830WAT     H214733   4.847   4.297   7.369
 4831WAT      O14734   2.065   1.359   0.334
 4831WAT     H114735   1.993   1.348   0.402
 4831WAT     H214736   2.028   1.406   0.254
 4832WAT      O14737   4.664   2.575   4.981
 4832WAT     H114738   4.653   2.481   4.948
 4832WAT     H214739   4.577   2.609   5.014
 4833WAT      O14740   8.540   2.226   8.980
 4833WAT     H114741   8.598   2.245   9.059
 4833WAT     H214742   8.453   2.274   8.991
 4834WAT      O14743   2.681   7.146   3.043
 4834WAT     H114744   2.690   7.238   3.002
 4834WAT     H214745   2.756   7.088   3.011
 4835WAT      O14746   2.389   8.006   2.087
 4835WAT     H114747   2.348   7.968   2.170
 4835WAT     H214748   2.397   7.934   2.018
 4836WAT      O14749   1.098   0.236   1.766
 4836WAT     H114750   1.161   0.272   1.698
 4836WAT     H214751   1.083   0.305   1.838
 4837WAT      O14752   2.507   8.499   5.600
 4837WAT     H114753   2.559   8.533   5.678
 4837WAT     H214754   2.536   8.546   5.517
 4838WAT      O14755   3.563   3.110   9.230
 4838WAT     H114756   3.632   3.176   9.260
 4838WAT     H214757   3.472   3.147   9.247
 4839WAT      O14758   8.779   5.922   6.542
 4839WAT     H114759   8.708   5.854   6.523
 4839WAT     H214760   8.859   5.904   6.485
 4840WAT      O14761   8.339   4.541   9.687
 4840WAT     H114762   8.252   4.583   9.664
 4840WAT     H214763   8.346   4.529   9.786
 4841WAT      O14764   6.645   8.039   6.366
 4841WAT     H114765   6.639   7.950   6.322
 4841WAT     H214766   6.571   8.098   6.335
 4842WAT      O14767   4.512   9.671   3.156
 4842WAT     H114768   4.571   9.623   3.091
 4842WAT     H214769   4.540   9.767   3.162
 4843WAT      O14770   9.754   9.136   8.048
 4843WAT     H114771   9.788   9.208   7.988
 4843WAT     H214772   9.727   9.175   8.136
 4844WAT      O14773   3.283   8.371   5.713
 4844WAT     H114774   3.309   8.442   5.778
 4844WAT     H214775   3.191   8.389   5.678
 4845WAT      O14776   4.441   0.925   4.453
 4845WAT     H114777   4.530   0.948   4.415
 4845WAT     H214778   4.423   0.828   4.440
 4846WAT      O14779   3.332   4.147   3.012
 4846WAT     H114780   3.280   4.091   3.076
 4846WAT     H214781   3.316   4.244   3.031
 4847WAT      O14782   7.291   9.168   4.521
 4847WAT     H114783   7.362   9.099   4.509
 4847WAT     H214784   7.222   9.157   4.450
 4848WAT      O14785   0.746   4.687   5.709
 4848WAT     H114786   0.816   4.666   5.776
 4848WAT     H214787   0.759   4.781   5.675
 4849WAT      O14788   7.411   4.281   1.311
 4849WAT     H114789   7.324   4.325   1.291
 4849WAT     H214790   7.396   4.183   1.324
 4850WAT      O14791   2.954   9.179   4.824
 4850WAT     H114792   2.942   9.118   4.746
 4850WAT     H214793   3.041   9.227   4.817
 4851WAT      O14794   0.395   2.440   8.456
 4851WAT     H114795   0.355   2.427   8.365
 4851WAT     H214796   0.403   2.352   8.502
 4852WAT      O14797   8.946   5.878   1.206
 4852WAT     H114798   8.946   5.945   1.280
 4852WAT     H214799   8.852   5.860   1.177
 4853WAT      O14800   4.002   0.082   0.950
 4853WAT     H114801   4.049  -0.003   0.927
 4853WAT     H214802   3.924   0.062   1.009
 4854WAT      O14803   6.412   8.763   2.922
 4854WAT     H114804   6.417   8.845   2.866
 4854WAT     H214805   6.450   8.686   2.872
 4855WAT      O14806   6.429   1.098   7.632
 4855WAT     H114807   6.472   1.071   7.719
 4855WAT     H214808   6.497   1.139   7.572
 4856WAT      O14809   7.543   5.103   3.801
 4856WAT     H114810   7.620   5.056   3.758
 4856WAT     H214811   7.457   5.059   3.774
 4857WAT      O14812   5.062   6.248   1.198
 4857WAT     H114813   5.033   6.220   1.107
 4857WAT     H214814   5.054   6.170   1.261
 4858WAT      O14815   3.771   1.793   7.225
 4858WAT     H114816   3.830   1.851   7.280
 4858WAT     H214817   3.806   1.699   7.226
 4859WAT      O14818   7.360   9.569   1.558
 4859WAT     H114819   7.440   9.517   1.587
 4859WAT     H214820   7.368   9.664   1.589
 4860WAT      O14821   0.329   8.977   0.109
 4860WAT     H114822   0.311   8.960   0.012
 4860WAT     H214823   0.391   8.906   0.144
 4861WAT      O14824   6.695   1.917   1.181
 4861WAT     H114825   6.723   1.934   1.087
 4861WAT     H214826   6.759   1.962   1.244
 4862WAT      O14827   9.143   4.897   0.968
 4862WAT     H114828   9.074   4.843   0.920
 4862WAT     H214829   9.115   4.993   0.969
 4863WAT      O14830   9.575   8.244   1.710
 4863WAT     H114831   9.630   8.211   1.635
 4863WAT     H214832   9.608   8.206   1.796
 4864WAT      O14833   5.165   1.297   9.317
 4864WAT     H114834   5.226   1.303   9.396
 4864WAT     H214835   5.206   1.240   9.246
 4865WAT      O14836   4.636   6.240   9.037
 4865WAT     H114837   4.648   6.202   9.128
 4865WAT     H214838   4.593   6.330   9.043
 4866WAT      O14839   2.742   6.571   8.830
 4866WAT     H114840   2.830   6.580   8.877
 4866WAT     H214841   2.672   6.545   8.896
 4867WAT      O14842   0.292   6.506   9.403
 4867WAT     H114843   0.209   6.458   9.432
 4867WAT     H214844   0.352   6.442   9.356
 4868WAT      O14845   4.273   9.587   2.991
 4868WAT     H114846   4.209   9.511   3.000
 4868WAT     H214847   4.312   9.608   3.080
 4869WAT      O14848   9.440   3.534   6.265
 4869WAT     H114849   9.439   3.632   6.284
 4869WAT     H214850   9.399   3.485   6.342
 4870WAT      O14851   4.787   0.656   5.867
 4870WAT     H114852   4.816   0.742   5.908
 4870WAT     H214853   4.688   0.646   5.877
 4871WAT      O14854   3.811   0.145   9.232
 4871WAT     H114855   3.782   0.238   9.256
 4871WAT     H214856   3.774   0.081   9.298
 4872WAT      O14857   3.343   9.541   8.612
 4872WAT     H114858   3.428   9.577   8.573
 4872WAT     H214859   3.268   9.606   8.595
 4873WAT      O14860   5.221   9.675   4.900
 4873WAT     H114861   5.142   9.633   4.944
 4873WAT     H214862   5.261   9.610   4.836
 4874WAT      O14863   5.045   9.618   7.015
 4874WAT     H114864   5.045   9.717   7.027
 4874WAT     H214865   5.048   9.574   7.105
 4875WAT      O14866   4.580   5.931   9.873
 4875WAT     H114867   4.531   5.893   9.794
 4875WAT     H214868   4.514   5.950   9.946
 4876WAT      O14869   7.008   1.658   6.991
 4876WAT     H114870   6.991   1.709   6.906
 4876WAT     H214871   7.042   1.567   6.969
 4877WAT      O14872   4.753   5.728   9.835
 4877WAT     H114873   4.695   5.807   9.856
 4877WAT     H214874   4.823   5.754   9.768
 4878WAT      O14875   4.276   0.074   7.129
 4878WAT     H114876   4.365   0.097   7.169
 4878WAT     H214877   4.236  -0.004   7.178
 4879WAT      O14878   1.947   5.334   3.417
 4879WAT     H114879   1.896   5.347   3.332
 4879WAT     H214880   1.962   5.423   3.461
 4880WAT      O14881   2.617   8.964   0.412
 4880WAT     H114882   2.558   9.040   0.388
 4880WAT     H214883   2.712   8.989   0.395
 4881WAT      O14884   4.274   8.265   5.628
 4881WAT     H114885   4.228   8.195   5.682
 4881WAT     H214886   4.351   8.302   5.679
 4882WAT      O14887   1.673   4.520   8.341
 4882WAT     H114888   1.749   4.457   8.323
 4882WAT     H214889   1.591   4.466   8.362
 4883WAT      O14890   6.077   5.587   9.442
 4883WAT     H114891   5.998   5.574   9.383
 4883WAT     H214892   6.151   5.525   9.414
 4884WAT      O14893   1.730   7.885   9.438
 4884WAT     H114894   1.723   7.982   9.413
 4884WAT     H214895   1.662   7.865   9.509
 4885WAT      O14896   3.127   7.001   0.905
 4885WAT     H114897   3.095   6.935   0.974
 4885WAT     H214898   3.072   6.992   0.822
 4886WAT      O14899   7.434   1.797   2.070
 4886WAT     H114900   7.350   1.761   2.030
 4886WAT     H214901   7.414   1.844   2.156
 4887WAT      O14902   2.870   3.255   5.889
 4887WAT     H114903   2.826   3.230   5.975
 4887WAT     H214904   2.801   3.287   5.824
 4888WAT      O14905   3.082   2.307   4.391
 4888WAT     H114906   3.085   2.235   4.460
 4888WAT     H214907   3.159   2.297   4.328
 4889WAT      O14908   6.745   8.475   5.792
 4889WAT     H114909   6.751   8.517   5.701
 4889WAT     H214910   6.665   8.512   5.840
 4890WAT      O14911   2.053   3.409   3.251
 4890WAT     H114912   2.040   3.338   3.320
 4890WAT     H214913   1.970   3.465   3.243
 4891WAT      O14914   8.240   0.741   2.585
 4891WAT     H114915   8.302   0.682   2.636
 4891WAT     H214916   8.224   0.825   2.637
 4892WAT      O14917   6.149   2.577   0.463
 4892WAT     H114918   6.190   2.519   0.393
 4892WAT     H214919   6.186   2.554   0.552
 4893WAT      O14920   6.083   2.866   9.550
 4893WAT     H114921   6.082   2.950   9.604
 4893WAT     H214922   6.163   2.865   9.491
 4894WAT      O14923   9.668   3.319   7.672
 4894WAT     H114924   9.705   3.402   7.630
 4894WAT     H214925   9.656   3.334   7.771
 4895WAT      O14926   7.879   1.031   7.801
 4895WAT     H114927   7.831   1.106   7.754
 4895WAT     H214928   7.812   0.964   7.833
 4896WAT      O14929   3.480   0.246   9.589
 4896WAT     H114930   3.507   0.338   9.564
 4896WAT     H214931   3.385   0.229   9.561
 4897WAT      O14932   3.850   7.197   1.422
 4897WAT     H114933   3.862   7.112   1.370
 4897WAT     H214934   3.753   7.218   1.429
 4898WAT      O14935   6.468   1.043   3.964
 4898WAT     H114936   6.549   1.099   3.984
 4898WAT     H214937   6.386   1.100   3.971
 4899WAT      O14938   0.212   2.313   4.383
 4899WAT     H114939   0.237   2.221   4.351
 4899WAT     H214940   0.115   2.314   4.408
 4900WAT      O14941   2.833   7.845   6.791
 4900WAT     H114942   2.744   7.798   6.796
 4900WAT     H214943   2.842   7.909   6.867
 4901WAT      O14944   4.336   3.666   5.851
 4901WAT     H114945   4.287   3.753   5.861
 4901WAT     H214946   4.432   3.685   5.827
 4902WAT      O14947   7.950   0.007   3.489
 4902WAT     H114948   8.015  -0.044   3.545
 4902WAT     H214949   7.894   0.066   3.547
 4903WAT      O14950   0.846   7.503   7.764
 4903WAT     H114951   0.790   7.446   7.704
 4903WAT     H214952   0.942   7.477   7.755
 4904WAT      O14953   3.102   1.282   1.808
 4904WAT     H114954   3.192   1.278   1.765
 4904WAT     H214955   3.088   1.373   1.848
 4905WAT      O14956   3.430   6.697   3.228
 4905WAT     H114957   3.402   6.727   3.319
 4905WAT     H214958   3.519   6.652   3.233
 4906WAT      O14959   5.589   2.431   3.802
 4906WAT     H114960   5.571   2.392   3.711
 4906WAT     H214961   5.557   2.367   3.872
 4907WAT      O14962   8.405   9.184   1.358
 4907WAT     H114963   8.439   9.200   1.452
 4907WAT     H214964   8.306   9.196   1.356
 4908WAT      O14965   6.745   6.370   8.289
 4908WAT     H114966   6.723   6.342   8.382
 4908WAT     H214967   6.761   6.469   8.287
 4909WAT      O14968   2.545   7.883   5.244
 4909WAT     H114969   2.556   7.807   5.308
 4909WAT     H214970   2.631   7.899   5.196
 4910WAT      O14971   1.833   2.520   0.473
 4910WAT     H114972   1.775   2.572   0.410
 4910WAT     H214973   1.793   2.429   0.487
 4911WAT      O14974   7.630   8.463   5.314
 4911WAT     H114975   7.552   8.401   5.306
 4911WAT     H214976   7.623   8.535   5.244
 4912WAT      O14977   7.141   9.684   2.398
 4912WAT     H114978   7.208   9.676   2.325
 4912WAT     H214979   7.061   9.735   2.365
 4913WAT      O14980   7.953   5.300   1.273
 4913WAT     H114981   7.966   5.399   1.275
 4913WAT     H214982   7.935   5.267   1.366
 4914WAT      O14983   3.906   0.119   5.032
 4914WAT     H114984   3.910   0.063   5.115
 4914WAT     H214985   3.932   0.213   5.054
 4915WAT      O14986   6.465   2.690   1.783
 4915WAT     H114987   6.496   2.621   1.718
 4915WAT     H214988   6.538   2.710   1.848
 4916WAT      O14989   7.106   1.286   3.635
 4916WAT     H114990   7.106   1.207   3.574
 4916WAT     H214991   7.028   1.279   3.697
 4917WAT      O14992   1.047   7.854   1.301
 4917WAT     H114993   1.000   7.871   1.387
 4917WAT     H214994   1.109   7.776   1.311
 4918WAT      O14995   0.858   3.882   7.906
 4918WAT     H114996   0.904   3.947   7.847
 4918WAT     H214997   0.781   3.927   7.952
 4919WAT      O14998   1.606   5.737   3.242
 4919WAT     H114999   1.543   5.769   3.172
 4919WAT     H215000   1.629   5.813   3.304
 4920WAT      O15001   2.545   7.213   9.075
 4920WAT     H115002   2.543   7.122   9.117
 4920WAT     H215003   2.607   7.272   9.127
 4921WAT      O15004   2.236   2.535   0.708
 4921WAT     H115005   2.323   2.579   0.687
 4921WAT     H215006   2.187   2.589   0.777
 4922WAT      O15007   3.149   1.061   0.727
 4922WAT     H115008   3.071   1.005   0.754
 4922WAT     H215009   3.232   1.007   0.731
 4923WAT      O15010   9.236   5.881   2.175
 4923WAT     H115011   9.158   5.888   2.238
 4923WAT     H215012   9.291   5.802   2.199
 4924WAT      O15013   3.907   3.413   7.791
 4924WAT     H115014   3.925   3.442   7.885
 4924WAT     H215015   3.898   3.313   7.788
 4925WAT      O15016   3.549   2.139   5.236
 4925WAT     H115017   3.482   2.079   5.280
 4925WAT     H215018   3.628   2.151   5.297
 4926WAT      O15019   1.383   6.197   7.861
 4926WAT     H115020   1.344   6.193   7.954
 4926WAT     H215021   1.481   6.183   7.866
 4927WAT      O15022   5.781   5.975   6.224
 4927WAT     H115023   5.793   6.067   6.186
 4927WAT     H215024   5.781   5.908   6.149
 4928WAT      O15025   1.758   6.686   6.528
 4928WAT     H115026   1.699   6.689   6.609
 4928WAT     H215027   1.789   6.592   6.513
 4929WAT      O15028   4.872   9.304   7.246
 4929WAT     H115029   4.944   9.238   7.266
 4929WAT     H215030   4.798   9.259   7.197
 4930WAT      O15031   4.432   9.800   4.860
 4930WAT     H115032   4.429   9.899   4.870
 4930WAT     H215033   4.484   9.776   4.778
 4931WAT      O15034   6.642   3.306   4.448
 4931WAT     H115035   6.599   3.221   4.418
 4931WAT     H215036   6.572   3.372   4.474
 4932WAT      O15037   0.706   3.845   8.394
 4932WAT     H115038   0.749   3.935   8.390
 4932WAT     H215039   0.612   3.855   8.427
 4933WAT      O15040   0.707   7.650   0.826
 4933WAT     H115041   0.629   7.711   0.813
 4933WAT     H215042   0.732   7.647   0.922
 4934WAT      O15043   6.914   2.881   2.174
 4934WAT     H115044   6.987   2.902   2.239
 4934WAT     H215045   6.864   2.965   2.152
 4935WAT      O15046   5.947   0.665   9.540
 4935WAT     H115047   6.031   0.717   9.557
 4935WAT     H215048   5.872   0.705   9.593
 4936WAT      O15049   6.275   6.754   1.775
 4936WAT     H115050   6.347   6.737   1.707
 4936WAT     H215051   6.187   6.765   1.728
 4937WAT      O15052   2.220   2.379   7.851
 4937WAT     H115053   2.187   2.460   7.899
 4937WAT     H215054   2.177   2.374   7.760
 4938WAT      O15055   6.713   3.796   8.626
 4938WAT     H115056   6.713   3.860   8.550
 4938WAT     H215057   6.720   3.702   8.591
 4939WAT      O15058   5.697   6.144   9.248
 4939WAT     H115059   5.667   6.222   9.303
 4939WAT     H215060   5.773   6.097   9.293
 4940WAT      O15061   7.272   7.491   3.455
 4940WAT     H115062   7.289   7.575   3.403
 4940WAT     H215063   7.332   7.418   3.422
 4941WAT      O15064   6.273   1.040   8.431
 4941WAT     H115065   6.184   1.069   8.466
 4941WAT     H215066   6.302   0.957   8.478
 4942WAT      O15067   5.789   9.360   5.519
 4942WAT     H115068   5.871   9.315   5.485
 4942WAT     H215069   5.749   9.417   5.447
 4943WAT      O15070   6.849   4.960   2.705
 4943WAT     H115071   6.923   4.894   2.719
 4943WAT     H215072   6.792   4.930   2.628
 4944WAT      O15073   4.424   2.769   0.422
 4944WAT     H115074   4.405   2.674   0.398
 4944WAT     H215075   4.437   2.823   0.339
 4945WAT      O15076   7.863   7.945   3.391
 4945WAT     H115077   7.893   7.928   3.297
 4945WAT     H215078   7.924   8.011   3.434
 4946WAT      O15079   8.908   2.231   8.546
 4946WAT     H115080   8.863   2.298   8.488
 4946WAT     H215081   8.868   2.234   8.638
 4947WAT      O15082   7.796   3.053   4.312
 4947WAT     H115083   7.756   3.144   4.322
 4947WAT     H215084   7.837   3.025   4.399
 4948WAT      O15085   0.722   4.408   3.810
 4948WAT     H115086   0.804   4.371   3.854
 4948WAT     H215087   0.748   4.464   3.732
 4949WAT      O15088   3.779   6.982   1.792
 4949WAT     H115089   3.708   6.932   1.841
 4949WAT     H215090   3.797   7.069   1.839
 4950WAT      O15091   3.907   9.486   4.726
 4950WAT     H115092   3.830   9.464   4.666
 4950WAT     H215093   3.909   9.584   4.742
 4951WAT      O15094   4.464   1.564   5.572
 4951WAT     H115095   4.528   1.488   5.564
 4951WAT     H215096   4.477   1.610   5.660
 4952WAT      O15097   5.192   5.306   1.190
 4952WAT     H115098   5.207   5.331   1.286
 4952WAT     H215099   5.095   5.290   1.174
 4953WAT      O15100   5.088   8.942   9.355
 4953WAT     H115101   5.167   8.928   9.415
 4953WAT     H215102   5.119   8.941   9.260
 4954WAT      O15103   9.604   3.875   9.761
 4954WAT     H115104   9.666   3.805   9.795
 4954WAT     H215105   9.583   3.858   9.665
 4955WAT      O15106   8.816   8.578   7.515
 4955WAT     H115107   8.895   8.519   7.499
 4955WAT     H215108   8.769   8.549   7.599
 4956WAT      O15109   2.377   8.843   4.258
 4956WAT     H115110   2.337   8.932   4.239
 4956WAT     H215111   2.366   8.821   4.355
 4957WAT      O15112   1.347   8.601   6.542
 4957WAT     H115113   1.316   8.521   6.594
 4957WAT     H215114   1.410   8.572   6.470
 4958WAT      O15115   2.726   6.626   4.918
 4958WAT     H115116   2.792   6.698   4.939
 4958WAT     H215117   2.636   6.653   4.951
 4959WAT      O15118   4.464   0.204   2.798
 4959WAT     H115119   4.474   0.186   2.700
 4959WAT     H215120   4.369   0.225   2.818
 4960WAT      O15121   2.231   3.055   4.339
 4960WAT     H115122   2.193   3.126   4.397
 4960WAT     H215123   2.289   2.994   4.394
 4961WAT      O15124   2.500   9.446   8.576
 4961WAT     H115125   2.442   9.376   8.618
 4961WAT     H215126   2.455   9.534   8.582
 4962WAT      O15127   7.879   8.860   5.763
 4962WAT     H115128   7.947   8.811   5.818
 4962WAT     H215129   7.883   8.826   5.669
 4963WAT      O15130   9.091   0.305   8.334
 4963WAT     H115131   9.184   0.284   8.366
 4963WAT     H215132   9.068   0.399   8.359
 4964WAT      O15133   8.524   5.018   8.062
 4964WAT     H115134   8.472   4.942   8.099
 4964WAT     H215135   8.611   5.026   8.113
 4965WAT      O15136   6.355   7.095   7.721
 4965WAT     H115137   6.344   7.148   7.806
 4965WAT     H215138   6.285   7.023   7.718
 4966WAT      O15139   4.266   6.625   9.844
 4966WAT     H115140   4.262   6.561   9.921
 4966WAT     H215141   4.318   6.585   9.769
 4967WAT      O15142   6.055   7.528   8.252
 4967WAT     H115143   6.103   7.511   8.165
 4967WAT     H215144   6.019   7.621   8.252
 4968WAT      O15145   2.756   7.730   4.602
 4968WAT     H115146   2.738   7.709   4.698
 4968WAT     H215147   2.737   7.827   4.585
 4969WAT      O15148   3.856   8.759   8.080
 4969WAT     H115149   3.913   8.779   8.000
 4969WAT     H215150   3.849   8.660   8.092
 4970WAT      O15151   2.992   6.637   5.260
 4970WAT     H115152   3.040   6.725   5.265
 4970WAT     H215153   3.058   6.562   5.263
 4971WAT      O15154   8.844   8.180   0.931
 4971WAT     H115155   8.884   8.271   0.915
 4971WAT     H215156   8.828   8.135   0.843
 4972WAT      O15157   1.118   6.485   6.153
 4972WAT     H115158   1.048   6.489   6.224
 4972WAT     H215159   1.077   6.452   6.068
 4973WAT      O15160   2.515   2.445   7.777
 4973WAT     H115161   2.432   2.393   7.755
 4973WAT     H215162   2.590   2.381   7.796
 4974WAT      O15163   1.591   0.984   8.224
 4974WAT     H115164   1.643   0.944   8.148
 4974WAT     H215165   1.628   0.950   8.311
 4975WAT      O15166   6.619   4.795   4.971
 4975WAT     H115167   6.532   4.814   4.924
 4975WAT     H215168   6.651   4.704   4.946
 4976WAT      O15169   6.606   2.106   1.626
 4976WAT     H115170   6.621   2.195   1.668
 4976WAT     H215171   6.550   2.116   1.544
 4977WAT      O15172   6.359   5.072   1.277
 4977WAT     H115173   6.304   5.152   1.253
 4977WAT     H215174   6.394   5.082   1.370
 4978WAT      O15175   1.009   9.148   1.704
 4978WAT     H115176   1.083   9.081   1.703
 4978WAT     H215177   1.047   9.241   1.702
 4979WAT      O15178   5.670   4.371   7.561
 4979WAT     H115179   5.718   4.454   7.530
 4979WAT     H215180   5.582   4.397   7.602
 4980WAT      O15181   0.442   5.757   3.542
 4980WAT     H115182   0.542   5.757   3.538
 4980WAT     H215183   0.405   5.788   3.454
 4981WAT      O15184   4.537   3.519   9.759
 4981WAT     H115185   4.463   3.582   9.734
 4981WAT     H215186   4.615   3.572   9.795
 4982WAT      O15187   0.314   9.417   4.328
 4982WAT     H115188   0.288   9.453   4.239
 4982WAT     H215189   0.402   9.457   4.356
 4983WAT      O15190   6.870   5.030   4.523
 4983WAT     H115191   6.828   5.073   4.603
 4983WAT     H215192   6.867   5.094   4.446
 4984WAT      O15193   0.528   0.783   5.358
 4984WAT     H115194   0.437   0.779   5.318
 4984WAT     H215195   0.597   0.789   5.286
 4985WAT      O15196   8.559   4.332   4.601
 4985WAT     H115197   8.563   4.318   4.700
 4985WAT     H215198   8.596   4.422   4.579
 4986WAT      O15199   7.558   2.105   9.285
 4986WAT     H115200   7.553   2.057   9.197
 4986WAT     H215201   7.577   2.202   9.269
 4987WAT      O15202   5.789   1.236   8.997
 4987WAT     H115203   5.800   1.233   9.097
 4987WAT     H215204   5.811   1.327   8.963
 4988WAT      O15205   7.594   3.061   2.644
 4988WAT     H115206   7.645   3.122   2.584
 4988WAT     H215207   7.572   3.109   2.729
 4989WAT      O15208   5.007   6.682   5.910
 4989WAT     H115209   4.972   6.591   5.932
 4989WAT     H215210   4.937   6.735   5.863
 4990WAT      O15211   4.239   3.719   4.578
 4990WAT     H115212   4.266   3.776   4.501
 4990WAT     H215213   4.140   3.706   4.577
 4991WAT      O15214   5.431   9.395   9.035
 4991WAT     H115215   5.456   9.474   9.090
 4991WAT     H215216   5.376   9.424   8.957
 4992WAT      O15217   1.149   3.536   7.760
 4992WAT     H115218   1.101   3.591   7.693
 4992WAT     H215219   1.125   3.566   7.852
 4993WAT      O15220   1.404   0.883   4.089
 4993WAT     H115221   1.393   0.834   4.175
 4993WAT     H215222   1.437   0.819   4.019
 4994WAT      O15223   5.023   9.429   3.380
 4994WAT     H115224   4.971   9.442   3.464
 4994WAT     H215225   5.059   9.336   3.377
 4995WAT      O15226   3.173   7.267   6.504
 4995WAT     H115227   3.209   7.330   6.573
 4995WAT     H215228   3.077   7.247   6.525
 4996WAT      O15229   4.686   5.416   6.435
 4996WAT     H115230   4.683   5.481   6.511
 4996WAT     H215231   4.739   5.335   6.462
 4997WAT      O15232   5.394   6.474   1.268
 4997WAT     H115233   5.448   6.554   1.242
 4997WAT     H215234   5.455   6.397   1.287
 4998WAT      O15235   7.327   6.096   8.762
 4998WAT     H115236   7.420   6.101   8.800
 4998WAT     H215237   7.263   6.139   8.826
 4999WAT      O15238   7.180   0.656   0.066
 4999WAT     H115239   7.267   0.690   0.101
 4999WAT     H215240   7.147   0.582   0.126
 5000WAT      O15241   5.422   1.067   2.560
 5000WAT     H115242   5.371   1.109   2.485
 5000WAT     H215243   5.361   1.054   2.638
 5001WAT      O15244   3.565   6.553   2.168
 5001WAT     H115245   3.596   6.589   2.256
 5001WAT     H215246   3.465   6.559   2.163
 5002WAT      O15247   0.201   6.608   1.694
 5002WAT     H115248   0.204   6.508   1.696
 5002WAT     H215249   0.119   6.638   1.645
 5003WAT      O15250   4.317   0.370   4.128
 5003WAT     H115251   4.307   0.318   4.213
 5003WAT     H215252   4.233   0.421   4.111
 5004WAT      O15253   7.093   2.265   0.470
 5004WAT     H115254   7.134   2.179   0.438
 5004WAT     H215255   7.090   2.331   0.395
 5005WAT      O15256   2.758   9.714   6.028
 5005WAT     H115257   2.711   9.731   5.941
 5005WAT     H215258   2.721   9.631   6.070
 5006WAT      O15259   8.361   1.450   0.513
 5006WAT     H115260   8.315   1.479   0.597
 5006WAT     H215261   8.331   1.357   0.489
 5007WAT      O15262   9.227   2.438   4.683
 5007WAT     H115263   9.259   2.489   4.763
 5007WAT     H215264   9.228   2.497   4.603
 5008WAT      O15265   6.848   8.401   8.205
 5008WAT     H115266   6.756   8.439   8.200
 5008WAT     H215267   6.881   8.406   8.300
 5009WAT      O15268   4.792   8.146   7.814
 5009WAT     H115269   4.823   8.112   7.902
 5009WAT     H215270   4.776   8.069   7.752
 5010WAT      O15271   5.153   0.801   0.013
 5010WAT     H115272   5.073   0.741   0.017
 5010WAT     H215273   5.208   0.777  -0.068
 5011WAT      O15274   4.039   0.117   1.305
 5011WAT     H115275   3.945   0.111   1.271
 5011WAT     H215276   4.099   0.152   1.233
 5012WAT      O15277   4.394   3.545   0.754
 5012WAT     H115278   4.415   3.630   0.803
 5012WAT     H215279   4.297   3.525   0.763
 5013WAT      O15280   1.627   5.887   8.186
 5013WAT     H115281   1.543   5.908   8.235
 5013WAT     H215282   1.696   5.855   8.250
 5014WAT      O15283   9.529   5.724   6.102
 5014WAT     H115284   9.552   5.683   6.191
 5014WAT     H215285   9.596   5.795   6.081
 5015WAT      O15286   2.988   9.234   0.985
 5015WAT     H115287   2.918   9.201   1.048
 5015WAT     H215288   2.947   9.302   0.924
 5016WAT      O15289   4.503   2.892   8.186
 5016WAT     H115290   4.591   2.864   8.147
 5016WAT     H215291   4.518   2.954   8.262
 5017WAT      O15292   0.109   5.052   0.885
 5017WAT     H115293   0.077   5.097   0.968
 5017WAT     H215294   0.188   5.101   0.849
 5018WAT      O15295   2.028   2.449   3.175
 5018WAT     H115296   2.016   2.435   3.076
 5018WAT     H215297   2.096   2.520   3.190
 5019WAT      O15298   1.999   7.762   3.148
 5019WAT     H115299   2.011   7.797   3.055
 5019WAT     H215300   2.000   7.662   3.147
 5020WAT      O15301   8.122   4.939   0.341
 5020WAT     H115302   8.124   5.039   0.340
 5020WAT     H215303   8.214   4.903   0.327
 5021WAT      O15304   5.389   3.189   5.782
 5021WAT     H115305   5.459   3.226   5.843
 5021WAT     H215306   5.367   3.256   5.712
 5022WAT      O15307   8.941   2.592   2.467
 5022WAT     H115308   8.855   2.643   2.463
 5022WAT     H215309   8.980   2.599   2.559
 5023WAT      O15310   5.201   5.253   1.989
 5023WAT     H115311   5.161   5.247   1.897
 5023WAT     H215312   5.177   5.171   2.040
 5024WAT      O15313   0.310   1.249   0.887
 5024WAT     H115314   0.290   1.227   0.791
 5024WAT     H215315   0.350   1.169   0.932
 5025WAT      O15316   3.051   0.987   0.144
 5025WAT     H115317   3.089   0.900   0.113
 5025WAT     H215318   3.089   1.061   0.089
 5026WAT      O15319   4.707   6.933   4.859
 5026WAT     H115320   4.624   6.917   4.912
 5026WAT     H215321   4.742   6.846   4.825
 5027WAT      O15322   3.800   2.603   5.405
 5027WAT     H115323   3.807   2.566   5.312
 5027WAT     H215324   3.708   2.587   5.441
 5028WAT      O15325   0.287   2.163   6.152
 5028WAT     H115326   0.246   2.252   6.172
 5028WAT     H215327   0.362   2.174   6.087
 5029WAT      O15328   0.430   0.579   7.888
 5029WAT     H115329   0.362   0.626   7.831
 5029WAT     H215330   0.401   0.484   7.901
 5030WAT      O15331   1.746   8.800   5.046
 5030WAT     H115332   1.758   8.721   4.986
 5030WAT     H215333   1.649   8.827   5.047
 5031WAT      O15334   7.407   0.764   6.386
 5031WAT     H115335   7.413   0.721   6.477
 5031WAT     H215336   7.478   0.834   6.378
 5032WAT      O15337   4.420   5.650   7.393
 5032WAT     H115338   4.332   5.643   7.440
 5032WAT     H215339   4.478   5.573   7.419
 5033WAT      O15340   4.332   4.089   8.109
 5033WAT     H115341   4.321   4.149   8.188
 5033WAT     H215342   4.296   4.133   8.027
 5034WAT      O15343   0.533   1.037   8.950
 5034WAT     H115344   0.536   1.080   9.040
 5034WAT     H215345   0.626   1.016   8.919
 5035WAT      O15346   9.704   6.276   6.363
 5035WAT     H115347   9.645   6.353   6.341
 5035WAT     H215348   9.705   6.212   6.286
 5036WAT      O15349   0.690   8.079   0.489
 5036WAT     H115350   0.745   8.024   0.427
 5036WAT     H215351   0.651   8.156   0.439
 5037WAT      O15352   4.323   3.347   7.717
 5037WAT     H115353   4.412   3.348   7.763
 5037WAT     H215354   4.284   3.439   7.719
 5038WAT      O15355   5.110   0.536   8.491
 5038WAT     H115356   5.032   0.596   8.478
 5038WAT     H215357   5.148   0.511   8.401
 5039WAT      O15358   9.160   2.922   8.220
 5039WAT     H115359   9.111   2.981   8.156
 5039WAT     H215360   9.124   2.937   8.312
 5040WAT      O15361   7.641   5.201   5.877
 5040WAT     H115362   7.542   5.191   5.882
 5040WAT     H215363   7.680   5.195   5.969
 5041WAT      O15364   1.235   0.597   8.227
 5041WAT     H115365   1.153   0.609   8.171
 5041WAT     H215366   1.275   0.687   8.247
 5042WAT      O15367   9.129   0.324   6.186
 5042WAT     H115368   9.126   0.394   6.115
 5042WAT     H215369   9.222   0.289   6.195
 5043WAT      O15370   2.862   2.692   6.726
 5043WAT     H115371   2.927   2.765   6.750
 5043WAT     H215372   2.892   2.606   6.767
 5044WAT      O15373   8.829   6.485   9.124
 5044WAT     H115374   8.909   6.495   9.183
 5044WAT     H215375   8.764   6.559   9.142
 5045WAT      O15376   3.026   7.536   3.205
 5045WAT     H115377   2.949   7.472   3.209
 5045WAT     H215378   3.112   7.487   3.217
 5046WAT      O15379   2.036   6.133   3.064
 5046WAT     H115380   2.121   6.096   3.027
 5046WAT     H215381   2.055   6.202   3.133
 5047WAT      O15382   8.782   7.503   8.073
 5047WAT     H115383   8.799   7.455   8.159
 5047WAT     H215384   8.739   7.592   8.092
 5048WAT      O15385   8.526   1.201   4.844
 5048WAT     H115386   8.581   1.120   4.823
 5048WAT     H215387   8.583   1.283   4.840
 5049WAT      O15388   2.123   6.629   7.528
 5049WAT     H115389   2.128   6.718   7.483
 5049WAT     H215390   2.071   6.637   7.613
 5050WAT      O15391   4.383   0.754   0.597
 5050WAT     H115392   4.434   0.686   0.544
 5050WAT     H215393   4.306   0.709   0.642
 5051WAT      O15394   0.022   3.897   0.002
 5051WAT     H115395   0.061   3.877   0.092
 5051WAT     H215396  -0.010   3.992   0.001
 5052WAT      O15397   0.686   1.728   6.290
 5052WAT     H115398   0.706   1.750   6.385
 5052WAT     H215399   0.767   1.686   6.248
 5053WAT      O15400   6.359   4.647   1.893
 5053WAT     H115401   6.292   4.599   1.949
 5053WAT     H215402   6.439   4.588   1.879
 5054WAT      O15403   0.220   9.272   4.786
 5054WAT     H115404   0.303   9.298   4.737
 5054WAT     H215405   0.174   9.355   4.819
 5055WAT      O15406   8.729   3.880   3.149
 5055WAT     H115407   8.794   3.842   3.214
 5055WAT     H215408   8.734   3.828   3.063
 5056WAT      O15409   2.269   2.153   5.952
 5056WAT     H115410   2.189   2.127   6.004
 5056WAT     H215411   2.351   2.147   6.010
 5057WAT      O15412   6.706   4.295   3.791
 5057WAT     H115413   6.628   4.266   3.848
 5057WAT     H215414   6.761   4.215   3.768
 5058WAT      O15415   6.698   2.604   9.590
 5058WAT     H115416   6.747   2.691   9.585
 5058WAT     H215417   6.600   2.621   9.589
 5059WAT      O15418   1.844   2.329   0.824
 5059WAT     H115419   1.889   2.325   0.914
 5059WAT     H215420   1.913   2.337   0.753
 5060WAT      O15421   1.094   2.792   1.647
 5060WAT     H115422   1.128   2.878   1.609
 5060WAT     H215423   1.159   2.718   1.627
 5061WAT      O15424   6.955   5.184   2.563
 5061WAT     H115425   6.975   5.098   2.610
 5061WAT     H215426   7.040   5.229   2.536
 5062WAT      O15427   9.654   5.590   9.041
 5062WAT     H115428   9.599   5.639   9.109
 5062WAT     H215429   9.740   5.638   9.026
 5063WAT      O15430   9.142   3.936   3.374
 5063WAT     H115431   9.183   3.983   3.296
 5063WAT     H215432   9.110   4.003   3.441
 5064WAT      O15433   1.963   2.704   0.609
 5064WAT     H115434   1.924   2.637   0.546
 5064WAT     H215435   1.939   2.679   0.703
 5065WAT      O15436   9.394   8.544   2.116
 5065WAT     H115437   9.405   8.636   2.153
 5065WAT     H215438   9.318   8.544   2.051
 5066WAT      O15439   9.850   9.040   6.707
 5066WAT     H115440   9.778   9.098   6.746
 5066WAT     H215441   9.809   8.961   6.662
 5067WAT      O15442   8.033   8.604   2.175
 5067WAT     H115443   7.949   8.637   2.218
 5067WAT     H215444   8.031   8.505   2.168
 5068WAT      O15445   9.692   3.899   7.710
 5068WAT     H115446   9.617   3.941   7.658
 5068WAT     H215447   9.779   3.938   7.681
 5069WAT      O15448   2.208   9.195   9.362
 5069WAT     H115449   2.226   9.273   9.422
 5069WAT     H215450   2.285   9.184   9.299
 5070WAT      O15451   6.446   1.219   6.458
 5070WAT     H115452   6.511   1.183   6.392
 5070WAT     H215453   6.403   1.144   6.507
 5071WAT      O15454   7.173   7.974   9.302
 5071WAT     H115455   7.224   7.889   9.286
 5071WAT     H215456   7.220   8.050   9.258
 5072WAT      O15457   3.991   7.908   3.931
 5072WAT     H115458   3.956   7.979   3.993
 5072WAT     H215459   3.977   7.818   3.973
 5073WAT      O15460   6.944   8.984   6.533
 5073WAT     H115461   6.906   8.904   6.580
 5073WAT     H215462   6.870   9.033   6.485
 5074WAT      O15463   1.750   7.933   2.445
 5074WAT     H115464   1.724   7.861   2.382
 5074WAT     H215465   1.668   7.974   2.485
 5075WAT      O15466   0.879   4.835   8.397
 5075WAT     H115467   0.825   4.858   8.478
 5075WAT     H215468   0.938   4.913   8.373
 5076WAT      O15469   0.999   0.104   1.166
 5076WAT     H115470   1.054   0.023   1.184
 5076WAT     H215471   1.055   0.186   1.177
 5077WAT      O15472   0.614   4.519   4.035
 5077WAT     H115473   0.657   4.501   3.947
 5077WAT     H215474   0.572   4.435   4.070
 5078WAT      O15475   8.397   9.599   4.410
 5078WAT     H115476   8.366   9.579   4.317
 5078WAT     H215477   8.365   9.527   4.472
 5079WAT      O15478   2.370   1.608   1.571
 5079WAT     H115479   2.422   1.693   1.561
 5079WAT     H215480   2.352   1.592   1.668
 5080WAT      O15481   3.839   2.849   4.546
 5080WAT     H115482   3.777   2.781   4.586
 5080WAT     H215483   3.926   2.805   4.523
 5081WAT      O15484   7.521   5.520   4.108
 5081WAT     H115485   7.580   5.601   4.101
 5081WAT     H215486   7.553   5.450   4.045
 5082WAT      O15487   5.606   8.266   4.893
 5082WAT     H115488   5.699   8.301   4.879
 5082WAT     H215489   5.569   8.236   4.805
 5083WAT      O15490   9.540   9.157   0.127
 5083WAT     H115491   9.452   9.155   0.175
 5083WAT     H215492   9.530   9.115   0.037
 5084WAT      O15493   4.625   2.023   6.471
 5084WAT     H115494   4.574   2.035   6.386
 5084WAT     H215495   4.713   2.071   6.464
 5085WAT      O15496   1.499   3.154   3.968
 5085WAT     H115497   1.579   3.093   3.966
 5085WAT     H215498   1.496   3.202   4.055
 5086WAT      O15499   7.311   5.346   2.284
 5086WAT     H115500   7.367   5.273   2.245
 5086WAT     H215501   7.295   5.416   2.214
 5087WAT      O15502   3.603   4.598   2.554
 5087WAT     H115503   3.543   4.676   2.534
 5087WAT     H215504   3.698   4.629   2.555
 5088WAT      O15505   0.989   5.717   5.843
 5088WAT     H115506   0.966   5.805   5.883
 5088WAT     H215507   1.028   5.732   5.751
 5089WAT      O15508   3.513   2.311   7.867
 5089WAT     H115509   3.494   2.325   7.770
 5089WAT     H215510   3.461   2.377   7.921
 5090WAT      O15511   4.015   8.449   0.015
 5090WAT     H115512   4.109   8.485   0.015
 5090WAT     H215513   3.996   8.404  -0.072
 5091WAT      O15514   1.497   2.111   9.263
 5091WAT     H115515   1.492   2.126   9.164
 5091WAT     H215516   1.473   2.196   9.310
 5092WAT      O15517   0.404   1.986   4.832
 5092WAT     H115518   0.501   1.988   4.804
 5092WAT     H215519   0.387   1.905   4.887
 5093WAT      O15520   7.025   0.913   5.824
 5093WAT     H115521   7.075   0.952   5.902
 5093WAT     H215522   7.085   0.909   5.745
 5094WAT      O15523   5.884   2.632   0.333
 5094WAT     H115524   5.932   2.672   0.411
 5094WAT     H215525   5.839   2.705   0.282
 5095WAT      O15526   8.134   9.343   6.437
 5095WAT     H115527   8.043   9.375   6.412
 5095WAT     H215528   8.133   9.308   6.530
 5096WAT      O15529   4.374   1.572   3.869
 5096WAT     H115530   4.433   1.645   3.833
 5096WAT     H215531   4.369   1.580   3.969
 5097WAT      O15532   5.848   2.518   9.598
 5097WAT     H115533   5.940   2.485   9.619
 5097WAT     H215534   5.781   2.450   9.627
 5098WAT      O15535   4.156   9.154   8.753
 5098WAT     H115536   4.092   9.131   8.826
 5098WAT     H215537   4.241   9.190   8.793
 5099WAT      O15538   8.788   4.337   0.040
 5099WAT     H115539   8.868   4.294   0.081
 5099WAT     H215540   8.738   4.269  -0.014
 5100WAT      O15541   6.630   6.793   2.587
 5100WAT     H115542   6.634   6.693   2.586
 5100WAT     H215543   6.715   6.830   2.625
 5101WAT      O15544   5.391   7.052   0.932
 5101WAT     H115545   5.347   7.001   0.857
 5101WAT     H215546   5.322   7.107   0.980
 5102WAT      O15547   3.590   5.362   9.862
 5102WAT     H115548   3.520   5.346   9.792
 5102WAT     H215549   3.680   5.333   9.827
 5103WAT      O15550   1.689   1.549   4.273
 5103WAT     H115551   1.727   1.504   4.354
 5103WAT     H215552   1.680   1.482   4.199
 5104WAT      O15553   9.153   8.067   4.506
 5104WAT     H115554   9.167   7.968   4.506
 5104WAT     H215555   9.062   8.088   4.470
 5105WAT      O15556   7.087   5.138   7.155
 5105WAT     H115557   7.064   5.219   7.102
 5105WAT     H215558   7.006   5.106   7.205
 5106WAT      O15559   1.920   7.375   4.913
 5106WAT     H115560   1.962   7.339   4.997
 5106WAT     H215561   1.915   7.303   4.844
 5107WAT      O15562   7.628   2.640   5.098
 5107WAT     H115563   7.530   2.620   5.100
 5107WAT     H215564   7.641   2.736   5.074
 5108WAT      O15565   5.110   7.759   4.664
 5108WAT     H115566   5.082   7.728   4.573
 5108WAT     H215567   5.205   7.731   4.680
 5109WAT      O15568   1.701   0.622   5.470
 5109WAT     H115569   1.663   0.637   5.379
 5109WAT     H215570   1.801   0.628   5.466
 5110WAT      O15571   1.474   8.116   0.443
 5110WAT     H115572   1.533   8.167   0.506
 5110WAT     H215573   1.476   8.160   0.353
 5111WAT      O15574   3.282   5.818   4.856
 5111WAT     H115575   3.187   5.808   4.826
 5111WAT     H215576   3.343   5.792   4.782
 5112WAT      O15577   9.212   7.668   5.717
 5112WAT     H115578   9.153   7.597   5.678
 5112WAT     H215579   9.168   7.757   5.708
 5113WAT      O15580   9.842   7.449   2.723
 5113WAT     H115581   9.938   7.449   2.694
 5113WAT     H215582   9.836   7.480   2.818
 5114WAT      O15583   6.879   9.285   9.346
 5114WAT     H115584   6.805   9.318   9.403
 5114WAT     H215585   6.914   9.361   9.289
 5115WAT      O15586   9.534   6.974   4.986
 5115WAT     H115587   9.633   6.973   4.976
 5115WAT     H215588   9.503   6.885   5.019
 5116WAT      O15589   7.976   0.215   3.126
 5116WAT     H115590   7.909   0.247   3.059
 5116WAT     H215591   8.006   0.122   3.102
 5117WAT      O15592   9.675   0.929   6.256
 5117WAT     H115593   9.702   0.941   6.161
 5117WAT     H215594   9.616   0.849   6.264
 5118WAT      O15595   6.774   0.850   2.832
 5118WAT     H115596   6.796   0.918   2.902
 5118WAT     H215597   6.781   0.759   2.870
 5119WAT      O15598   5.191   8.434   6.012
 5119WAT     H115599   5.279   8.481   6.022
 5119WAT     H215600   5.195   8.372   5.934
 5120WAT      O15601   7.803   9.715   8.873
 5120WAT     H115602   7.844   9.692   8.785
 5120WAT     H215603   7.844   9.800   8.908
 5121WAT      O15604   6.407   3.815   3.616
 5121WAT     H115605   6.313   3.846   3.605
 5121WAT     H215606   6.469   3.894   3.611
 5122WAT      O15607   3.306   4.632   9.848
 5122WAT     H115608   3.353   4.578   9.778
 5122WAT     H215609   3.208   4.613   9.844
 5123WAT      O15610   0.333   7.000   5.701
 5123WAT     H115611   0.429   7.030   5.711
 5123WAT     H215612   0.273   7.073   5.732
 5124WAT      O15613   4.648   8.546   3.435
 5124WAT     H115614   4.697   8.540   3.522
 5124WAT     H215615   4.664   8.463   3.382
 5125WAT      O15616   1.698   4.169   3.486
 5125WAT     H115617   1.772   4.103   3.498
 5125WAT     H215618   1.676   4.176   3.388
 5126WAT      O15619   9.535   1.324   9.370
 5126WAT     H115620   9.492   1.393   9.429
 5126WAT     H215621   9.630   1.311   9.397
 5127WAT      O15622   5.428   8.173   7.412
 5127WAT     H115623   5.436   8.090   7.357
 5127WAT     H215624   5.500   8.174   7.482
 5128WAT      O15625   5.682   2.262   1.775
 5128WAT     H115626   5.774   2.281   1.741
 5128WAT     H215627   5.625   2.228   1.701
 5129WAT      O15628   3.196   0.329   3.728
 5129WAT     H115629   3.231   0.284   3.646
 5129WAT     H215630   3.096   0.339   3.721
 5130WAT      O15631   1.885   6.623   6.189
 5130WAT     H115632   1.929   6.595   6.275
 5130WAT     H215633   1.820   6.553   6.160
 5131WAT      O15634   2.803   4.248   9.220
 5131WAT     H115635   2.812   4.237   9.121
 5131WAT     H215636   2.893   4.260   9.261
 5132WAT      O15637   6.144   6.262   2.241
 5132WAT     H115638   6.048   6.248   2.263
 5132WAT     H215639   6.200   6.249   2.323
 5133WAT      O15640   7.565   2.321   4.482
 5133WAT     H115641   7.609   2.328   4.392
 5133WAT     H215642   7.624   2.361   4.552
 5134WAT      O15643   4.048   4.175   1.743
 5134WAT     H115644   4.081   4.218   1.827
 5134WAT     H215645   4.107   4.200   1.666
 5135WAT      O15646   9.800   2.266   0.236
 5135WAT     H115647   9.822   2.208   0.314
 5135WAT     H215648   9.795   2.361   0.264
 5136WAT      O15649   7.001   7.523   4.931
 5136WAT     H115650   7.013   7.587   5.006
 5136WAT     H215651   7.052   7.439   4.950
 5137WAT      O15652   9.198   6.539   3.400
 5137WAT     H115653   9.103   6.564   3.383
 5137WAT     H215654   9.254   6.622   3.407
 5138WAT      O15655   0.004   5.635   1.616
 5138WAT     H115656  -0.028   5.721   1.576
 5138WAT     H215657   0.026   5.649   1.712
 5139WAT      O15658   8.666   6.426   1.219
 5139WAT     H115659   8.752   6.374   1.212
 5139WAT     H215660   8.609   6.407   1.139
 5140WAT      O15661   6.758   6.153   0.498
 5140WAT     H115662   6.753   6.220   0.573
 5140WAT     H215663   6.754   6.201   0.411
 5141WAT      O15664   1.408   1.688   2.713
 5141WAT     H115665   1.363   1.654   2.796
 5141WAT     H215666   1.343   1.685   2.637
 5142WAT      O15667   7.443   0.482   4.865
 5142WAT     H115668   7.399   0.541   4.933
 5142WAT     H215669   7.411   0.508   4.774
 5143WAT      O15670   2.948   3.857   2.365
 5143WAT     H115671   2.991   3.933   2.413
 5143WAT     H215672   2.849   3.872   2.360
 5144WAT      O15673   8.824   0.560   9.379
 5144WAT     H115674   8.857   0.637   9.325
 5144WAT     H215675   8.832   0.476   9.325
 5145WAT      O15676   9.706   9.190   6.152
 5145WAT     H115677   9.788   9.246   6.167
 5145WAT     H215678   9.692   9.130   6.231
 5146WAT      O15679   6.357   5.404   6.967
 5146WAT     H115680   6.324   5.467   6.897
 5146WAT     H215681   6.402   5.456   7.040
 5147WAT      O15682   6.202   6.575   4.353
 5147WAT     H115683   6.118   6.524   4.371
 5147WAT     H215684   6.188   6.636   4.276
 5148WAT      O15685   8.264   8.095   5.086
 5148WAT     H115686   8.246   8.138   4.997
 5148WAT     H215687   8.323   8.015   5.072
 5149WAT      O15688   1.454   5.169   6.910
 5149WAT     H115689   1.364   5.189   6.870
 5149WAT     H215690   1.466   5.070   6.916
 5150WAT      O15691   4.275   4.849   4.902
 5150WAT     H115692   4.256   4.750   4.901
 5150WAT     H215693   4.221   4.893   4.831
 5151WAT      O15694   9.866   0.860   2.523
 5151WAT     H115695   9.775   0.830   2.551
 5151WAT     H215696   9.890   0.943   2.573
 5152WAT      O15697   9.779   0.229   8.745
 5152WAT     H115698   9.716   0.294   8.702
 5152WAT     H215699   9.824   0.174   8.675
 5153WAT      O15700   6.124   9.094   0.613
 5153WAT     H115701   6.190   9.019   0.616
 5153WAT     H215702   6.130   9.147   0.697
 5154WAT      O15703   9.178   7.799   5.393
 5154WAT     H115704   9.084   7.787   5.425
 5154WAT     H215705   9.202   7.896   5.397
 5155WAT      O15706   3.121   9.683   8.370
 5155WAT     H115707   3.091   9.666   8.464
 5155WAT     H215708   3.082   9.769   8.337
 5156WAT      O15709   4.802   7.642   0.227
 5156WAT     H115710   4.719   7.624   0.281
 5156WAT     H215711   4.880   7.596   0.270
 5157WAT      O15712   5.135   8.630   8.375
 5157WAT     H115713   5.054   8.639   8.316
 5157WAT     H215714   5.117   8.673   8.463
 5158WAT      O15715   3.746   4.327   6.343
 5158WAT     H115716   3.659   4.357   6.304
 5158WAT     H215717   3.747   4.345   6.441
 5159WAT      O15718   6.621   3.805   0.528
 5159WAT     H115719   6.591   3.807   0.624
 5159WAT     H215720   6.586   3.723   0.484
 5160WAT      O15721   1.698   8.309   7.615
 5160WAT     H115722   1.741   8.388   7.573
 5160WAT     H215723   1.740   8.225   7.579
 5161WAT      O15724   5.365   7.137   4.396
 5161WAT     H115725   5.288   7.076   4.416
 5161WAT     H215726   5.448   7.084   4.384
 5162WAT      O15727   6.898   0.233   0.767
 5162WAT     H115728   6.953   0.297   0.714
 5162WAT     H215729   6.928   0.139   0.748
 5163WAT      O15730   3.605   9.072   2.738
 5163WAT     H115731   3.690   9.120   2.718
 5163WAT     H215732   3.593   8.995   2.675
 5164WAT      O15733   7.651   2.395   4.200
 5164WAT     H115734   7.731   2.336   4.208
 5164WAT     H215735   7.586   2.354   4.136
 5165WAT      O15736   8.980   5.360   4.514
 5165WAT     H115737   9.053   5.333   4.577
 5165WAT     H215738   9.006   5.336   4.421
 5166WAT      O15739   1.503   8.058   7.673
 5166WAT     H115740   1.520   8.129   7.605
 5166WAT     H215741   1.405   8.035   7.674
 5167WAT      O15742   7.875   6.226   0.374
 5167WAT     H115743   7.795   6.233   0.314
 5167WAT     H215744   7.905   6.131   0.380
 5168WAT      O15745   3.036   5.319   9.589
 5168WAT     H115746   3.097   5.397   9.602
 5168WAT     H215747   3.034   5.293   9.493
 5169WAT      O15748   8.072   3.014   1.090
 5169WAT     H115749   7.982   3.053   1.111
 5169WAT     H215750   8.059   2.928   1.041
 5170WAT      O15751   2.263   9.424   3.316
 5170WAT     H115752   2.323   9.485   3.367
 5170WAT     H215753   2.282   9.433   3.218
 5171WAT      O15754   5.040   5.656   1.311
 5171WAT     H115755   4.998   5.632   1.223
 5171WAT     H215756   5.115   5.593   1.331
 5172WAT      O15757   7.804   8.399   9.636
 5172WAT     H115758   7.750   8.320   9.608
 5172WAT     H215759   7.901   8.378   9.627
 5173WAT      O15760   0.775   6.430   7.904
 5173WAT     H115761   0.817   6.364   7.966
 5173WAT     H215762   0.780   6.395   7.810
 5174WAT      O15763   2.326   3.154   7.889
 5174WAT     H115764   2.349   3.238   7.840
 5174WAT     H215765   2.304   3.081   7.823
 5175WAT      O15766   7.118   6.017   7.416
 5175WAT     H115767   7.048   6.051   7.353
 5175WAT     H215768   7.191   6.085   7.424
 5176WAT      O15769   5.780   9.427   6.549
 5176WAT     H115770   5.713   9.447   6.478
 5176WAT     H215771   5.733   9.407   6.635
 5177WAT      O15772   6.935   6.380   5.166
 5177WAT     H115773   7.000   6.434   5.113
 5177WAT     H215774   6.862   6.439   5.199
 5178WAT      O15775   7.945   7.274   9.533
 5178WAT     H115776   7.973   7.228   9.617
 5178WAT     H215777   8.017   7.262   9.464
 5179WAT      O15778   0.474   8.654   7.808
 5179WAT     H115779   0.443   8.747   7.787
 5179WAT     H215780   0.571   8.645   7.784
 5180WAT      O15781   5.685   7.290   5.004
 5180WAT     H115782   5.700   7.285   5.103
 5180WAT     H215783   5.667   7.385   4.978
 5181WAT      O15784   6.760   0.572   7.628
 5181WAT     H115785   6.748   0.510   7.706
 5181WAT     H215786   6.823   0.531   7.562
 5182WAT      O15787   5.898   1.850   0.525
 5182WAT     H115788   5.951   1.921   0.570
 5182WAT     H215789   5.850   1.889   0.447
 5183WAT      O15790   9.690   1.850   5.155
 5183WAT     H115791   9.721   1.896   5.238
 5183WAT     H215792   9.741   1.884   5.077
 5184WAT      O15793   9.661   5.367   4.328
 5184WAT     H115794   9.755   5.332   4.332
 5184WAT     H215795   9.597   5.291   4.336
 5185WAT      O15796   3.333   5.381   1.540
 5185WAT     H115797   3.266   5.383   1.614
 5185WAT     H215798   3.425   5.392   1.577
 5186WAT      O15799   3.412   4.423   8.037
 5186WAT     H115800   3.406   4.495   8.106
 5186WAT     H215801   3.367   4.340   8.071
 5187WAT      O15802   3.917   6.562   4.684
 5187WAT     H115803   3.844   6.627   4.703
 5187WAT     H215804   3.883   6.469   4.696
 5188WAT      O15805   1.086   6.221   2.602
 5188WAT     H115806   1.098   6.134   2.649
 5188WAT     H215807   1.162   6.282   2.623
 5189WAT      O15808   6.908   9.120   5.851
 5189WAT     H115809   6.822   9.133   5.900
 5189WAT     H215810   6.913   9.186   5.776
 5190WAT      O15811   8.460   6.873   0.921
 5190WAT     H115812   8.544   6.913   0.885
 5190WAT     H215813   8.478   6.834   1.012
 5191WAT      O15814   9.873   7.217   7.629
 5191WAT     H115815   9.845   7.312   7.610
 5191WAT     H215816   9.820   7.182   7.706
 5192WAT      O15817   5.011   3.378   9.633
 5192WAT     H115818   5.086   3.344   9.576
 5192WAT     H215819   5.046   3.401   9.724
 5193WAT      O15820   4.776   7.645   0.596
 5193WAT     H115821   4.812   7.735   0.619
 5193WAT     H215822   4.733   7.649   0.506
 5194WAT      O15823   2.496   8.259   2.174
 5194WAT     H115824   2.438   8.179   2.166
 5194WAT     H215825   2.588   8.231   2.201
 5195WAT      O15826   4.959   0.444   2.862
 5195WAT     H115827   4.899   0.451   2.942
 5195WAT     H215828   4.921   0.496   2.786
 5196WAT      O15829   1.176   3.573   9.785
 5196WAT     H115830   1.087   3.565   9.830
 5196WAT     H215831   1.234   3.635   9.837
 5197WAT      O15832   9.143   1.177   1.830
 5197WAT     H115833   9.109   1.222   1.748
 5197WAT     H215834   9.163   1.245   1.900
 5198WAT      O15835   9.419   6.676   3.036
 5198WAT     H115836   9.409   6.609   3.110
 5198WAT     H215837   9.500   6.654   2.982
 5199WAT      O15838   4.914   0.737   7.871
 5199WAT     H115839   4.944   0.711   7.779
 5199WAT     H215840   4.991   0.774   7.923
 5200WAT      O15841   3.524   1.037   7.418
 5200WAT     H115842   3.472   1.064   7.500
 5200WAT     H215843   3.528   1.114   7.355
 5201WAT      O15844   3.532   0.306   2.426
 5201WAT     H115845   3.530   0.336   2.521
 5201WAT     H215846   3.619   0.261   2.406
 5202WAT      O15847   6.018   8.250   9.694
 5202WAT     H115848   6.076   8.318   9.650
 5202WAT     H215849   6.067   8.209   9.771
 5203WAT      O15850   6.801   1.724   7.400
 5203WAT     H115851   6.784   1.688   7.308
 5203WAT     H215852   6.884   1.780   7.399
 5204WAT      O15853   5.251   9.564   3.325
 5204WAT     H115854   5.162   9.541   3.366
 5204WAT     H215855   5.236   9.627   3.248
 5205WAT      O15856   2.216   3.485   9.533
 5205WAT     H115857   2.192   3.485   9.630
 5205WAT     H215858   2.257   3.573   9.509
 5206WAT      O15859   0.602   2.642   9.425
 5206WAT     H115860   0.665   2.694   9.367
 5206WAT     H215861   0.527   2.607   9.369
 5207WAT      O15862   8.756   3.604   6.724
 5207WAT     H115863   8.840   3.591   6.776
 5207WAT     H215864   8.681   3.624   6.786
 5208WAT      O15865   1.809   7.142   0.415
 5208WAT     H115866   1.752   7.113   0.491
 5208WAT     H215867   1.845   7.061   0.368
 5209WAT      O15868   8.693   4.638   5.248
 5209WAT     H115869   8.740   4.550   5.259
 5209WAT     H215870   8.626   4.632   5.174
 5210WAT      O15871   2.729   3.358   1.735
 5210WAT     H115872   2.795   3.405   1.678
 5210WAT     H215873   2.774   3.327   1.819
 5211WAT      O15874   3.998   1.706   5.736
 5211WAT     H115875   3.977   1.804   5.735
 5211WAT     H215876   4.086   1.691   5.781
 5212WAT      O15877   9.394   9.792   1.112
 5212WAT     H115878   9.359   9.759   1.200
 5212WAT     H215879   9.317   9.820   1.054
 5213WAT      O15880   3.076   9.229   8.910
 5213WAT     H115881   3.020   9.308   8.934
 5213WAT     H215882   3.059   9.155   8.975
 5214WAT      O15883   8.129   6.253   1.831
 5214WAT     H115884   8.182   6.195   1.892
 5214WAT     H215885   8.086   6.326   1.884
 5215WAT      O15886   1.233   2.533   7.108
 5215WAT     H115887   1.306   2.568   7.167
 5215WAT     H215888   1.163   2.488   7.164
 5216WAT      O15889   4.136   3.851   1.531
 5216WAT     H115890   4.226   3.891   1.550
 5216WAT     H215891   4.100   3.810   1.614
 5217WAT      O15892   1.443   2.959   8.284
 5217WAT     H115893   1.355   2.999   8.257
 5217WAT     H215894   1.510   3.032   8.295
 5218WAT      O15895   4.850   2.703   8.843
 5218WAT     H115896   4.918   2.742   8.782
 5218WAT     H215897   4.884   2.617   8.881
 5219WAT      O15898   1.550   1.292   4.451
 5219WAT     H115899   1.509   1.312   4.540
 5219WAT     H215900   1.648   1.311   4.453
 5220WAT      O15901   8.467   0.421   9.158
 5220WAT     H115902   8.445   0.381   9.247
 5220WAT     H215903   8.454   0.352   9.087
 5221WAT      O15904   1.200   6.170   6.242
 5221WAT     H115905   1.167   6.260   6.272
 5221WAT     H215906   1.122   6.116   6.210
 5222WAT      O15907   7.653   9.043   4.354
 5222WAT     H115908   7.575   9.022   4.414
 5222WAT     H215909   7.633   9.011   4.262
 5223WAT      O15910   3.963   0.645   1.471
 5223WAT     H115911   3.909   0.562   1.487
 5223WAT     H215912   3.982   0.689   1.558
 5224WAT      O15913   3.444   5.757   3.316
 5224WAT     H115914   3.506   5.822   3.360
 5224WAT     H215915   3.360   5.749   3.370
 5225WAT      O15916   0.385   8.944   8.627
 5225WAT     H115917   0.469   8.980   8.585
 5225WAT     H215918   0.310   9.008   8.610
 5226WAT      O15919   9.415   3.085   9.117
 5226WAT     H115920   9.412   3.046   9.025
 5226WAT     H215921   9.489   3.153   9.123
 5227WAT      O15922   5.303   5.727   7.676
 5227WAT     H115923   5.316   5.818   7.715
 5227WAT     H215924   5.330   5.658   7.744
 5228WAT      O15925   1.325   9.833   5.468
 5228WAT     H115926   1.355   9.806   5.560
 5228WAT     H215927   1.293   9.928   5.470
 5229WAT      O15928   1.533   4.387   3.657
 5229WAT     H115929   1.589   4.314   3.617
 5229WAT     H215930   1.550   4.392   3.755
 5230WAT      O15931   4.937   5.120   5.629
 5230WAT     H115932   5.021   5.070   5.607
 5230WAT     H215933   4.928   5.199   5.567
 5231WAT      O15934   0.053   8.458   0.572
 5231WAT     H115935   0.004   8.379   0.609
 5231WAT     H215936  -0.012   8.531   0.553
 5232WAT      O15937   0.331   8.870   0.496
 5232WAT     H115938   0.267   8.805   0.455
 5232WAT     H215939   0.306   8.885   0.592
 5233WAT      O15940   4.126   5.312   5.233
 5233WAT     H115941   4.175   5.386   5.280
 5233WAT     H215942   4.144   5.225   5.279
 5234WAT      O15943   5.488   6.612   7.047
 5234WAT     H115944   5.472   6.536   6.984
 5234WAT     H215945   5.587   6.625   7.058
 5235WAT      O15946   8.927   6.090   4.506
 5235WAT     H115947   8.908   6.018   4.573
 5235WAT     H215948   8.869   6.169   4.524
 5236WAT      O15949   0.877   9.519   6.608
 5236WAT     H115950   0.788   9.518   6.562
 5236WAT     H215951   0.949   9.511   6.540
 5237WAT      O15952   7.779   3.224   5.831
 5237WAT     H115953   7.680   3.230   5.821
 5237WAT     H215954   7.808   3.129   5.822
 5238WAT      O15955   2.632   9.400   0.001
 5238WAT     H115956   2.622   9.450  -0.085
 5238WAT     H215957   2.611   9.461   0.077
 5239WAT      O15958   0.728   2.017   8.721
 5239WAT     H115959   0.753   1.952   8.649
 5239WAT     H215960   0.630   2.008   8.741
 5240WAT      O15961   8.759   0.366   4.226
 5240WAT     H115962   8.816   0.286   4.206
 5240WAT     H215963   8.795   0.446   4.178
 5241WAT      O15964   2.689   0.868   8.616
 5241WAT     H115965   2.642   0.923   8.685
 5241WAT     H215966   2.701   0.775   8.649
 5242WAT      O15967   6.244   0.764   1.930
 5242WAT     H115968   6.318   0.766   1.997
 5242WAT     H215969   6.171   0.827   1.958
 5243WAT      O15970   5.698   3.909   2.945
 5243WAT     H115971   5.671   3.949   2.857
 5243WAT     H215972   5.682   3.975   3.018
 5244WAT      O15973   8.378   9.765   9.579
 5244WAT     H115974   8.476   9.772   9.564
 5244WAT     H215975   8.336   9.855   9.564
 5245WAT      O15976   5.151   1.485   2.766
 5245WAT     H115977   5.246   1.493   2.796
 5245WAT     H215978   5.149   1.451   2.672
 5246WAT      O15979   6.252   9.214   8.531
 5246WAT     H115980   6.280   9.244   8.439
 5246WAT     H215981   6.181   9.144   8.524
 5247WAT      O15982   0.035   4.820   6.902
 5247WAT     H115983   0.074   4.824   6.809
 5247WAT     H215984  -0.062   4.844   6.898
 5248WAT      O15985   2.067   0.913   5.546
 5248WAT     H115986   2.033   0.838   5.603
 5248WAT     H215987   2.139   0.962   5.595
 5249WAT      O15988   7.029   7.412   8.166
 5249WAT     H115989   7.065   7.325   8.132
 5249WAT     H215990   6.929   7.412   8.156
 5250WAT      O15991   1.996   4.243   7.189
 5250WAT     H115992   1.917   4.206   7.140
 5250WAT     H215993   2.080   4.212   7.146
 5251WAT      O15994   2.418   1.515   8.108
 5251WAT     H115995   2.367   1.431   8.129
 5251WAT     H215996   2.512   1.505   8.138
 5252WAT      O15997   5.327   2.721   8.532
 5252WAT     H115998   5.296   2.680   8.618
 5252WAT     H215999   5.315   2.655   8.457
 5253WAT      O16000   2.329   7.835   2.303
 5253WAT     H116001   2.257   7.776   2.339
 5253WAT     H216002   2.410   7.781   2.281
 5254WAT      O16003   1.233   2.019   4.209
 5254WAT     H116004   1.244   1.975   4.298
 5254WAT     H216005   1.311   1.998   4.151
 5255WAT      O16006   8.197   3.293   0.144
 5255WAT     H116007   8.220   3.351   0.222
 5255WAT     H216008   8.103   3.260   0.154
 5256WAT      O16009   7.608   0.325   5.023
 5256WAT     H116010   7.560   0.387   4.961
 5256WAT     H216011   7.696   0.366   5.048
 5257WAT      O16012   5.658   6.004   4.203
 5257WAT     H116013   5.653   5.918   4.153
 5257WAT     H216014   5.723   5.994   4.278
 5258WAT      O16015   0.564   7.783   6.521
 5258WAT     H116016   0.490   7.760   6.584
 5258WAT     H216017   0.585   7.880   6.529
 5259WAT      O16018   4.945   9.530   5.928
 5259WAT     H116019   4.919   9.516   6.023
 5259WAT     H216020   4.927   9.447   5.875
 5260WAT      O16021   1.594   0.887   7.375
 5260WAT     H116022   1.590   0.787   7.376
 5260WAT     H216023   1.606   0.919   7.281
 5261WAT      O16024   3.116   4.850   7.943
 5261WAT     H116025   3.119   4.901   8.029
 5261WAT     H216026   3.026   4.808   7.932
 5262WAT      O16027   8.473   1.970   7.510
 5262WAT     H116028   8.375   1.954   7.513
 5262WAT     H216029   8.513   1.948   7.599
 5263WAT      O16030   3.194   8.477   8.521
 5263WAT     H116031   3.142   8.392   8.509
 5263WAT     H216032   3.140   8.554   8.488
 5264WAT      O16033   2.118   3.223   2.344
 5264WAT     H116034   2.129   3.189   2.251
 5264WAT     H216035   2.072   3.312   2.341
 5265WAT      O16036   0.722   7.704   6.319
 5265WAT     H116037   0.816   7.734   6.329
 5265WAT     H216038   0.669   7.733   6.399
 5266WAT      O16039   5.603   3.352   5.274
 5266WAT     H116040   5.589   3.390   5.183
 5266WAT     H216041   5.699   3.326   5.285
 5267WAT      O16042   5.176   1.926   4.322
 5267WAT     H116043   5.135   2.017   4.320
 5267WAT     H216044   5.264   1.930   4.369
 5268WAT      O16045   0.110   4.177   0.750
 5268WAT     H116046   0.178   4.138   0.687
 5268WAT     H216047   0.079   4.105   0.813
 5269WAT      O16048   7.339   7.094   6.978
 5269WAT     H116049   7.305   7.030   6.909
 5269WAT     H216050   7.398   7.162   6.936
 5270WAT      O16051   6.358   3.740   6.403
 5270WAT     H116052   6.356   3.666   6.336
 5270WAT     H216053   6.447   3.785   6.401
 5271WAT      O16054   1.442   5.455   4.246
 5271WAT     H116055   1.493   5.406   4.317
 5271WAT     H216056   1.437   5.399   4.164
 5272WAT      O16057   6.110   9.541   4.068
 5272WAT     H116058   6.053   9.508   4.143
 5272WAT     H216059   6.175   9.609   4.102
 5273WAT      O16060   0.114   0.462   0.401
 5273WAT     H116061   0.031   0.506   0.434
 5273WAT     H216062   0.107   0.363   0.411
 5274WAT      O16063   2.709   1.838   5.109
 5274WAT     H116064   2.632   1.787   5.147
 5274WAT     H216065   2.676   1.923   5.068
 5275WAT      O16066   0.430   6.029   4.495
 5275WAT     H116067   0.471   6.095   4.433
 5275WAT     H216068   0.376   5.963   4.443
 5276WAT      O16069   6.513   0.207   0.889
 5276WAT     H116070   6.586   0.216   0.821
 5276WAT     H216071   6.553   0.207   0.981
 5277WAT      O16072   6.980   7.314   4.002
 5277WAT     H116073   6.939   7.390   3.951
 5277WAT     H216074   7.020   7.348   4.087
 5278WAT      O16075   0.052   0.458   7.284
 5278WAT     H116076   0.032   0.552   7.257
 5278WAT     H216077   0.026   0.396   7.210
 5279WAT      O16078   6.736   3.154   5.470
 5279WAT     H116079   6.767   3.161   5.564
 5279WAT     H216080   6.717   3.245   5.433
 5280WAT      O16081   3.989   5.662   4.413
 5280WAT     H116082   4.081   5.701   4.420
 5280WAT     H216083   3.955   5.672   4.320
 5281WAT      O16084   8.143   6.652   3.471
 5281WAT     H116085   8.148   6.752   3.467
 5281WAT     H216086   8.235   6.614   3.466
 5282WAT      O16087   9.697   9.253   1.645
 5282WAT     H116088   9.642   9.331   1.677
 5282WAT     H216089   9.711   9.261   1.546
 5283WAT      O16090   7.739   7.793   5.794
 5283WAT     H116091   7.798   7.742   5.856
 5283WAT     H216092   7.792   7.866   5.750
 5284WAT      O16093   6.939   9.836   2.333
 5284WAT     H116094   6.878   9.820   2.411
 5284WAT     H216095   6.923   9.928   2.297
 5285WAT      O16096   0.246   4.032   1.566
 5285WAT     H116097   0.268   4.107   1.629
 5285WAT     H216098   0.190   3.964   1.613
 5286WAT      O16099   7.428   9.400   5.471
 5286WAT     H116100   7.484   9.471   5.428
 5286WAT     H216101   7.333   9.432   5.477
 5287WAT      O16102   5.206   8.470   5.381
 5287WAT     H116103   5.216   8.487   5.479
 5287WAT     H216104   5.205   8.557   5.332
 5288WAT      O16105   3.521   0.682   2.491
 5288WAT     H116106   3.444   0.623   2.513
 5288WAT     H216107   3.542   0.740   2.569
 5289WAT      O16108   3.167   7.810   7.703
 5289WAT     H116109   3.209   7.882   7.647
 5289WAT     H216110   3.239   7.756   7.746
 5290WAT      O16111   5.141   9.133   8.745
 5290WAT     H116112   5.150   9.094   8.836
 5290WAT     H216113   5.223   9.186   8.723
 5291WAT      O16114   9.862   9.709   7.963
 5291WAT     H116115   9.804   9.790   7.970
 5291WAT     H216116   9.817   9.631   8.005
 5292WAT      O16117   3.543   4.715   6.292
 5292WAT     H116118   3.476   4.735   6.221
 5292WAT     H216119   3.632   4.752   6.265
 5293WAT      O16120   5.654   1.108   4.044
 5293WAT     H116121   5.616   1.195   4.075
 5293WAT     H216122   5.590   1.034   4.064
 5294WAT      O16123   6.050   5.868   7.663
 5294WAT     H116124   6.028   5.950   7.610
 5294WAT     H216125   6.132   5.884   7.717
 5295WAT      O16126   0.154   5.821   0.744
 5295WAT     H116127   0.234   5.779   0.787
 5295WAT     H216128   0.085   5.838   0.814
 5296WAT      O16129   5.867   7.907   0.199
 5296WAT     H116130   5.826   7.998   0.204
 5296WAT     H216131   5.832   7.851   0.273
 5297WAT      O16132   4.890   7.077   5.347
 5297WAT     H116133   4.857   7.046   5.436
 5297WAT     H216134   4.938   7.165   5.358
 5298WAT      O16135   8.749   6.909   7.453
 5298WAT     H116136   8.774   7.000   7.421
 5298WAT     H216137   8.651   6.896   7.445
 5299WAT      O16138   4.612   8.393   6.115
 5299WAT     H116139   4.587   8.480   6.074
 5299WAT     H216140   4.700   8.401   6.162
 5300WAT      O16141   4.996   0.222   3.875
 5300WAT     H116142   4.987   0.308   3.825
 5300WAT     H216143   5.024   0.240   3.969
 5301WAT      O16144   2.092   2.759   8.343
 5301WAT     H116145   2.189   2.777   8.327
 5301WAT     H216146   2.073   2.662   8.326
 5302WAT      O16147   0.786   7.792   7.694
 5302WAT     H116148   0.687   7.806   7.702
 5302WAT     H216149   0.808   7.696   7.713
 5303WAT      O16150   2.296   9.842   3.150
 5303WAT     H116151   2.275   9.779   3.076
 5303WAT     H216152   2.236   9.823   3.228
 5304WAT      O16153   9.802   6.496   8.191
 5304WAT     H116154   9.836   6.567   8.253
 5304WAT     H216155   9.808   6.407   8.235
 5305WAT      O16156   7.379   4.023   1.371
 5305WAT     H116157   7.290   3.985   1.345
 5305WAT     H216158   7.451   3.974   1.323
 5306WAT      O16159   1.397   6.596   3.403
 5306WAT     H116160   1.380   6.684   3.447
 5306WAT     H216161   1.348   6.592   3.316
 5307WAT      O16162   0.752   6.358   1.147
 5307WAT     H116163   0.745   6.406   1.234
 5307WAT     H216164   0.831   6.297   1.150
 5308WAT      O16165   2.563   0.645   0.537
 5308WAT     H116166   2.483   0.667   0.481
 5308WAT     H216167   2.533   0.610   0.625
 5309WAT      O16168   1.241   7.492   5.678
 5309WAT     H116169   1.214   7.543   5.760
 5309WAT     H216170   1.315   7.541   5.631
 5310WAT      O16171   6.699   8.386   4.378
 5310WAT     H116172   6.776   8.322   4.375
 5310WAT     H216173   6.731   8.476   4.406
 5311WAT      O16174   6.837   9.530   3.268
 5311WAT     H116175   6.780   9.596   3.317
 5311WAT     H216176   6.819   9.438   3.303
 5312WAT      O16177   5.052   9.201   4.013
 5312WAT     H116178   5.098   9.254   4.084
 5312WAT     H216179   5.011   9.119   4.054
 5313WAT      O16180   2.496   9.179   0.309
 5313WAT     H116181   2.491   9.167   0.210
 5313WAT     H216182   2.425   9.242   0.339
 5314WAT      O16183   3.764   1.694   6.779
 5314WAT     H116184   3.677   1.724   6.817
 5314WAT     H216185   3.825   1.772   6.769
 5315WAT      O16186   4.071   2.819   6.285
 5315WAT     H116187   4.055   2.794   6.380
 5315WAT     H216188   4.161   2.862   6.277
 5316WAT      O16189   8.386   8.933   7.071
 5316WAT     H116190   8.318   8.866   7.101
 5316WAT     H216191   8.400   8.924   6.972
 5317WAT      O16192   0.594   5.225   6.384
 5317WAT     H116193   0.561   5.308   6.428
 5317WAT     H216194   0.692   5.215   6.401
 5318WAT      O16195   4.512   5.224   0.158
 5318WAT     H116196   4.475   5.287   0.089
 5318WAT     H216197   4.587   5.269   0.207
 5319WAT      O16198   4.234   6.362   1.238
 5319WAT     H116199   4.329   6.386   1.260
 5319WAT     H216200   4.178   6.373   1.320
 5320WAT      O16201   9.538   7.164   7.055
 5320WAT     H116202   9.579   7.086   7.008
 5320WAT     H216203   9.552   7.247   7.001
 5321WAT      O16204   7.122   3.441   0.375
 5321WAT     H116205   7.094   3.365   0.434
 5321WAT     H216206   7.042   3.493   0.348
 5322WAT      O16207   0.906   0.284   0.732
 5322WAT     H116208   0.814   0.308   0.701
 5322WAT     H216209   0.957   0.368   0.752
 5323WAT      O16210   8.889   0.169   2.504
 5323WAT     H116211   8.892   0.182   2.405
 5323WAT     H216212   8.795   0.145   2.532
 5324WAT      O16213   6.707   6.040   5.882
 5324WAT     H116214   6.690   6.025   5.784
 5324WAT     H216215   6.779   6.108   5.893
 5325WAT      O16216   3.041   5.463   7.878
 5325WAT     H116217   3.134   5.444   7.845
 5325WAT     H216218   3.007   5.384   7.928
 5326WAT      O16219   5.562   5.061   2.405
 5326WAT     H116220   5.548   5.109   2.319
 5326WAT     H216221   5.603   4.971   2.387
 5327WAT      O16222   3.536   3.806   0.018
 5327WAT     H116223   3.529   3.866  -0.062
 5327WAT     H216224   3.562   3.860   0.098
 5328WAT      O16225   0.406   7.548   7.778
 5328WAT     H116226   0.330   7.574   7.718
 5328WAT     H216227   0.370   7.504   7.860
 5329WAT      O16228   9.678   7.089   9.175
 5329WAT     H116229   9.674   7.070   9.077
 5329WAT     H216230   9.623   7.021   9.224
 5330WAT      O16231   0.940   5.047   9.378
 5330WAT     H116232   0.891   5.097   9.449
 5330WAT     H216233   1.005   5.108   9.333
 5331WAT      O16234   2.172   9.276   7.113
 5331WAT     H116235   2.180   9.338   7.192
 5331WAT     H216236   2.077   9.252   7.099
 5332WAT      O16237   5.030   6.186   3.948
 5332WAT     H116238   4.970   6.227   4.017
 5332WAT     H216239   5.090   6.256   3.910
 5333WAT      O16240   8.805   2.724   0.629
 5333WAT     H116241   8.734   2.714   0.698
 5333WAT     H216242   8.895   2.710   0.672
 5334WAT      O16243   2.377   9.047   6.280
 5334WAT     H116244   2.386   9.061   6.379
 5334WAT     H216245   2.467   9.025   6.241
 5335WAT      O16246   7.528   8.648   7.354
 5335WAT     H116247   7.434   8.658   7.320
 5335WAT     H216248   7.540   8.557   7.393
 5336WAT      O16249   0.641   3.800   2.802
 5336WAT     H116250   0.725   3.772   2.848
 5336WAT     H216251   0.653   3.893   2.765
 5337WAT      O16252   0.733   0.600   2.113
 5337WAT     H116253   0.750   0.503   2.129
 5337WAT     H216254   0.703   0.643   2.197
 5338WAT      O16255   9.735   2.926   0.571
 5338WAT     H116256   9.681   2.938   0.655
 5338WAT     H216257   9.829   2.958   0.588
 5339WAT      O16258   3.053   6.569   4.955
 5339WAT     H116259   3.015   6.570   5.048
 5339WAT     H216260   2.986   6.533   4.891
 5340WAT      O16261   4.004   3.660   7.053
 5340WAT     H116262   3.908   3.671   7.027
 5340WAT     H216263   4.018   3.694   7.146
 5341WAT      O16264   2.271   6.030   3.010
 5341WAT     H116265   2.268   6.006   3.108
 5341WAT     H216266   2.365   6.022   2.977
 5342WAT      O16267   1.696   2.480   1.141
 5342WAT     H116268   1.687   2.549   1.213
 5342WAT     H216269   1.742   2.521   1.062
 5343WAT      O16270   7.886   0.616   4.592
 5343WAT     H116271   7.935   0.646   4.675
 5343WAT     H216272   7.948   0.561   4.536
 5344WAT      O16273   6.311   1.040   5.069
 5344WAT     H116274   6.356   1.103   5.006
 5344WAT     H216275   6.296   1.086   5.157
 5345WAT      O16276   1.581   5.335   4.721
 5345WAT     H116277   1.553   5.430   4.731
 5345WAT     H216278   1.677   5.331   4.695
 5346WAT      O16279   5.554   7.682   0.336
 5346WAT     H116280   5.654   7.683   0.342
 5346WAT     H216281   5.519   7.609   0.395
 5347WAT      O16282   8.913   1.210   4.423
 5347WAT     H116283   8.933   1.203   4.325
 5347WAT     H216284   8.841   1.145   4.447
 5348WAT      O16285   3.213   3.108   7.836
 5348WAT     H116286   3.298   3.153   7.862
 5348WAT     H216287   3.135   3.161   7.871
 5349WAT      O16288   8.931   1.038   5.350
 5349WAT     H116289   9.019   1.086   5.345
 5349WAT     H216290   8.867   1.090   5.405
 5350WAT      O16291   6.544   9.711   3.602
 5350WAT     H116292   6.569   9.640   3.668
 5350WAT     H216293   6.444   9.724   3.604
 5351WAT      O16294   3.802   3.462   1.971
 5351WAT     H116295   3.844   3.398   2.035
 5351WAT     H216296   3.835   3.443   1.879
 5352WAT      O16297   9.434   5.728   1.869
 5352WAT     H116298   9.385   5.648   1.905
 5352WAT     H216299   9.376   5.809   1.876
 5353WAT      O16300   8.696   0.963   9.435
 5353WAT     H116301   8.636   0.904   9.381
 5353WAT     H216302   8.652   1.051   9.450
 5354WAT      O16303   1.472   9.126   8.439
 5354WAT     H116304   1.456   9.132   8.538
 5354WAT     H216305   1.400   9.176   8.391
 5355WAT      O16306   9.828   3.681   1.286
 5355WAT     H116307   9.895   3.752   1.309
 5355WAT     H216308   9.849   3.597   1.335
 5356WAT      O16309   7.998   2.421   2.479
 5356WAT     H116310   7.908   2.400   2.439
 5356WAT     H216311   8.069   2.381   2.421
 5357WAT      O16312   1.348   5.765   6.706
 5357WAT     H116313   1.263   5.817   6.698
 5357WAT     H216314   1.405   5.805   6.778
 5358WAT      O16315   1.396   1.192   3.177
 5358WAT     H116316   1.411   1.100   3.141
 5358WAT     H216317   1.475   1.250   3.153
 5359WAT      O16318   2.035   0.567   7.659
 5359WAT     H116319   1.936   0.575   7.645
 5359WAT     H216320   2.054   0.483   7.711
 5360WAT      O16321   0.413   6.708   5.709
 5360WAT     H116322   0.374   6.793   5.743
 5360WAT     H216323   0.356   6.672   5.635
 5361WAT      O16324   4.721   9.153   1.401
 5361WAT     H116325   4.804   9.111   1.439
 5361WAT     H216326   4.684   9.219   1.466
 5362WAT      O16327   2.663   1.384   0.247
 5362WAT     H116328   2.613   1.308   0.289
 5362WAT     H216329   2.754   1.390   0.287
 5363WAT      O16330   1.911   8.632   5.727
 5363WAT     H116331   1.921   8.548   5.673
 5363WAT     H216332   1.903   8.710   5.665
 5364WAT      O16333   2.052   6.770   6.926
 5364WAT     H116334   2.066   6.846   6.990
 5364WAT     H216335   1.982   6.795   6.859
 5365WAT      O16336   3.041   6.519   1.112
 5365WAT     H116337   2.946   6.528   1.144
 5365WAT     H216338   3.089   6.453   1.169
 5366WAT      O16339   7.587   1.592   2.172
 5366WAT     H116340   7.524   1.540   2.229
 5366WAT     H216341   7.536   1.659   2.118
 5367WAT      O16342   4.228   1.593   8.420
 5367WAT     H116343   4.224   1.497   8.449
 5367WAT     H216344   4.136   1.627   8.404
 5368WAT      O16345   7.824   5.503   3.067
 5368WAT     H116346   7.877   5.582   3.036
 5368WAT     H216347   7.817   5.437   2.992
 5369WAT      O16348   8.847   1.882   0.964
 5369WAT     H116349   8.845   1.812   0.892
 5369WAT     H216350   8.887   1.966   0.927
 5370WAT      O16351   0.032   4.761   6.156
 5370WAT     H116352   0.118   4.711   6.169
 5370WAT     H216353   0.035   4.846   6.208
 5371WAT      O16354   9.604   9.415   7.914
 5371WAT     H116355   9.571   9.439   7.823
 5371WAT     H216356   9.704   9.426   7.918
 5372WAT      O16357   6.563   0.057   0.499
 5372WAT     H116358   6.597   0.108   0.578
 5372WAT     H216359   6.612  -0.030   0.491
 5373WAT      O16360   7.608   5.448   0.009
 5373WAT     H116361   7.531   5.407   0.057
 5373WAT     H216362   7.692   5.431   0.061
 5374WAT      O16363   9.672   3.703   7.005
 5374WAT     H116364   9.765   3.718   7.038
 5374WAT     H216365   9.673   3.696   6.905
 5375WAT      O16366   0.048   8.361   6.691
 5375WAT     H116367   0.074   8.401   6.603
 5375WAT     H216368   0.098   8.276   6.705
 5376WAT      O16369   0.657   2.778   1.020
 5376WAT     H116370   0.716   2.712   0.973
 5376WAT     H216371   0.659   2.760   1.118
 5377WAT      O16372   1.432   7.847   7.242
 5377WAT     H116373   1.402   7.937   7.212
 5377WAT     H216374   1.358   7.781   7.230
 5378WAT      O16375   7.314   1.181   8.135
 5378WAT     H116376   7.309   1.231   8.048
 5378WAT     H216377   7.409   1.156   8.154
 5379WAT      O16378   6.885   8.201   8.019
 5379WAT     H116379   6.812   8.138   7.993
 5379WAT     H216380   6.865   8.242   8.108
 5380WAT      O16381   6.977   3.856   0.736
 5380WAT     H116382   7.014   3.773   0.696
 5380WAT     H216383   7.042   3.894   0.802
 5381WAT      O16384   2.544   1.162   6.600
 5381WAT     H116385   2.500   1.233   6.656
 5381WAT     H216386   2.639   1.152   6.629
 5382WAT      O16387   2.273   8.873   1.020
 5382WAT     H116388   2.279   8.810   1.097
 5382WAT     H216389   2.319   8.832   0.941
 5383WAT      O16390   2.636   3.886   2.273
 5383WAT     H116391   2.690   3.938   2.206
 5383WAT     H216392   2.667   3.908   2.365
 5384WAT      O16393   4.905   2.218   1.705
 5384WAT     H116394   4.930   2.183   1.615
 5384WAT     H216395   4.808   2.197   1.723
 5385WAT      O16396   7.764   3.124   5.432
 5385WAT     H116397   7.731   3.103   5.340
 5385WAT     H216398   7.801   3.041   5.474
 5386WAT      O16399   1.056   0.692   3.770
 5386WAT     H116400   1.055   0.615   3.706
 5386WAT     H216401   1.006   0.667   3.853
 5387WAT      O16402   2.860   6.660   9.806
 5387WAT     H116403   2.886   6.724   9.878
 5387WAT     H216404   2.769   6.683   9.771
 5388WAT      O16405   0.046   7.201   6.866
 5388WAT     H116406   0.074   7.129   6.929
 5388WAT     H216407  -0.002   7.160   6.788
 5389WAT      O16408   1.545   2.101   4.181
 5389WAT     H116409   1.636   2.095   4.221
 5389WAT     H216410   1.481   2.137   4.248
 5390WAT      O16411   9.595   4.434   1.824
 5390WAT     H116412   9.518   4.494   1.845
 5390WAT     H216413   9.677   4.489   1.806
 5391WAT      O16414   8.180   1.005   3.688
 5391WAT     H116415   8.109   0.949   3.646
 5391WAT     H216416   8.177   0.994   3.787
 5392WAT      O16417   8.891   8.712   6.658
 5392WAT     H116418   8.867   8.621   6.693
 5392WAT     H216419   8.818   8.777   6.681
 5393WAT      O16420   4.760   7.141   8.383
 5393WAT     H116421   4.818   7.066   8.412
 5393WAT     H216422   4.729   7.194   8.462
 5394WAT      O16423   2.462   4.849   9.383
 5394WAT     H116424   2.461   4.882   9.289
 5394WAT     H216425   2.417   4.760   9.388
 5395WAT      O16426   9.278   5.264   5.688
 5395WAT     H116427   9.220   5.333   5.731
 5395WAT     H216428   9.353   5.240   5.750
 5396WAT      O16429   5.393   1.327   3.594
 5396WAT     H116430   5.403   1.277   3.508
 5396WAT     H216431   5.407   1.264   3.671
 5397WAT      O16432   1.784   8.784   6.183
 5397WAT     H116433   1.811   8.728   6.261
 5397WAT     H216434   1.802   8.880   6.203
 5398WAT      O16435   9.433   1.433   7.831
 5398WAT     H116436   9.399   1.494   7.760
 5398WAT     H216437   9.529   1.411   7.812
 5399WAT      O16438   6.875   1.133   7.181
 5399WAT     H116439   6.777   1.143   7.200
 5399WAT     H216440   6.905   1.041   7.203
 5400WAT      O16441   4.173   8.184   6.874
 5400WAT     H116442   4.255   8.176   6.816
 5400WAT     H216443   4.163   8.279   6.903
 5401WAT      O16444   0.379   0.203   5.541
 5401WAT     H116445   0.342   0.186   5.450
 5401WAT     H216446   0.365   0.299   5.566
 5402WAT      O16447   1.804   8.642   4.603
 5402WAT     H116448   1.728   8.578   4.595
 5402WAT     H216449   1.831   8.673   4.511
 5403WAT      O16450   8.128   1.521   7.412
 5403WAT     H116451   8.112   1.545   7.317
 5403WAT     H216452   8.181   1.594   7.456
 5404WAT      O16453   6.174   0.951   2.697
 5404WAT     H116454   6.272   0.945   2.715
 5404WAT     H216455   6.156   1.027   2.635
 5405WAT      O16456   5.588   7.525   4.953
 5405WAT     H116457   5.496   7.555   4.977
 5405WAT     H216458   5.651   7.603   4.961
 5406WAT      O16459   4.744   6.528   5.167
 5406WAT     H116460   4.839   6.556   5.181
 5406WAT     H216461   4.683   6.598   5.204
 5407WAT      O16462   4.529   2.576   3.462
 5407WAT     H116463   4.486   2.605   3.547
 5407WAT     H216464   4.620   2.618   3.455
 5408WAT      O16465   6.259   4.784   0.109
 5408WAT     H116466   6.258   4.808   0.206
 5408WAT     H216467   6.181   4.726   0.087
 5409WAT      O16468   4.458   7.067   0.359
 5409WAT     H116469   4.494   7.109   0.443
 5409WAT     H216470   4.524   7.000   0.325
 5410WAT      O16471   9.793   9.422   2.681
 5410WAT     H116472   9.788   9.516   2.649
 5410WAT     H216473   9.851   9.368   2.619
 5411WAT      O16474   9.558   1.351   3.556
 5411WAT     H116475   9.600   1.351   3.647
 5411WAT     H216476   9.497   1.430   3.547
 5412WAT      O16477   2.535   2.590   7.421
 5412WAT     H116478   2.573   2.641   7.499
 5412WAT     H216479   2.502   2.501   7.452
 5413WAT      O16480   2.010   1.696   4.480
 5413WAT     H116481   2.038   1.606   4.446
 5413WAT     H216482   2.068   1.723   4.557
 5414WAT      O16483   4.669   1.600   7.132
 5414WAT     H116484   4.754   1.549   7.116
 5414WAT     H216485   4.671   1.684   7.078
 5415WAT      O16486   0.587   5.525   5.236
 5415WAT     H116487   0.620   5.436   5.205
 5415WAT     H216488   0.512   5.555   5.177
 5416WAT      O16489   0.277   0.342   4.157
 5416WAT     H116490   0.188   0.387   4.166
 5416WAT     H216491   0.301   0.336   4.060
 5417WAT      O16492   0.062   6.435   2.424
 5417WAT     H116493  -0.009   6.387   2.372
 5417WAT     H216494   0.031   6.449   2.518
 5418WAT      O16495   0.874   6.942   8.104
 5418WAT     H116496   0.848   7.019   8.045
 5418WAT     H216497   0.795   6.913   8.158
 5419WAT      O16498   9.625   4.463   3.883
 5419WAT     H116499   9.610   4.368   3.856
 5419WAT     H216500   9.596   4.524   3.809
 5420WAT      O16501   4.375   1.586   1.534
 5420WAT     H116502   4.336   1.652   1.598
 5420WAT     H216503   4.370   1.494   1.573
 5421WAT      O16504   3.422   8.360   6.629
 5421WAT     H116505   3.475   8.300   6.569
 5421WAT     H216506   3.445   8.339   6.724
 5422WAT      O16507   5.675   5.160   9.006
 5422WAT     H116508   5.703   5.217   8.929
 5422WAT     H216509   5.725   5.073   9.003
 5423WAT      O16510   7.345   4.931   6.559
 5423WAT     H116511   7.366   4.862   6.490
 5423WAT     H216512   7.357   4.892   6.650
 5424WAT      O16513   9.840   4.675   9.859
 5424WAT     H116514   9.825   4.751   9.922
 5424WAT     H216515   9.894   4.604   9.905
 5425WAT      O16516   0.088   8.201   3.825
 5425WAT     H116517   0.082   8.120   3.767
 5425WAT     H216518  -0.005   8.233   3.846
 5426WAT      O16519   1.666   8.019   8.310
 5426WAT     H116520   1.724   7.937   8.306
 5426WAT     H216521   1.711   8.089   8.365
 5427WAT      O16522   5.825   8.031   4.897
 5427WAT     H116523   5.768   7.977   4.959
 5427WAT     H216524   5.919   8.035   4.933
 5428WAT      O16525   9.345   8.056   7.031
 5428WAT     H116526   9.406   8.067   7.110
 5428WAT     H216527   9.300   8.143   7.011
 5429WAT      O16528   3.624   2.530   1.589
 5429WAT     H116529   3.556   2.598   1.561
 5429WAT     H216530   3.583   2.439   1.585
 5430WAT      O16531   1.377   2.765   8.465
 5430WAT     H116532   1.395   2.841   8.403
 5430WAT     H216533   1.445   2.764   8.538
 5431WAT      O16534   4.030   2.181   7.147
 5431WAT     H116535   3.989   2.096   7.116
 5431WAT     H216536   3.965   2.257   7.134
 5432WAT      O16537   2.338   5.753   3.515
 5432WAT     H116538   2.263   5.786   3.571
 5432WAT     H216539   2.425   5.778   3.557
 5433WAT      O16540   7.025   9.365   2.228
 5433WAT     H116541   7.062   9.422   2.154
 5433WAT     H216542   7.100   9.322   2.277
 5434WAT      O16543   8.311   2.898   4.866
 5434WAT     H116544   8.224   2.872   4.908
 5434WAT     H216545   8.353   2.972   4.920
 5435WAT      O16546   7.434   3.872   0.954
 5435WAT     H116547   7.415   3.971   0.952
 5435WAT     H216548   7.417   3.833   0.864
 5436WAT      O16549   9.645   7.276   8.594
 5436WAT     H116550   9.710   7.351   8.606
 5436WAT     H216551   9.575   7.303   8.527
 5437WAT      O16552   4.474   6.988   1.344
 5437WAT     H116553   4.561   6.946   1.317
 5437WAT     H216554   4.491   7.052   1.419
 5438WAT      O16555   4.413   4.517   8.596
 5438WAT     H116556   4.476   4.529   8.672
 5438WAT     H216557   4.417   4.422   8.564
 5439WAT      O16558   8.921   7.581   5.101
 5439WAT     H116559   9.013   7.617   5.084
 5439WAT     H216560   8.883   7.544   5.016
 5440WAT      O16561   6.799   1.039   4.191
 5440WAT     H116562   6.745   0.989   4.258
 5440WAT     H216563   6.896   1.028   4.212
 5441WAT      O16564   9.846   1.479   1.284
 5441WAT     H116565   9.866   1.533   1.202
 5441WAT     H216566   9.893   1.391   1.279
 5442WAT      O16567   2.556   8.674   3.126
 5442WAT     H116568   2.552   8.622   3.040
 5442WAT     H216569   2.501   8.757   3.116
 5443WAT      O16570   3.611   3.376   0.864
 5443WAT     H116571   3.559   3.336   0.939
 5443WAT     H216572   3.697   3.414   0.899
 5444WAT      O16573   6.118   5.479   4.392
 5444WAT     H116574   6.118   5.471   4.292
 5444WAT     H216575   6.024   5.485   4.425
 5445WAT      O16576   6.149   6.732   6.242
 5445WAT     H116577   6.155   6.722   6.342
 5445WAT     H216578   6.217   6.799   6.211
 5446WAT      O16579   2.079   5.350   1.968
 5446WAT     H116580   2.019   5.421   1.931
 5446WAT     H216581   2.046   5.321   2.057
 5447WAT      O16582   0.224   8.815   1.426
 5447WAT     H116583   0.321   8.838   1.427
 5447WAT     H216584   0.174   8.879   1.484
 5448WAT      O16585   0.363   4.795   7.087
 5448WAT     H116586   0.390   4.723   7.151
 5448WAT     H216587   0.404   4.777   6.998
 5449WAT      O16588   9.130   4.668   8.438
 5449WAT     H116589   9.159   4.752   8.394
 5449WAT     H216590   9.176   4.590   8.396
 5450WAT      O16591   7.422   2.653   9.660
 5450WAT     H116592   7.493   2.599   9.706
 5450WAT     H216593   7.431   2.641   9.561
 5451WAT      O16594   6.769   9.301   3.353
 5451WAT     H116595   6.843   9.267   3.411
 5451WAT     H216596   6.696   9.232   3.349
 5452WAT      O16597   7.746   7.136   6.818
 5452WAT     H116598   7.738   7.133   6.917
 5452WAT     H216599   7.694   7.214   6.782
 5453WAT      O16600   0.999   8.020   6.585
 5453WAT     H116601   1.077   7.968   6.621
 5453WAT     H216602   0.990   8.106   6.636
 5454WAT      O16603   3.117   5.733   7.717
 5454WAT     H116604   3.122   5.665   7.790
 5454WAT     H216605   3.199   5.728   7.660
 5455WAT      O16606   8.652   4.327   9.627
 5455WAT     H116607   8.738   4.320   9.575
 5455WAT     H216608   8.646   4.418   9.668
 5456WAT      O16609   4.085   7.457   8.346
 5456WAT     H116610   4.099   7.457   8.247
 5456WAT     H216611   4.091   7.363   8.381
 5457WAT      O16612   0.689   2.139   9.098
 5457WAT     H116613   0.666   2.231   9.129
 5457WAT     H216614   0.715   2.141   9.002
 5458WAT      O16615   2.441   4.027   1.582
 5458WAT     H116616   2.463   4.120   1.611
 5458WAT     H216617   2.376   4.029   1.506
 5459WAT      O16618   9.071   7.284   1.616
 5459WAT     H116619   9.164   7.280   1.654
 5459WAT     H216620   9.066   7.226   1.535
 5460WAT      O16621   5.227   2.008   0.354
 5460WAT     H116622   5.249   1.930   0.412
 5460WAT     H216623   5.152   1.983   0.292
 5461WAT      O16624   2.447   9.414   0.659
 5461WAT     H116625   2.488   9.467   0.733
 5461WAT     H216626   2.517   9.396   0.589
 5462WAT      O16627   4.513   7.164   4.577
 5462WAT     H116628   4.528   7.096   4.505
 5462WAT     H216629   4.593   7.168   4.636
 5463WAT      O16630   6.020   9.204   5.452
 5463WAT     H116631   6.018   9.162   5.543
 5463WAT     H216632   6.115   9.220   5.425
 5464WAT      O16633   3.667   0.973   6.470
 5464WAT     H116634   3.605   1.046   6.497
 5464WAT     H216635   3.657   0.895   6.532
 5465WAT      O16636   7.221   8.236   7.599
 5465WAT     H116637   7.172   8.296   7.663
 5465WAT     H216638   7.318   8.233   7.625
 5466WAT      O16639   7.669   5.907   3.617
 5466WAT     H116640   7.680   6.006   3.619
 5466WAT     H216641   7.758   5.863   3.632
 5467WAT      O16642   5.267   7.359   9.697
 5467WAT     H116643   5.228   7.451   9.691
 5467WAT     H216644   5.364   7.366   9.717
 5468WAT      O16645   8.040   6.786   2.198
 5468WAT     H116646   8.048   6.881   2.168
 5468WAT     H216647   7.961   6.744   2.154
 5469WAT      O16648   5.463   9.489   0.319
 5469WAT     H116649   5.541   9.436   0.286
 5469WAT     H216650   5.419   9.535   0.242
 5470WAT      O16651   5.971   4.336   9.782
 5470WAT     H116652   6.037   4.279   9.831
 5470WAT     H216653   5.878   4.306   9.803
 5471WAT      O16654   8.988   2.643   9.819
 5471WAT     H116655   8.979   2.589   9.903
 5471WAT     H216656   8.898   2.651   9.776
 5472WAT      O16657   6.627   1.420   4.068
 5472WAT     H116658   6.655   1.472   3.988
 5472WAT     H216659   6.552   1.469   4.114
 5473WAT      O16660   3.756   4.479   8.957
 5473WAT     H116661   3.830   4.414   8.971
 5473WAT     H216662   3.689   4.472   9.031
 5474WAT      O16663   2.371   6.975   4.345
 5474WAT     H116664   2.428   6.914   4.289
 5474WAT     H216665   2.403   7.069   4.333
 5475WAT      O16666   5.898   6.910   5.141
 5475WAT     H116667   5.905   6.902   5.240
 5475WAT     H216668   5.810   6.872   5.111
 5476WAT      O16669   3.029   6.766   8.023
 5476WAT     H116670   3.122   6.729   8.025
 5476WAT     H216671   2.964   6.690   8.028
 5477WAT      O16672   1.221   9.455   6.139
 5477WAT     H116673   1.229   9.511   6.057
 5477WAT     H216674   1.143   9.486   6.193
 5478WAT      O16675   6.756   1.231   7.920
 5478WAT     H116676   6.805   1.309   7.883
 5478WAT     H216677   6.774   1.224   8.018
 5479WAT      O16678   3.679   0.072   1.365
 5479WAT     H116679   3.744   0.074   1.441
 5479WAT     H216680   3.631   0.159   1.360
 5480WAT      O16681   5.795   6.931   3.689
 5480WAT     H116682   5.812   7.021   3.730
 5480WAT     H216683   5.721   6.938   3.622
 5481WAT      O16684   0.107   8.793   8.571
 5481WAT     H116685   0.188   8.806   8.628
 5481WAT     H216686   0.127   8.821   8.477
 5482WAT      O16687   2.598   7.280   0.353
 5482WAT     H116688   2.665   7.298   0.426
 5482WAT     H216689   2.523   7.345   0.360
 5483WAT      O16690   5.338   3.504   1.288
 5483WAT     H116691   5.369   3.494   1.193
 5483WAT     H216692   5.410   3.469   1.349
 5484WAT      O16693   0.217   0.331   2.328
 5484WAT     H116694   0.212   0.429   2.304
 5484WAT     H216695   0.125   0.298   2.350
 5485WAT      O16696   6.005   3.040   6.655
 5485WAT     H116697   5.983   3.125   6.608
 5485WAT     H216698   5.921   2.989   6.672
 5486WAT      O16699   7.199   4.839   9.696
 5486WAT     H116700   7.162   4.906   9.631
 5486WAT     H216701   7.265   4.884   9.757
 5487WAT      O16702   3.420   2.805   1.952
 5487WAT     H116703   3.461   2.851   1.873
 5487WAT     H216704   3.434   2.707   1.945
 5488WAT      O16705   1.719   1.169   2.021
 5488WAT     H116706   1.647   1.234   1.998
 5488WAT     H216707   1.781   1.209   2.088
 5489WAT      O16708   0.345   2.203   4.685
 5489WAT     H116709   0.268   2.265   4.672
 5489WAT     H216710   0.325   2.139   4.759
 5490WAT      O16711   4.824   2.664   7.627
 5490WAT     H116712   4.742   2.641   7.574
 5490WAT     H216713   4.841   2.762   7.622
 5491WAT      O16714   3.252   6.513   1.413
 5491WAT     H116715   3.293   6.553   1.495
 5491WAT     H216716   3.324   6.472   1.357
 5492WAT      O16717   9.129   3.235   4.462
 5492WAT     H116718   9.108   3.315   4.406
 5492WAT     H216719   9.174   3.166   4.406
 5493WAT      O16720   7.655   8.895   1.756
 5493WAT     H116721   7.566   8.865   1.723
 5493WAT     H216722   7.711   8.923   1.678
 5494WAT      O16723   7.109   6.346   3.199
 5494WAT     H116724   7.206   6.363   3.185
 5494WAT     H216725   7.096   6.251   3.230
 5495WAT      O16726   3.762   6.958   6.230
 5495WAT     H116727   3.822   7.034   6.255
 5495WAT     H216728   3.723   6.917   6.313
 5496WAT      O16729   5.196   4.312   8.750
 5496WAT     H116730   5.194   4.233   8.688
 5496WAT     H216731   5.106   4.356   8.750
 5497WAT      O16732   6.596   5.870   2.578
 5497WAT     H116733   6.678   5.818   2.554
 5497WAT     H216734   6.516   5.831   2.532
 5498WAT      O16735   9.769   2.333   7.218
 5498WAT     H116736   9.811   2.257   7.268
 5498WAT     H216737   9.673   2.342   7.245
 5499WAT      O16738   3.672   2.809   3.452
 5499WAT     H116739   3.654   2.902   3.421
 5499WAT     H216740   3.587   2.768   3.485
 5500WAT      O16741   9.291   2.389   5.316
 5500WAT     H116742   9.341   2.305   5.336
 5500WAT     H216743   9.303   2.454   5.391
 5501WAT      O16744   6.624   8.688   3.506
 5501WAT     H116745   6.621   8.658   3.410
 5501WAT     H216746   6.532   8.709   3.537
 5502WAT      O16747   2.461   1.271   2.365
 5502WAT     H116748   2.468   1.361   2.321
 5502WAT     H216749   2.524   1.266   2.442
 5503WAT      O16750   2.520   0.417   3.866
 5503WAT     H116751   2.503   0.401   3.963
 5503WAT     H216752   2.533   0.515   3.850
 5504WAT      O16753   1.879   8.447   2.244
 5504WAT     H116754   1.885   8.454   2.144
 5504WAT     H216755   1.843   8.357   2.269
 5505WAT      O16756   8.570   1.247   0.210
 5505WAT     H116757   8.483   1.296   0.213
 5505WAT     H216758   8.645   1.312   0.216
 5506WAT      O16759   5.264   8.729   8.125
 5506WAT     H116760   5.262   8.640   8.079
 5506WAT     H216761   5.213   8.724   8.211
 5507WAT      O16762   2.697   1.814   0.395
 5507WAT     H116763   2.614   1.772   0.357
 5507WAT     H216764   2.723   1.767   0.479
 5508WAT      O16765   7.968   0.556   1.820
 5508WAT     H116766   7.899   0.569   1.891
 5508WAT     H216767   7.940   0.602   1.736
 5509WAT      O16768   7.465   5.969   3.021
 5509WAT     H116769   7.424   6.012   2.941
 5509WAT     H216770   7.554   5.930   2.996
 5510WAT      O16771   2.227   2.723   9.291
 5510WAT     H116772   2.159   2.786   9.256
 5510WAT     H216773   2.208   2.630   9.258
 5511WAT      O16774   3.105   9.511   4.615
 5511WAT     H116775   3.123   9.456   4.697
 5511WAT     H216776   3.166   9.481   4.541
 5512WAT      O16777   3.014   4.086   1.754
 5512WAT     H116778   2.968   4.076   1.666
 5512WAT     H216779   2.969   4.159   1.806
 5513WAT      O16780   8.768   5.137   4.773
 5513WAT     H116781   8.748   5.223   4.726
 5513WAT     H216782   8.779   5.154   4.871
 5514WAT      O16783   4.240   6.731   2.789
 5514WAT     H116784   4.158   6.764   2.836
 5514WAT     H216785   4.305   6.806   2.778
 5515WAT      O16786   2.289   5.023   8.141
 5515WAT     H116787   2.277   4.947   8.078
 5515WAT     H216788   2.215   5.089   8.129
 5516WAT      O16789   8.743   3.371   1.771
 5516WAT     H116790   8.714   3.462   1.803
 5516WAT     H216791   8.675   3.303   1.797
 5517WAT      O16792   5.372   8.463   2.653
 5517WAT     H116793   5.274   8.444   2.660
 5517WAT     H216794   5.395   8.484   2.557
 5518WAT      O16795   7.347   7.071   8.075
 5518WAT     H116796   7.354   6.971   8.071
 5518WAT     H216797   7.417   7.112   8.016
 5519WAT      O16798   1.874   2.746   3.694
 5519WAT     H116799   1.782   2.710   3.708
 5519WAT     H216800   1.870   2.845   3.684
 5520WAT      O16801   2.216   3.749   5.438
 5520WAT     H116802   2.223   3.817   5.365
 5520WAT     H216803   2.163   3.786   5.513
 5521WAT      O16804   1.607   4.584   2.057
 5521WAT     H116805   1.596   4.490   2.025
 5521WAT     H216806   1.622   4.644   1.979
 5522WAT      O16807   0.209   4.419   5.553
 5522WAT     H116808   0.120   4.377   5.568
 5522WAT     H216809   0.203   4.486   5.479
 5523WAT      O16810   7.334   7.579   2.432
 5523WAT     H116811   7.323   7.678   2.418
 5523WAT     H216812   7.421   7.561   2.477
 5524WAT      O16813   0.554   3.785   4.600
 5524WAT     H116814   0.533   3.824   4.510
 5524WAT     H216815   0.611   3.849   4.651
 5525WAT      O16816   1.109   0.375   2.011
 5525WAT     H116817   1.012   0.368   2.037
 5525WAT     H216818   1.131   0.470   1.989
 5526WAT      O16819   6.136   8.663   0.199
 5526WAT     H116820   6.074   8.679   0.275
 5526WAT     H216821   6.229   8.652   0.234
 5527WAT      O16822   1.517   4.821   7.173
 5527WAT     H116823   1.615   4.839   7.176
 5527WAT     H216824   1.493   4.755   7.244
 5528WAT      O16825   1.132   9.335   0.817
 5528WAT     H116826   1.223   9.366   0.846
 5528WAT     H216827   1.067   9.410   0.823
 5529WAT      O16828   6.239   9.739   7.639
 5529WAT     H116829   6.311   9.774   7.580
 5529WAT     H216830   6.265   9.648   7.673
 5530WAT      O16831   8.813   0.517   9.635
 5530WAT     H116832   8.909   0.516   9.661
 5530WAT     H216833   8.805   0.527   9.536
 5531WAT      O16834   5.446   6.307   3.074
 5531WAT     H116835   5.433   6.324   3.171
 5531WAT     H216836   5.432   6.209   3.055
 5532WAT      O16837   1.957   4.937   0.997
 5532WAT     H116838   2.003   4.870   1.056
 5532WAT     H216839   1.905   5.001   1.054
 5533WAT      O16840   8.374   1.516   2.685
 5533WAT     H116841   8.371   1.573   2.603
 5533WAT     H216842   8.467   1.516   2.722
 5534WAT      O16843   9.152   3.104   3.970
 5534WAT     H116844   9.098   3.053   4.036
 5534WAT     H216845   9.132   3.071   3.878
 5535WAT      O16846   1.371   4.672   1.346
 5535WAT     H116847   1.403   4.751   1.295
 5535WAT     H216848   1.319   4.612   1.285
 5536WAT      O16849   4.785   3.245   7.477
 5536WAT     H116850   4.701   3.194   7.495
 5536WAT     H216851   4.820   3.285   7.562
 5537WAT      O16852   3.534   6.326   6.078
 5537WAT     H116853   3.599   6.286   6.142
 5537WAT     H216854   3.541   6.280   5.989
 5538WAT      O16855   1.674   2.987   6.762
 5538WAT     H116856   1.711   2.996   6.669
 5538WAT     H216857   1.622   3.069   6.784
 5539WAT      O16858   2.254   6.145   5.130
 5539WAT     H116859   2.280   6.049   5.117
 5539WAT     H216860   2.306   6.203   5.067
 5540WAT      O16861   6.663   5.800   8.807
 5540WAT     H116862   6.751   5.770   8.770
 5540WAT     H216863   6.609   5.841   8.734
 5541WAT      O16864   6.834   8.427   1.824
 5541WAT     H116865   6.785   8.466   1.902
 5541WAT     H216866   6.913   8.484   1.802
 5542WAT      O16867   2.953   0.724   2.121
 5542WAT     H116868   3.002   0.673   2.191
 5542WAT     H216869   2.969   0.682   2.032
 5543WAT      O16870   2.415   9.505   9.389
 5543WAT     H116871   2.384   9.455   9.308
 5543WAT     H216872   2.362   9.476   9.469
 5544WAT      O16873   5.178   7.088   2.685
 5544WAT     H116874   5.239   7.013   2.661
 5544WAT     H216875   5.210   7.172   2.642
 5545WAT      O16876   9.595   6.593   8.406
 5545WAT     H116877   9.564   6.676   8.452
 5545WAT     H216878   9.694   6.597   8.393
 5546WAT      O16879   8.772   6.832   2.756
 5546WAT     H116880   8.802   6.758   2.696
 5546WAT     H216881   8.778   6.920   2.707
 5547WAT      O16882   0.705   2.963   0.258
 5547WAT     H116883   0.705   2.869   0.225
 5547WAT     H216884   0.781   3.013   0.216
 5548WAT      O16885   3.289   7.466   8.611
 5548WAT     H116886   3.343   7.526   8.671
 5548WAT     H216887   3.287   7.374   8.648
 5549WAT      O16888   1.509   5.342   7.569
 5549WAT     H116889   1.570   5.280   7.619
 5549WAT     H216890   1.563   5.418   7.531
 5550WAT      O16891   3.301   2.467   4.717
 5550WAT     H116892   3.349   2.426   4.640
 5550WAT     H216893   3.243   2.398   4.761
 5551WAT      O16894   8.186   8.102   6.577
 5551WAT     H116895   8.227   8.187   6.609
 5551WAT     H216896   8.201   8.030   6.644
 5552WAT      O16897   7.895   3.436   8.555
 5552WAT     H116898   7.974   3.414   8.611
 5552WAT     H216899   7.822   3.369   8.572
 5553WAT      O16900   4.635   0.138   5.466
 5553WAT     H116901   4.729   0.106   5.467
 5553WAT     H216902   4.619   0.198   5.545
 5554WAT      O16903   5.200   7.275   3.733
 5554WAT     H116904   5.128   7.205   3.738
 5554WAT     H216905   5.288   7.233   3.755
 5555WAT      O16906   7.806   3.170   1.151
 5555WAT     H116907   7.734   3.213   1.205
 5555WAT     H216908   7.876   3.238   1.129
 5556WAT      O16909   9.362   0.257   6.316
 5556WAT     H116910   9.340   0.346   6.356
 5556WAT     H216911   9.455   0.258   6.280
 5557WAT      O16912   8.547   1.051   2.244
 5557WAT     H116913   8.645   1.047   2.226
 5557WAT     H216914   8.529   1.032   2.340
 5558WAT      O16915   0.166   0.063   3.971
 5558WAT     H116916   0.201   0.013   4.050
 5558WAT     H216917   0.239   0.119   3.932
 5559WAT      O16918   3.948   6.303   7.908
 5559WAT     H116919   3.879   6.341   7.845
 5559WAT     H216920   3.963   6.206   7.886
 5560WAT      O16921   8.308   0.602   6.621
 5560WAT     H116922   8.338   0.510   6.647
 5560WAT     H216923   8.304   0.609   6.522
 5561WAT      O16924   5.847   1.951   6.117
 5561WAT     H116925   5.930   1.895   6.119
 5561WAT     H216926   5.781   1.911   6.053
 5562WAT      O16927   6.848   4.164   6.905
 5562WAT     H116928   6.799   4.077   6.901
 5562WAT     H216929   6.867   4.197   6.813
 5563WAT      O16930   2.202   4.334   3.813
 5563WAT     H116931   2.136   4.340   3.887
 5563WAT     H216932   2.156   4.345   3.725
 5564WAT      O16933   2.549   6.042   0.930
 5564WAT     H116934   2.583   5.988   1.007
 5564WAT     H216935   2.565   6.139   0.949
 5565WAT      O16936   5.575   8.627   4.604
 5565WAT     H116937   5.621   8.640   4.692
 5565WAT     H216938   5.643   8.607   4.534
 5566WAT      O16939   1.401   5.420   5.160
 5566WAT     H116940   1.330   5.402   5.093
 5566WAT     H216941   1.448   5.335   5.184
 5567WAT      O16942   7.753   2.000   0.320
 5567WAT     H116943   7.836   2.007   0.376
 5567WAT     H216944   7.682   1.952   0.371
 5568WAT      O16945   1.535   1.039   5.302
 5568WAT     H116946   1.579   0.958   5.263
 5568WAT     H216947   1.575   1.121   5.262
 5569WAT      O16948   3.164   4.837   3.107
 5569WAT     H116949   3.178   4.768   3.178
 5569WAT     H216950   3.235   4.907   3.113
 5570WAT      O16951   8.066   7.192   9.223
 5570WAT     H116952   7.989   7.256   9.220
 5570WAT     H216953   8.085   7.157   9.131
 5571WAT      O16954   1.489   1.535   8.737
 5571WAT     H116955   1.487   1.634   8.752
 5571WAT     H216956   1.506   1.488   8.823
 5572WAT      O16957   7.482   9.823   6.910
 5572WAT     H116958   7.412   9.894   6.905
 5572WAT     H216959   7.481   9.780   7.000
 5573WAT      O16960   8.978   8.283   9.098
 5573WAT     H116961   9.017   8.356   9.042
 5573WAT     H216962   9.040   8.205   9.099
 5574WAT      O16963   2.179   5.425   6.428
 5574WAT     H116964   2.095   5.420   6.483
 5574WAT     H216965   2.236   5.345   6.446
 5575WAT      O16966   4.341   6.389   3.698
 5575WAT     H116967   4.309   6.312   3.642
 5575WAT     H216968   4.335   6.364   3.795
 5576WAT      O16969   9.156   2.503   3.452
 5576WAT     H116970   9.182   2.409   3.472
 5576WAT     H216971   9.238   2.560   3.446
 5577WAT      O16972   6.185   9.006   5.202
 5577WAT     H116973   6.139   9.066   5.137
 5577WAT     H216974   6.219   9.060   5.279
 5578WAT      O16975   3.634   7.065   5.184
 5578WAT     H116976   3.728   7.094   5.200
 5578WAT     H216977   3.581   7.077   5.268
 5579WAT      O16978   7.444   5.820   9.049
 5579WAT     H116979   7.355   5.811   9.004
 5579WAT     H216980   7.461   5.917   9.069
 5580WAT      O16981   1.906   7.876   7.804
 5580WAT     H116982   1.994   7.842   7.835
 5580WAT     H216983   1.861   7.806   7.748
 5581WAT      O16984   9.761   4.686   1.732
 5581WAT     H116985   9.698   4.725   1.799
 5581WAT     H216986   9.782   4.755   1.662
 5582WAT      O16987   4.288   3.038   3.117
 5582WAT     H116988   4.282   2.939   3.103
 5582WAT     H216989   4.340   3.079   3.042
 5583WAT      O16990   8.502   4.031   4.271
 5583WAT     H116991   8.596   3.999   4.288
 5583WAT     H216992   8.480   4.104   4.336
 5584WAT      O16993   0.136   7.096   8.902
 5584WAT     H116994   0.046   7.062   8.929
 5584WAT     H216995   0.152   7.072   8.806
 5585WAT      O16996   0.076   0.849   5.991
 5585WAT     H116997   0.135   0.774   5.962
 5585WAT     H216998   0.034   0.826   6.078
 5586WAT      O16999   2.951   3.229   3.036
 5586WAT     H117000   2.881   3.244   2.966
 5586WAT     H217001   2.910   3.191   3.118
 5587WAT      O17002   4.241   5.042   8.125
 5587WAT     H117003   4.267   5.046   8.029
 5587WAT     H217004   4.160   5.098   8.140
 5588WAT      O17005   4.008   8.695   1.194
 5588WAT     H117006   3.952   8.758   1.139
 5588WAT     H217007   4.105   8.716   1.179
 5589WAT      O17008   0.434   6.246   4.723
 5589WAT     H117009   0.415   6.197   4.639
 5589WAT     H217010   0.365   6.223   4.792
 5590WAT      O17011   5.436   3.283   7.271
 5590WAT     H117012   5.454   3.259   7.367
 5590WAT     H217013   5.401   3.376   7.266
 5591WAT      O17014   5.615   4.110   8.023
 5591WAT     H117015   5.619   4.110   8.123
 5591WAT     H217016   5.545   4.046   7.992
 5592WAT      O17017   3.887   1.556   7.891
 5592WAT     H117018   3.909   1.507   7.806
 5592WAT     H217019   3.884   1.654   7.872
 5593WAT      O17020   5.958   8.744   0.386
 5593WAT     H117021   5.968   8.781   0.478
 5593WAT     H217022   5.862   8.747   0.359
 5594WAT      O17023   1.506   5.647   8.025
 5594WAT     H117024   1.508   5.721   7.958
 5594WAT     H217025   1.532   5.561   7.981
 5595WAT      O17026   6.375   9.394   0.279
 5595WAT     H117027   6.445   9.460   0.308
 5595WAT     H217028   6.366   9.323   0.348
 5596WAT      O17029   7.339   1.914   6.381
 5596WAT     H117030   7.337   1.973   6.461
 5596WAT     H217031   7.296   1.826   6.403
 5597WAT      O17032   0.669   0.959   2.249
 5597WAT     H117033   0.626   0.997   2.331
 5597WAT     H217034   0.706   1.032   2.193
 5598WAT      O17035   9.773   4.990   9.730
 5598WAT     H117036   9.680   5.017   9.706
 5598WAT     H217037   9.780   4.976   9.829
 5599WAT      O17038   8.576   7.053   6.661
 5599WAT     H117039   8.671   7.085   6.654
 5599WAT     H217040   8.574   6.968   6.713
 5600WAT      O17041   0.610   3.217   2.230
 5600WAT     H117042   0.681   3.286   2.248
 5600WAT     H217043   0.607   3.198   2.132
 5601WAT      O17044   4.876   8.440   9.044
 5601WAT     H117045   4.813   8.496   8.989
 5601WAT     H217046   4.962   8.488   9.055
 5602WAT      O17047   0.581   8.798   7.237
 5602WAT     H117048   0.669   8.798   7.283
 5602WAT     H217049   0.551   8.704   7.222
 5603WAT      O17050   8.868   3.842   6.587
 5603WAT     H117051   8.809   3.761   6.582
 5603WAT     H217052   8.883   3.878   6.496
 5604WAT      O17053   1.389   8.696   9.397
 5604WAT     H117054   1.470   8.639   9.390
 5604WAT     H217055   1.354   8.694   9.491
 5605WAT      O17056   8.747   1.368   3.928
 5605WAT     H117057   8.759   1.281   3.880
 5605WAT     H217058   8.829   1.388   3.981
 5606WAT      O17059   6.822   7.698   3.711
 5606WAT     H117060   6.845   7.645   3.792
 5606WAT     H217061   6.838   7.795   3.729
 5607WAT      O17062   2.358   9.317   4.754
 5607WAT     H117063   2.458   9.318   4.766
 5607WAT     H217064   2.315   9.291   4.841
 5608WAT      O17065   0.793   3.609   7.901
 5608WAT     H117066   0.798   3.708   7.896
 5608WAT     H217067   0.729   3.582   7.972
 5609WAT      O17068   5.074   8.129   0.038
 5609WAT     H117069   5.006   8.149   0.108
 5609WAT     H217070   5.077   8.031   0.020
 5610WAT      O17071   9.199   2.571   6.762
 5610WAT     H117072   9.101   2.573   6.783
 5610WAT     H217073   9.243   2.652   6.800
 5611WAT      O17074   7.766   4.033   0.038
 5611WAT     H117075   7.830   4.041  -0.038
 5611WAT     H217076   7.817   4.016   0.123
 5612WAT      O17077   8.948   8.792   9.239
 5612WAT     H117078   8.889   8.817   9.316
 5612WAT     H217079   8.969   8.694   9.245
 5613WAT      O17080   9.746   5.966   4.364
 5613WAT     H117081   9.735   5.885   4.422
 5613WAT     H217082   9.814   6.027   4.405
 5614WAT      O17083   3.371   5.999   2.923
 5614WAT     H117084   3.272   5.998   2.906
 5614WAT     H217085   3.400   5.909   2.955
 5615WAT      O17086   2.605   3.121   8.026
 5615WAT     H117087   2.521   3.149   7.979
 5615WAT     H217088   2.591   3.129   8.125
 5616WAT      O17089   3.804   3.823   9.414
 5616WAT     H117090   3.847   3.911   9.434
 5616WAT     H217091   3.806   3.805   9.316
 5617WAT      O17092   6.897   9.611   2.124
 5617WAT     H117093   6.867   9.707   2.121
 5617WAT     H217094   6.915   9.585   2.219
 5618WAT      O17095   6.767   0.089   8.559
 5618WAT     H117096   6.722   0.017   8.506
 5618WAT     H217097   6.764   0.065   8.657
 5619WAT      O17098   2.196   9.574   7.928
 5619WAT     H117099   2.184   9.631   7.847
 5619WAT     H217100   2.109   9.568   7.978
 5620WAT      O17101   7.395   4.171   9.141
 5620WAT     H117102   7.487   4.139   9.164
 5620WAT     H217103   7.341   4.180   9.224
 5621WAT      O17104   1.856   7.100   2.793
 5621WAT     H117105   1.937   7.087   2.850
 5621WAT     H217106   1.807   7.182   2.823
 5622WAT      O17107   2.278   7.906   7.497
 5622WAT     H117108   2.377   7.889   7.499
 5622WAT     H217109   2.247   7.930   7.589
 5623WAT      O17110   5.183   8.083   7.872
 5623WAT     H117111   5.120   8.103   7.797
 5623WAT     H217112   5.141   8.111   7.959
 5624WAT      O17113   2.415   7.019   3.099
 5624WAT     H117114   2.497   7.032   3.155
 5624WAT     H217115   2.340   6.986   3.156
 5625WAT      O17116   5.003   6.615   0.915
 5625WAT     H117117   4.910   6.618   0.952
 5625WAT     H217118   5.063   6.569   0.979
 5626WAT      O17119   3.117   7.159   8.312
 5626WAT     H117120   3.144   7.104   8.391
 5626WAT     H217121   3.029   7.203   8.331
 5627WAT      O17122   2.118   9.243   3.066
 5627WAT     H117123   2.090   9.189   3.146
 5627WAT     H217124   2.066   9.329   3.064
 5628WAT      O17125   4.268   1.057   4.219
 5628WAT     H117126   4.225   1.134   4.266
 5628WAT     H217127   4.207   1.023   4.147
 5629WAT      O17128   8.168   6.854   7.649
 5629WAT     H117129   8.163   6.883   7.744
 5629WAT     H217130   8.249   6.796   7.636
 5630WAT      O17131   5.044   0.855   8.096
 5630WAT     H117132   4.959   0.853   8.150
 5630WAT     H217133   5.075   0.949   8.086
 5631WAT      O17134   4.783   8.310   0.343
 5631WAT     H117135   4.754   8.301   0.248
 5631WAT     H217136   4.732   8.386   0.385
 5632WAT      O17137   1.048   3.410   2.436
 5632WAT     H117138   1.071   3.471   2.511
 5632WAT     H217139   1.094   3.440   2.353
 5633WAT      O17140   3.695   7.953   8.411
 5633WAT     H117141   3.609   7.906   8.389
 5633WAT     H217142   3.721   8.013   8.336
 5634WAT      O17143   5.047   0.368   1.835
 5634WAT     H117144   5.125   0.427   1.856
 5634WAT     H217145   5.067   0.314   1.753
 5635WAT      O17146   6.355   5.802   5.292
 5635WAT     H117147   6.337   5.838   5.201
 5635WAT     H217148   6.293   5.725   5.311
 5636WAT      O17149   0.996   8.609   3.323
 5636WAT     H117150   0.903   8.574   3.338
 5636WAT     H217151   0.997   8.667   3.242
 5637WAT      O17152   6.737   4.799   3.366
 5637WAT     H117153   6.718   4.735   3.292
 5637WAT     H217154   6.657   4.858   3.381
 5638WAT      O17155   6.441   0.682   6.917
 5638WAT     H117156   6.363   0.622   6.932
 5638WAT     H217157   6.424   0.741   6.839
 5639WAT      O17158   8.354   8.576   4.719
 5639WAT     H117159   8.415   8.530   4.655
 5639WAT     H217160   8.262   8.537   4.710
 5640WAT      O17161   9.780   1.460   6.007
 5640WAT     H117162   9.803   1.557   6.002
 5640WAT     H217163   9.760   1.426   5.915
 5641WAT      O17164   0.086   2.805   7.979
 5641WAT     H117165   0.065   2.888   7.927
 5641WAT     H217166   0.166   2.821   8.037
 5642WAT      O17167   6.779   3.132   2.125
 5642WAT     H117168   6.763   3.152   2.222
 5642WAT     H217169   6.725   3.194   2.069
 5643WAT      O17170   8.774   2.841   6.437
 5643WAT     H117171   8.836   2.869   6.511
 5643WAT     H217172   8.821   2.776   6.378
 5644WAT      O17173   5.977   5.013   9.766
 5644WAT     H117174   6.060   4.957   9.762
 5644WAT     H217175   5.975   5.063   9.852
 5645WAT      O17176   9.455   1.611   1.439
 5645WAT     H117177   9.430   1.580   1.347
 5645WAT     H217178   9.376   1.605   1.499
 5646WAT      O17179   4.578   8.963   0.331
 5646WAT     H117180   4.578   9.020   0.248
 5646WAT     H217181   4.641   8.887   0.318
 5647WAT      O17182   6.037   5.237   7.383
 5647WAT     H117183   6.093   5.156   7.395
 5647WAT     H217184   5.994   5.235   7.293
 5648WAT      O17185   8.698   0.714   4.340
 5648WAT     H117186   8.721   0.644   4.407
 5648WAT     H217187   8.606   0.696   4.303
 5649WAT      O17188   2.299   1.479   0.423
 5649WAT     H117189   2.219   1.445   0.373
 5649WAT     H217190   2.296   1.447   0.518
 5650WAT      O17191   7.782   0.140   0.160
 5650WAT     H117192   7.870   0.099   0.137
 5650WAT     H217193   7.727   0.074   0.212
 5651WAT      O17194   4.896   3.931   2.136
 5651WAT     H117195   4.914   3.997   2.063
 5651WAT     H217196   4.981   3.887   2.163
 5652WAT      O17197   2.275   5.759   9.317
 5652WAT     H117198   2.193   5.722   9.362
 5652WAT     H217199   2.317   5.828   9.376
 5653WAT      O17200   3.397   5.850   7.983
 5653WAT     H117201   3.333   5.924   8.004
 5653WAT     H217202   3.459   5.837   8.060
 5654WAT      O17203   1.192   9.167   7.192
 5654WAT     H117204   1.140   9.231   7.136
 5654WAT     H217205   1.290   9.180   7.175
 5655WAT      O17206   4.528   3.659   2.945
 5655WAT     H117207   4.512   3.561   2.936
 5655WAT     H217208   4.566   3.679   3.035
 5656WAT      O17209   9.769   6.755   9.152
 5656WAT     H117210   9.728   6.802   9.073
 5656WAT     H217211   9.798   6.823   9.219
 5657WAT      O17212   3.119   7.315   5.117
 5657WAT     H117213   3.092   7.325   5.213
 5657WAT     H217214   3.149   7.221   5.101
 5658WAT      O17215   7.993   5.721   2.684
 5658WAT     H117216   8.052   5.712   2.604
 5658WAT     H217217   7.932   5.799   2.672
 5659WAT      O17218   6.149   8.932   1.241
 5659WAT     H117219   6.074   8.898   1.298
 5659WAT     H217220   6.206   8.994   1.296
 5660WAT      O17221   3.724   3.224   8.092
 5660WAT     H117222   3.668   3.306   8.091
 5660WAT     H217223   3.681   3.155   8.149
 5661WAT      O17224   1.242   9.527   8.667
 5661WAT     H117225   1.197   9.616   8.680
 5661WAT     H217226   1.278   9.495   8.755
 5662WAT      O17227   3.855   4.834   2.503
 5662WAT     H117228   3.807   4.883   2.431
 5662WAT     H217229   3.864   4.738   2.477
 5663WAT      O17230   8.571   5.198   5.884
 5663WAT     H117231   8.588   5.219   5.980
 5663WAT     H217232   8.599   5.104   5.864
 5664WAT      O17233   9.037   2.025   4.979
 5664WAT     H117234   9.031   2.098   4.911
 5664WAT     H217235   9.063   1.939   4.935
 5665WAT      O17236   0.773   1.420   0.812
 5665WAT     H117237   0.803   1.325   0.814
 5665WAT     H217238   0.846   1.477   0.773
 5666WAT      O17239   2.596   5.226   2.777
 5666WAT     H117240   2.686   5.188   2.753
 5666WAT     H217241   2.538   5.227   2.696
 5667WAT      O17242   7.344   6.426   2.746
 5667WAT     H117243   7.363   6.366   2.668
 5667WAT     H217244   7.257   6.401   2.787
 5668WAT      O17245   4.796   4.912   1.031
 5668WAT     H117246   4.894   4.892   1.036
 5668WAT     H217247   4.763   4.938   1.122
 5669WAT      O17248   3.462   7.467   8.352
 5669WAT     H117249   3.436   7.394   8.416
 5669WAT     H217250   3.421   7.554   8.383
 5670WAT      O17251   3.772   4.081   3.363
 5670WAT     H117252   3.704   4.149   3.392
 5670WAT     H217253   3.851   4.086   3.425
 5671WAT      O17254   4.521   1.525   1.318
 5671WAT     H117255   4.614   1.527   1.354
 5671WAT     H217256   4.455   1.536   1.392
 5672WAT      O17257   1.716   4.722   3.024
 5672WAT     H117258   1.741   4.819   3.036
 5672WAT     H217259   1.743   4.671   3.106
 5673WAT      O17260   0.645   6.208   6.771
 5673WAT     H117261   0.634   6.271   6.694
 5673WAT     H217262   0.559   6.158   6.785
 5674WAT      O17263   3.427   4.095   6.447
 5674WAT     H117264   3.408   4.140   6.359
 5674WAT     H217265   3.426   3.996   6.435
 5675WAT      O17266   3.082   2.514   0.524
 5675WAT     H117267   3.000   2.531   0.578
 5675WAT     H217268   3.089   2.582   0.451
 5676WAT      O17269   0.945   7.280   8.304
 5676WAT     H117270   0.865   7.220   8.310
 5676WAT     H217271   1.017   7.234   8.251
 5677WAT      O17272   4.732   3.390   3.446
 5677WAT     H117273   4.707   3.306   3.492
 5677WAT     H217274   4.821   3.421   3.478
 5678WAT      O17275   7.035   2.163   1.470
 5678WAT     H117276   7.105   2.217   1.423
 5678WAT     H217277   7.010   2.085   1.413
 5679WAT      O17278   2.808   9.371   3.063
 5679WAT     H117279   2.864   9.453   3.057
 5679WAT     H217280   2.712   9.397   3.069
 5680WAT      O17281   3.557   5.348   9.310
 5680WAT     H117282   3.465   5.327   9.342
 5680WAT     H217283   3.600   5.266   9.273
 5681WAT      O17284   2.788   0.581   8.579
 5681WAT     H117285   2.717   0.555   8.514
 5681WAT     H217286   2.876   0.589   8.532
 5682WAT      O17287   4.668   8.105   9.257
 5682WAT     H117288   4.574   8.074   9.241
 5682WAT     H217289   4.687   8.104   9.355
 5683WAT      O17290   5.514   1.481   0.631
 5683WAT     H117291   5.534   1.446   0.723
 5683WAT     H217292   5.420   1.457   0.606
 5684WAT      O17293   4.993   1.958   5.811
 5684WAT     H117294   4.985   1.926   5.906
 5684WAT     H217295   5.012   2.056   5.811
 5685WAT      O17296   1.153   1.182   5.154
 5685WAT     H117297   1.239   1.227   5.129
 5685WAT     H217298   1.076   1.231   5.113
 5686WAT      O17299   2.338   8.813   2.066
 5686WAT     H117300   2.290   8.898   2.046
 5686WAT     H217301   2.306   8.776   2.153
 5687WAT      O17302   8.152   6.369   8.185
 5687WAT     H117303   8.203   6.362   8.271
 5687WAT     H217304   8.064   6.413   8.202
 5688WAT      O17305   9.225   1.389   7.477
 5688WAT     H117306   9.194   1.329   7.550
 5688WAT     H217307   9.173   1.371   7.393
 5689WAT      O17308   3.500   2.631   5.826
 5689WAT     H117309   3.567   2.653   5.896
 5689WAT     H217310   3.474   2.534   5.834
 5690WAT      O17311   5.066   4.818   5.375
 5690WAT     H117312   5.108   4.728   5.364
 5690WAT     H217313   5.118   4.873   5.440
 5691WAT      O17314   6.603   0.652   0.952
 5691WAT     H117315   6.528   0.685   0.895
 5691WAT     H217316   6.566   0.591   1.023
 5692WAT      O17317   2.575   7.227   0.798
 5692WAT     H117318   2.642   7.154   0.813
 5692WAT     H217319   2.515   7.201   0.722
 5693WAT      O17320   0.772   7.302   7.548
 5693WAT     H117321   0.819   7.215   7.532
 5693WAT     H217322   0.679   7.297   7.511
 5694WAT      O17323   8.454   9.731   8.629
 5694WAT     H117324   8.521   9.680   8.684
 5694WAT     H217325   8.502   9.801   8.576
 5695WAT      O17326   8.120   0.626   7.845
 5695WAT     H117327   8.121   0.601   7.748
 5695WAT     H217328   8.199   0.682   7.867
 5696WAT      O17329   2.330   2.057   0.458
 5696WAT     H117330   2.394   2.018   0.525
 5696WAT     H217331   2.353   2.153   0.441
 5697WAT      O17332   0.121   7.285   5.031
 5697WAT     H117333   0.081   7.363   4.982
 5697WAT     H217334   0.123   7.205   4.971
 5698WAT      O17335   7.187   2.412   4.277
 5698WAT     H117336   7.157   2.500   4.240
 5698WAT     H217337   7.159   2.339   4.214
 5699WAT      O17338   2.168   4.157   0.115
 5699WAT     H117339   2.197   4.081   0.056
 5699WAT     H217340   2.083   4.196   0.080
 5700WAT      O17341   7.183   7.116   1.445
 5700WAT     H117342   7.148   7.182   1.379
 5700WAT     H217343   7.116   7.042   1.457
 5701WAT      O17344   0.480   9.745   5.237
 5701WAT     H117345   0.433   9.786   5.158
 5701WAT     H217346   0.432   9.661   5.263
 5702WAT      O17347   3.433   4.928   5.035
 5702WAT     H117348   3.466   5.011   4.990
 5702WAT     H217349   3.349   4.947   5.084
 5703WAT      O17350   7.321   0.595   4.641
 5703WAT     H117351   7.231   0.564   4.672
 5703WAT     H217352   7.312   0.643   4.554
 5704WAT      O17353   3.355   2.741   9.261
 5704WAT     H117354   3.442   2.750   9.212
 5704WAT     H217355   3.333   2.827   9.307
 5705WAT      O17356   7.903   9.739   1.262
 5705WAT     H117357   7.940   9.815   1.210
 5705WAT     H217358   7.937   9.653   1.224
 5706WAT      O17359   5.191   0.149   9.129
 5706WAT     H117360   5.120   0.078   9.125
 5706WAT     H217361   5.147   0.239   9.132
 5707WAT      O17362   5.878   4.463   8.480
 5707WAT     H117363   5.921   4.547   8.446
 5707WAT     H217364   5.869   4.397   8.405
 5708WAT      O17365   3.867   8.228   6.458
 5708WAT     H117366   3.940   8.288   6.426
 5708WAT     H217367   3.902   8.134   6.464
 5709WAT      O17368   1.588   7.009   8.101
 5709WAT     H117369   1.492   6.993   8.077
 5709WAT     H217370   1.601   6.995   8.199
 5710WAT      O17371   9.330   1.208   5.204
 5710WAT     H117372   9.235   1.234   5.186
 5710WAT     H217373   9.372   1.177   5.119
 5711WAT      O17374   9.234   7.818   5.995
 5711WAT     H117375   9.180   7.758   5.936
 5711WAT     H217376   9.326   7.781   6.006
 5712WAT      O17377   7.235   9.612   8.863
 5712WAT     H117378   7.138   9.632   8.879
 5712WAT     H217379   7.247   9.513   8.849
 5713WAT      O17380   6.165   7.973   2.376
 5713WAT     H117381   6.188   8.007   2.284
 5713WAT     H217382   6.183   7.875   2.380
 5714WAT      O17383   4.123   8.434   4.776
 5714WAT     H117384   4.082   8.511   4.728
 5714WAT     H217385   4.138   8.459   4.871
 5715WAT      O17386   5.403   6.822   4.542
 5715WAT     H117387   5.484   6.834   4.599
 5715WAT     H217388   5.389   6.724   4.524
 5716WAT      O17389   4.438   6.520   2.786
 5716WAT     H117390   4.521   6.550   2.739
 5716WAT     H217391   4.377   6.599   2.797
 5717WAT      O17392   6.796   5.984   2.056
 5717WAT     H117393   6.776   5.925   2.134
 5717WAT     H217394   6.731   6.060   2.054
 5718WAT      O17395   0.480   1.466   4.031
 5718WAT     H117396   0.571   1.496   4.057
 5718WAT     H217397   0.481   1.367   4.014
 5719WAT      O17398   1.909   5.151   7.745
 5719WAT     H117399   1.834   5.213   7.766
 5719WAT     H217400   1.902   5.069   7.801
 5720WAT      O17401   2.857   5.115   2.769
 5720WAT     H117402   2.930   5.142   2.833
 5720WAT     H217403   2.874   5.022   2.737
 5721WAT      O17404   7.975   0.203   4.350
 5721WAT     H117405   8.056   0.167   4.303
 5721WAT     H217406   7.900   0.213   4.285
 5722WAT      O17407   3.459   5.365   5.017
 5722WAT     H117408   3.392   5.310   5.067
 5722WAT     H217409   3.445   5.462   5.039
 5723WAT      O17410   4.241   7.585   2.275
 5723WAT     H117411   4.250   7.528   2.357
 5723WAT     H217412   4.294   7.670   2.288
 5724WAT      O17413   0.182   5.778   1.252
 5724WAT     H117414   0.122   5.712   1.206
 5724WAT     H217415   0.187   5.756   1.350
 5725WAT      O17416   0.927   8.452   1.557
 5725WAT     H117417   0.992   8.482   1.627
 5725WAT     H217418   0.960   8.480   1.466
 5726WAT      O17419   1.531   1.011   6.785
 5726WAT     H117420   1.554   1.107   6.798
 5726WAT     H217421   1.557   0.983   6.692
 5727WAT      O17422   0.656   9.383   7.826
 5727WAT     H117423   0.629   9.402   7.920
 5727WAT     H217424   0.738   9.436   7.803
 5728WAT      O17425   9.665   5.980   0.807
 5728WAT     H117426   9.672   5.937   0.717
 5728WAT     H217427   9.623   6.070   0.799
 5729WAT      O17428   0.496   3.608   0.423
 5729WAT     H117429   0.540   3.541   0.363
 5729WAT     H217430   0.442   3.560   0.492
 5730WAT      O17431   7.819   9.574   5.284
 5730WAT     H117432   7.894   9.545   5.224
 5730WAT     H217433   7.750   9.623   5.231
 5731WAT      O17434   1.036   0.666   1.619
 5731WAT     H117435   0.971   0.643   1.692
 5731WAT     H217436   1.009   0.752   1.576
 5732WAT      O17437   3.741   1.279   7.334
 5732WAT     H117438   3.835   1.248   7.316
 5732WAT     H217439   3.734   1.308   7.429
 5733WAT      O17440   3.378   0.722   9.779
 5733WAT     H117441   3.353   0.626   9.766
 5733WAT     H217442   3.374   0.770   9.691
 5734WAT      O17443   6.943   6.247   2.609
 5734WAT     H117444   6.867   6.187   2.634
 5734WAT     H217445   6.990   6.209   2.529
 5735WAT      O17446   8.262   6.062   1.968
 5735WAT     H117447   8.307   6.078   2.055
 5735WAT     H217448   8.275   5.966   1.941
 5736WAT      O17449   8.057   4.944   4.745
 5736WAT     H117450   8.084   4.927   4.651
 5736WAT     H217451   8.050   4.858   4.795
 5737WAT      O17452   3.568   3.707   0.745
 5737WAT     H117453   3.647   3.739   0.693
 5737WAT     H217454   3.544   3.615   0.716
 5738WAT      O17455   5.068   2.654   9.679
 5738WAT     H117456   5.076   2.621   9.773
 5738WAT     H217457   5.084   2.578   9.616
 5739WAT      O17458   2.346   5.590   8.373
 5739WAT     H117459   2.318   5.494   8.371
 5739WAT     H217460   2.265   5.648   8.357
 5740WAT      O17461   2.458   1.066   8.166
 5740WAT     H117462   2.424   1.159   8.157
 5740WAT     H217463   2.439   1.015   8.082
 5741WAT      O17464   3.166   3.787   5.433
 5741WAT     H117465   3.091   3.853   5.431
 5741WAT     H217466   3.253   3.836   5.432
 5742WAT      O17467   5.832   8.825   3.183
 5742WAT     H117468   5.771   8.891   3.228
 5742WAT     H217469   5.794   8.799   3.095
 5743WAT      O17470   6.767   5.140   0.312
 5743WAT     H117471   6.786   5.196   0.393
 5743WAT     H217472   6.684   5.172   0.267
 5744WAT      O17473   6.542   0.985   1.376
 5744WAT     H117474   6.542   0.974   1.277
 5744WAT     H217475   6.605   1.058   1.401
 5745WAT      O17476   3.272   9.087   7.799
 5745WAT     H117477   3.255   9.171   7.748
 5745WAT     H217478   3.213   9.014   7.764
 5746WAT      O17479   5.216   3.648   5.549
 5746WAT     H117480   5.203   3.684   5.456
 5746WAT     H217481   5.154   3.695   5.612
 5747WAT      O17482   5.740   7.957   2.410
 5747WAT     H117483   5.658   7.911   2.443
 5747WAT     H217484   5.748   7.945   2.312
 5748WAT      O17485   3.778   0.991   0.319
 5748WAT     H117486   3.806   0.988   0.223
 5748WAT     H217487   3.690   0.946   0.330
 5749WAT      O17488   8.367   8.114   3.540
 5749WAT     H117489   8.419   8.155   3.615
 5749WAT     H217490   8.430   8.074   3.474
 5750WAT      O17491   5.912   5.704   8.713
 5750WAT     H117492   5.884   5.786   8.662
 5750WAT     H217493   5.937   5.731   8.806
 5751WAT      O17494   4.557   1.222   1.962
 5751WAT     H117495   4.538   1.171   1.878
 5751WAT     H217496   4.478   1.278   1.985
 5752WAT      O17497   2.122   9.367   0.969
 5752WAT     H117498   2.053   9.327   0.908
 5752WAT     H217499   2.174   9.294   1.012
 5753WAT      O17500   8.501   5.054   1.375
 5753WAT     H117501   8.529   5.011   1.461
 5753WAT     H217502   8.581   5.065   1.316
 5754WAT      O17503   5.255   1.128   9.099
 5754WAT     H117504   5.223   1.035   9.080
 5754WAT     H217505   5.354   1.133   9.087
 5755WAT      O17506   0.295   5.596   7.818
 5755WAT     H117507   0.291   5.640   7.908
 5755WAT     H217508   0.215   5.623   7.764
 5756WAT      O17509   5.961   7.311   4.270
 5756WAT     H117510   5.938   7.220   4.236
 5756WAT     H217511   5.878   7.362   4.288
 5757WAT      O17512   3.359   0.243   3.222
 5757WAT     H117513   3.379   0.320   3.282
 5757WAT     H217514   3.444   0.196   3.197
 5758WAT      O17515   0.279   4.416   7.910
 5758WAT     H117516   0.322   4.448   7.994
 5758WAT     H217517   0.339   4.434   7.832
 5759WAT      O17518   1.077   5.331   6.366
 5759WAT     H117519   1.066   5.430   6.371
 5759WAT     H217520   1.137   5.300   6.441
 5760WAT      O17521   5.421   8.328   8.677
 5760WAT     H117522   5.339   8.384   8.671
 5760WAT     H217523   5.428   8.269   8.596
 5761WAT      O17524   2.777   6.229   8.351
 5761WAT     H117525   2.848   6.289   8.313
 5761WAT     H217526   2.765   6.150   8.290
 5762WAT      O17527   4.990   1.968   2.427
 5762WAT     H117528   4.925   1.892   2.424
 5762WAT     H217529   5.034   1.978   2.338
 5763WAT      O17530   6.200   6.077   6.305
 5763WAT     H117531   6.258   5.996   6.311
 5763WAT     H217532   6.137   6.079   6.383
 5764WAT      O17533   8.388   8.245   4.863
 5764WAT     H117534   8.326   8.321   4.842
 5764WAT     H217535   8.374   8.172   4.796
 5765WAT      O17536   3.058   3.916   5.182
 5765WAT     H117537   3.154   3.905   5.157
 5765WAT     H217538   3.017   3.987   5.124
 5766WAT      O17539   4.294   2.816   9.355
 5766WAT     H117540   4.332   2.769   9.275
 5766WAT     H217541   4.196   2.797   9.361
 5767WAT      O17542   4.373   2.341   2.241
 5767WAT     H117543   4.325   2.416   2.196
 5767WAT     H217544   4.375   2.261   2.180
 5768WAT      O17545   6.405   8.703   7.455
 5768WAT     H117546   6.407   8.802   7.442
 5768WAT     H217547   6.445   8.659   7.375
 5769WAT      O17548   8.964   1.200   8.451
 5769WAT     H117549   8.990   1.292   8.481
 5769WAT     H217550   9.047   1.145   8.436
 5770WAT      O17551   9.512   6.478   6.297
 5770WAT     H117552   9.516   6.530   6.212
 5770WAT     H217553   9.417   6.461   6.321
 5771WAT      O17554   2.359   9.800   7.380
 5771WAT     H117555   2.454   9.831   7.375
 5771WAT     H217556   2.312   9.847   7.455
 5772WAT      O17557   5.521   0.862   5.703
 5772WAT     H117558   5.509   0.844   5.801
 5772WAT     H217559   5.432   0.875   5.661
 5773WAT      O17560   9.493   7.689   3.384
 5773WAT     H117561   9.476   7.784   3.410
 5773WAT     H217562   9.414   7.633   3.412
 5774WAT      O17563   8.746   2.813   1.481
 5774WAT     H117564   8.795   2.726   1.479
 5774WAT     H217565   8.703   2.826   1.570
 5775WAT      O17566   5.366   6.067   0.143
 5775WAT     H117567   5.359   6.012   0.060
 5775WAT     H217568   5.327   6.016   0.220
 5776WAT      O17569   1.211   8.748   0.413
 5776WAT     H117570   1.224   8.819   0.483
 5776WAT     H217571   1.139   8.685   0.442
 5777WAT      O17572   6.706   8.264   6.034
 5777WAT     H117573   6.711   8.347   5.978
 5777WAT     H217574   6.798   8.228   6.047
 5778WAT      O17575   1.449   4.720   3.075
 5778WAT     H117576   1.416   4.665   3.152
 5778WAT     H217577   1.542   4.693   3.051
 5779WAT      O17578   4.082   8.158   2.464
 5779WAT     H117579   3.991   8.146   2.426
 5779WAT     H217580   4.147   8.101   2.414
 5780WAT      O17581   6.328   2.370   5.527
 5780WAT     H117582   6.395   2.326   5.466
 5780WAT     H217583   6.256   2.413   5.473
 5781WAT      O17584   6.344   9.608   9.356
 5781WAT     H117585   6.322   9.671   9.281
 5781WAT     H217586   6.331   9.655   9.443
 5782WAT      O17587   7.958   2.912   5.456
 5782WAT     H117588   7.932   2.843   5.389
 5782WAT     H217589   8.054   2.936   5.444
 5783WAT      O17590   6.607   3.678   9.275
 5783WAT     H117591   6.551   3.739   9.331
 5783WAT     H217592   6.550   3.633   9.206
 5784WAT      O17593   3.640   5.048   7.105
 5784WAT     H117594   3.723   5.072   7.055
 5784WAT     H217595   3.666   5.007   7.193
 5785WAT      O17596   0.060   6.463   4.834
 5785WAT     H117597   0.102   6.398   4.898
 5785WAT     H217598   0.015   6.411   4.760
 5786WAT      O17599   9.160   1.548   3.809
 5786WAT     H117600   9.195   1.473   3.865
 5786WAT     H217601   9.104   1.511   3.734
 5787WAT      O17602   9.594   2.801   8.179
 5787WAT     H117603   9.560   2.708   8.189
 5787WAT     H217604   9.548   2.861   8.244
 5788WAT      O17605   2.723   0.624   9.833
 5788WAT     H117606   2.637   0.660   9.799
 5788WAT     H217607   2.732   0.528   9.808
 5789WAT      O17608   5.285   4.744   0.172
 5789WAT     H117609   5.199   4.794   0.182
 5789WAT     H217610   5.315   4.748   0.077
 5790WAT      O17611   4.768   7.923   7.653
 5790WAT     H117612   4.756   7.831   7.689
 5790WAT     H217613   4.861   7.933   7.616
 5791WAT      O17614   2.960   0.119   9.373
 5791WAT     H117615   2.997   0.027   9.359
 5791WAT     H217616   3.007   0.184   9.314
 5792WAT      O17617   2.070   0.697   5.733
 5792WAT     H117618   2.170   0.698   5.724
 5792WAT     H217619   2.044   0.736   5.821
 5793WAT      O17620   0.811   7.976   2.072
 5793WAT     H117621   0.812   7.877   2.088
 5793WAT     H217622   0.841   7.995   1.979
 5794WAT      O17623   4.227   2.519   4.775
 5794WAT     H117624   4.216   2.619   4.780
 5794WAT     H217625   4.228   2.490   4.680
 5795WAT      O17626   7.750   5.381   3.638
 5795WAT     H117627   7.833   5.413   3.592
 5795WAT     H217628   7.759   5.392   3.736
 5796WAT      O17629   0.746   0.188   8.379
 5796WAT     H117630   0.726   0.100   8.334
 5796WAT     H217631   0.721   0.182   8.475
 5797WAT      O17632   7.740   9.657   0.929
 5797WAT     H117633   7.736   9.740   0.873
 5797WAT     H217634   7.807   9.594   0.890
 5798WAT      O17635   8.791   8.491   8.251
 5798WAT     H117636   8.782   8.571   8.191
 5798WAT     H217637   8.716   8.428   8.233
 5799WAT      O17638   3.928   8.931   0.120
 5799WAT     H117639   3.875   8.852   0.091
 5799WAT     H217640   3.873   8.985   0.184
 5800WAT      O17641   7.846   2.030   1.171
 5800WAT     H117642   7.851   2.071   1.262
 5800WAT     H217643   7.826   2.101   1.104
 5801WAT      O17644   1.549   1.810   5.857
 5801WAT     H117645   1.465   1.829   5.807
 5801WAT     H217646   1.526   1.759   5.940
 5802WAT      O17647   3.190   2.968   1.800
 5802WAT     H117648   3.202   2.972   1.900
 5802WAT     H217649   3.140   2.885   1.776
 5803WAT      O17650   1.102   3.740   7.500
 5803WAT     H117651   1.170   3.690   7.447
 5803WAT     H217652   1.143   3.825   7.535
 5804WAT      O17653   5.384   6.339   3.365
 5804WAT     H117654   5.481   6.337   3.390
 5804WAT     H217655   5.328   6.331   3.447
 5805WAT      O17656   8.526   1.528   9.705
 5805WAT     H117657   8.513   1.583   9.623
 5805WAT     H217658   8.592   1.455   9.686
 5806WAT      O17659   7.932   2.248   9.452
 5806WAT     H117660   7.974   2.201   9.375
 5806WAT     H217661   8.002   2.296   9.504
 5807WAT      O17662   6.037   9.562   8.872
 5807WAT     H117663   6.035   9.462   8.873
 5807WAT     H217664   6.017   9.595   8.780
 5808WAT      O17665   9.804   4.934   0.101
 5808WAT     H117666   9.741   4.985   0.160
 5808WAT     H217667   9.898   4.954   0.128
 5809WAT      O17668   5.969   1.248   3.926
 5809WAT     H117669   5.871   1.266   3.931
 5809WAT     H217670   5.989   1.191   3.846
 5810WAT      O17671   1.233   1.876   6.604
 5810WAT     H117672   1.154   1.855   6.662
 5810WAT     H217673   1.234   1.813   6.526
 5811WAT      O17674   3.453   2.310   6.577
 5811WAT     H117675   3.496   2.389   6.534
 5811WAT     H217676   3.423   2.246   6.506
 5812WAT      O17677   8.166   6.172   1.575
 5812WAT     H117678   8.209   6.251   1.532
 5812WAT     H217679   8.124   6.200   1.662
 5813WAT      O17680   0.702   2.405   8.345
 5813WAT     H117681   0.697   2.463   8.426
 5813WAT     H217682   0.676   2.312   8.369
 5814WAT      O17683   7.786   8.941   2.885
 5814WAT     H117684   7.862   8.887   2.921
 5814WAT     H217685   7.768   8.915   2.790
 5815WAT      O17686   1.468   2.124   0.203
 5815WAT     H117687   1.563   2.155   0.204
 5815WAT     H217688   1.410   2.195   0.162
 5816WAT      O17689   9.780   9.105   2.495
 5816WAT     H117690   9.764   9.018   2.543
 5816WAT     H217691   9.696   9.160   2.497
 5817WAT      O17692   5.793   6.637   3.370
 5817WAT     H117693   5.739   6.657   3.288
 5817WAT     H217694   5.833   6.722   3.405
 5818WAT      O17695   6.841   4.572   2.042
 5818WAT     H117696   6.805   4.665   2.034
 5818WAT     H217697   6.853   4.533   1.951
 5819WAT      O17698   0.176   7.970   0.972
 5819WAT     H117699   0.228   8.056   0.975
 5819WAT     H217700   0.187   7.927   0.883
 5820WAT      O17701   6.077   6.864   2.142
 5820WAT     H117702   6.133   6.886   2.063
 5820WAT     H217703   6.122   6.896   2.225
 5821WAT      O17704   8.980   3.600   4.611
 5821WAT     H117705   8.915   3.672   4.588
 5821WAT     H217706   8.958   3.517   4.559
 5822WAT      O17707   6.610   9.352   7.576
 5822WAT     H117708   6.604   9.362   7.675
 5822WAT     H217709   6.706   9.352   7.548
 5823WAT      O17710   3.064   4.925   9.169
 5823WAT     H117711   3.037   4.830   9.154
 5823WAT     H217712   2.992   4.986   9.135
 5824WAT      O17713   8.748   1.254   2.456
 5824WAT     H117714   8.712   1.193   2.527
 5824WAT     H217715   8.832   1.297   2.490
 5825WAT      O17716   6.016   0.084   4.003
 5825WAT     H117717   6.046   0.179   4.008
 5825WAT     H217718   6.094   0.024   4.021
 5826WAT      O17719   8.099   3.542   4.459
 5826WAT     H117720   8.093   3.444   4.473
 5826WAT     H217721   8.124   3.560   4.364
 5827WAT      O17722   8.948   4.843   8.170
 5827WAT     H117723   9.010   4.919   8.187
 5827WAT     H217724   8.986   4.783   8.099
 5828WAT      O17725   8.421   1.919   5.998
 5828WAT     H117726   8.383   1.985   6.064
 5828WAT     H217727   8.439   1.965   5.912
 5829WAT      O17728   8.040   6.591   6.560
 5829WAT     H117729   8.002   6.545   6.640
 5829WAT     H217730   8.122   6.642   6.587
 5830WAT      O17731   5.951   3.626   5.528
 5830WAT     H117732   5.854   3.642   5.541
 5830WAT     H217733   6.004   3.693   5.579
 5831WAT      O17734   5.819   6.505   4.945
 5831WAT     H117735   5.823   6.561   5.028
 5831WAT     H217736   5.794   6.563   4.867
 5832WAT      O17737   3.214   9.634   3.843
 5832WAT     H117738   3.201   9.538   3.868
 5832WAT     H217739   3.150   9.691   3.894
 5833WAT      O17740   5.778   1.057   0.951
 5833WAT     H117741   5.783   1.018   1.043
 5833WAT     H217742   5.842   1.011   0.891
 5834WAT      O17743   9.331   9.719   1.369
 5834WAT     H117744   9.363   9.624   1.377
 5834WAT     H217745   9.369   9.773   1.444
 5835WAT      O17746   4.755   0.214   4.585
 5835WAT     H117747   4.758   0.270   4.503
 5835WAT     H217748   4.771   0.118   4.562
 5836WAT      O17749   2.136   0.860   6.661
 5836WAT     H117750   2.043   0.860   6.622
 5836WAT     H217751   2.196   0.913   6.602
 5837WAT      O17752   9.014   0.917   9.792
 5837WAT     H117753   8.942   0.870   9.742
 5837WAT     H217754   9.101   0.870   9.777
 5838WAT      O17755   1.212   5.720   8.953
 5838WAT     H117756   1.248   5.792   9.012
 5838WAT     H217757   1.285   5.686   8.894
 5839WAT      O17758   3.981   3.077   0.883
 5839WAT     H117759   3.916   3.090   0.809
 5839WAT     H217760   4.067   3.122   0.861
 5840WAT      O17761   5.638   7.393   4.667
 5840WAT     H117762   5.629   7.470   4.730
 5840WAT     H217763   5.735   7.377   4.648
 5841WAT      O17764   1.186   4.324   2.599
 5841WAT     H117765   1.249   4.390   2.639
 5841WAT     H217766   1.104   4.372   2.567
 5842WAT      O17767   1.571   4.390   3.929
 5842WAT     H117768   1.565   4.290   3.935
 5842WAT     H217769   1.631   4.424   4.002
 5843WAT      O17770   0.132   8.478   7.770
 5843WAT     H117771   0.120   8.567   7.812
 5843WAT     H217772   0.139   8.408   7.841
 5844WAT      O17773   8.937   5.138   6.380
 5844WAT     H117774   8.972   5.146   6.286
 5844WAT     H217775   8.837   5.134   6.378
 5845WAT      O17776   4.928   6.247   5.601
 5845WAT     H117777   4.942   6.197   5.686
 5845WAT     H217778   5.012   6.247   5.547
 5846WAT      O17779   2.959   2.841   3.082
 5846WAT     H117780   2.919   2.883   3.000
 5846WAT     H217781   3.029   2.775   3.054
 5847WAT      O17782   2.570   6.203   2.448
 5847WAT     H117783   2.668   6.196   2.465
 5847WAT     H217784   2.546   6.150   2.367
 5848WAT      O17785   5.399   4.454   9.756
 5848WAT     H117786   5.304   4.456   9.723
 5848WAT     H217787   5.405   4.397   9.837
 5849WAT      O17788   1.577   6.939   6.203
 5849WAT     H117789   1.606   7.009   6.137
 5849WAT     H217790   1.619   6.958   6.292
 5850WAT      O17791   4.548   4.655   0.387
 5850WAT     H117792   4.538   4.571   0.334
 5850WAT     H217793   4.462   4.673   0.435
 5851WAT      O17794   9.358   7.002   9.571
 5851WAT     H117795   9.448   7.018   9.613
 5851WAT     H217796   9.337   7.078   9.509
 5852WAT      O17797   3.086   3.951   1.303
 5852WAT     H117798   3.109   4.037   1.256
 5852WAT     H217799   3.122   3.874   1.251
 5853WAT      O17800   6.101   7.172   4.595
 5853WAT     H117801   6.067   7.208   4.508
 5853WAT     H217802   6.026   7.129   4.645
 5854WAT      O17803   0.011   2.153   5.800
 5854WAT     H117804  -0.040   2.193   5.724
 5854WAT     H217805  -0.019   2.195   5.886
 5855WAT      O17806   5.162   3.259   6.731
 5855WAT     H117807   5.148   3.212   6.644
 5855WAT     H217808   5.253   3.237   6.766
 5856WAT      O17809   5.538   5.193   9.246
 5856WAT     H117810   5.543   5.281   9.293
 5856WAT     H217811   5.586   5.199   9.158
 5857WAT      O17812   3.200   4.183   9.543
 5857WAT     H117813   3.254   4.100   9.549
 5857WAT     H217814   3.251   4.254   9.494
 5858WAT      O17815   2.172   8.996   7.451
 5858WAT     H117816   2.082   8.977   7.490
 5858WAT     H217817   2.242   8.946   7.502
 5859WAT      O17818   1.143   7.273   3.372
 5859WAT     H117819   1.092   7.347   3.329
 5859WAT     H217820   1.135   7.190   3.316
 5860WAT      O17821   7.180   7.157   9.203
 5860WAT     H117822   7.178   7.118   9.295
 5860WAT     H217823   7.088   7.153   9.163
 5861WAT      O17824   5.767   5.659   0.216
 5861WAT     H117825   5.742   5.699   0.304
 5861WAT     H217826   5.762   5.729   0.145
 5862WAT      O17827   4.880   8.054   8.060
 5862WAT     H117828   4.935   8.109   8.123
 5862WAT     H217829   4.932   7.974   8.031
 5863WAT      O17830   6.097   1.498   1.539
 5863WAT     H117831   6.117   1.405   1.509
 5863WAT     H217832   6.018   1.497   1.600
 5864WAT      O17833   7.128   5.331   0.267
 5864WAT     H117834   7.054   5.392   0.240
 5864WAT     H217835   7.090   5.242   0.292
 5865WAT      O17836   8.281   0.095   6.890
 5865WAT     H117837   8.334   0.162   6.942
 5865WAT     H217838   8.270   0.125   6.796
 5866WAT      O17839   7.693   1.055   3.059
 5866WAT     H117840   7.699   0.956   3.051
 5866WAT     H217841   7.727   1.098   2.975
 5867WAT      O17842   3.027   0.677   7.046
 5867WAT     H117843   3.090   0.681   7.124
 5867WAT     H217844   3.055   0.744   6.978
 5868WAT      O17845   3.001   2.595   4.097
 5868WAT     H117846   3.017   2.662   4.170
 5868WAT     H217847   2.942   2.635   4.027
 5869WAT      O17848   1.298   2.853   5.066
 5869WAT     H117849   1.341   2.790   5.131
 5869WAT     H217850   1.232   2.803   5.010
 5870WAT      O17851   0.867   3.688   2.280
 5870WAT     H117852   0.822   3.756   2.339
 5870WAT     H217853   0.933   3.734   2.221
 5871WAT      O17854   0.318   1.226   4.278
 5871WAT     H117855   0.279   1.176   4.200
 5871WAT     H217856   0.325   1.323   4.255
 5872WAT      O17857   3.513   9.586   0.783
 5872WAT     H117858   3.452   9.618   0.855
 5872WAT     H217859   3.504   9.487   0.773
 5873WAT      O17860   5.249   7.944   1.131
 5873WAT     H117861   5.185   7.898   1.193
 5873WAT     H217862   5.285   7.877   1.066
 5874WAT      O17863   5.214   0.583   3.663
 5874WAT     H117864   5.170   0.671   3.677
 5874WAT     H217865   5.236   0.572   3.566
 5875WAT      O17866   4.938   5.579   1.955
 5875WAT     H117867   5.031   5.549   1.979
 5875WAT     H217868   4.878   5.499   1.952
 5876WAT      O17869   3.325   6.550   8.496
 5876WAT     H117870   3.398   6.504   8.547
 5876WAT     H217871   3.251   6.575   8.558
 5877WAT      O17872   3.332   7.050   6.545
 5877WAT     H117873   3.289   6.960   6.547
 5877WAT     H217874   3.262   7.120   6.538
 5878WAT      O17875   4.278   8.575   2.196
 5878WAT     H117876   4.364   8.526   2.186
 5878WAT     H217877   4.215   8.520   2.252
 5879WAT      O17878   7.627   8.804   5.509
 5879WAT     H117879   7.622   8.902   5.496
 5879WAT     H217880   7.723   8.774   5.501
 5880WAT      O17881   6.814   2.657   7.002
 5880WAT     H117882   6.759   2.574   7.008
 5880WAT     H217883   6.801   2.712   7.085
 5881WAT      O17884   8.769   8.404   9.774
 5881WAT     H117885   8.717   8.440   9.697
 5881WAT     H217886   8.822   8.325   9.743
 5882WAT      O17887   3.673   6.024   8.054
 5882WAT     H117888   3.612   6.086   8.006
 5882WAT     H217889   3.623   5.979   8.129
 5883WAT      O17890   8.841   4.214   3.895
 5883WAT     H117891   8.889   4.200   3.982
 5883WAT     H217892   8.811   4.309   3.889
 5884WAT      O17893   3.482   8.567   0.733
 5884WAT     H117894   3.437   8.629   0.669
 5884WAT     H217895   3.564   8.529   0.690
 5885WAT      O17896   4.389   4.131   2.666
 5885WAT     H117897   4.379   4.165   2.573
 5885WAT     H217898   4.418   4.206   2.726
 5886WAT      O17899   3.530   5.105   4.580
 5886WAT     H117900   3.514   5.089   4.678
 5886WAT     H217901   3.556   5.019   4.536
 5887WAT      O17902   1.551   0.497   9.484
 5887WAT     H117903   1.497   0.575   9.516
 5887WAT     H217904   1.492   0.434   9.435
 5888WAT      O17905   2.745   4.289   0.296
 5888WAT     H117906   2.728   4.245   0.208
 5888WAT     H217907   2.661   4.288   0.351
 5889WAT      O17908   3.695   5.524   4.789
 5889WAT     H117909   3.710   5.439   4.739
 5889WAT     H217910   3.747   5.598   4.747
 5890WAT      O17911   7.042   3.090   9.458
 5890WAT     H117912   7.087   3.177   9.476
 5890WAT     H217913   6.961   3.105   9.402
 5891WAT      O17914   6.746   2.873   6.019
 5891WAT     H117915   6.825   2.873   5.957
 5891WAT     H217916   6.765   2.932   6.097
 5892WAT      O17917   4.412   1.576   7.203
 5892WAT     H117918   4.511   1.577   7.194
 5892WAT     H217919   4.371   1.531   7.124
 5893WAT      O17920   8.202   0.607   9.554
 5893WAT     H117921   8.202   0.533   9.621
 5893WAT     H217922   8.142   0.681   9.586
 5894WAT      O17923   6.482   1.782   5.591
 5894WAT     H117924   6.573   1.741   5.601
 5894WAT     H217925   6.490   1.869   5.544
 5895WAT      O17926   7.365   1.230   4.482
 5895WAT     H117927   7.274   1.199   4.457
 5895WAT     H217928   7.420   1.152   4.513
 5896WAT      O17929   5.112   0.433   7.098
 5896WAT     H117930   5.082   0.480   7.180
 5896WAT     H217931   5.103   0.494   7.019
 5897WAT      O17932   0.577   3.784   2.446
 5897WAT     H117933   0.651   3.850   2.461
 5897WAT     H217934   0.492   3.833   2.426
 5898WAT      O17935   3.375   8.709   5.436
 5898WAT     H117936   3.447   8.685   5.501
 5898WAT     H217937   3.289   8.666   5.464
 5899WAT      O17938   1.268   3.662   2.385
 5899WAT     H117939   1.196   3.731   2.378
 5899WAT     H217940   1.254   3.592   2.314
 5900WAT      O17941   4.339   0.040   8.110
 5900WAT     H117942   4.424  -0.004   8.081
 5900WAT     H217943   4.265   0.012   8.049
 5901WAT      O17944   2.972   2.311   4.016
 5901WAT     H117945   2.878   2.281   4.031
 5901WAT     H217946   2.988   2.397   4.064
 5902WAT      O17947   1.558   4.220   9.732
 5902WAT     H117948   1.546   4.179   9.823
 5902WAT     H217949   1.581   4.149   9.666
 5903WAT      O17950   9.357   6.084   6.595
 5903WAT     H117951   9.399   6.164   6.638
 5903WAT     H217952   9.327   6.020   6.666
 5904WAT      O17953   1.493   9.170   3.305
 5904WAT     H117954   1.454   9.235   3.239
 5904WAT     H217955   1.472   9.077   3.275
 5905WAT      O17956   1.269   6.723   5.748
 5905WAT     H117957   1.267   6.720   5.848
 5905WAT     H217958   1.291   6.632   5.712
 5906WAT      O17959   1.382   1.643   1.723
 5906WAT     H117960   1.341   1.706   1.656
 5906WAT     H217961   1.444   1.581   1.676
 5907WAT      O17962   2.236   8.137   2.579
 5907WAT     H117963   2.257   8.223   2.533
 5907WAT     H217964   2.137   8.131   2.596
 5908WAT      O17965   6.575   7.770   5.888
 5908WAT     H117966   6.593   7.866   5.867
 5908WAT     H217967   6.545   7.723   5.805
 5909WAT      O17968   7.539   8.539   4.122
 5909WAT     H117969   7.624   8.548   4.173
 5909WAT     H217970   7.558   8.504   4.030
 5910WAT      O17971   5.766   3.359   9.789
 5910WAT     H117972   5.799   3.298   9.716
 5910WAT     H217973   5.666   3.356   9.791
 5911WAT      O17974   6.150   6.631   5.494
 5911WAT     H117975   6.175   6.627   5.397
 5911WAT     H217976   6.104   6.546   5.520
 5912WAT      O17977   1.889   1.139   0.735
 5912WAT     H117978   1.963   1.177   0.791
 5912WAT     H217979   1.854   1.056   0.777
 5913WAT      O17980   8.177   7.070   1.539
 5913WAT     H117981   8.128   6.985   1.554
 5913WAT     H217982   8.267   7.066   1.583
 5914WAT      O17983   5.926   9.576   6.356
 5914WAT     H117984   5.901   9.508   6.424
 5914WAT     H217985   5.855   9.647   6.352
 5915WAT      O17986   2.297   0.311   7.422
 5915WAT     H117987   2.282   0.381   7.491
 5915WAT     H217988   2.291   0.220   7.465
 5916WAT      O17989   9.654   3.472   7.915
 5916WAT     H117990   9.631   3.451   8.010
 5916WAT     H217991   9.628   3.566   7.893
 5917WAT      O17992   7.644   9.542   4.488
 5917WAT     H117993   7.651   9.444   4.509
 5917WAT     H217994   7.725   9.571   4.436
 5918WAT      O17995   3.149   1.222   8.396
 5918WAT     H117996   3.234   1.226   8.344
 5918WAT     H217997   3.169   1.213   8.493
 5919WAT      O17998   7.179   7.756   8.811
 5919WAT     H117999   7.195   7.782   8.716
 5919WAT     H218000   7.081   7.741   8.826
 5920WAT      O18001   2.490   9.350   5.958
 5920WAT     H118002   2.551   9.290   5.907
 5920WAT     H218003   2.462   9.303   6.042
 5921WAT      O18004   1.140   2.210   1.461
 5921WAT     H118005   1.073   2.234   1.390
 5921WAT     H218006   1.122   2.117   1.493
 5922WAT      O18007   6.362   1.915   7.363
 5922WAT     H118008   6.405   1.882   7.279
 5922WAT     H218009   6.433   1.933   7.431
 5923WAT      O18010   2.434   7.488   2.309
 5923WAT     H118011   2.500   7.549   2.352
 5923WAT     H218012   2.393   7.428   2.377
 5924WAT      O18013   6.851   6.088   6.274
 5924WAT     H118014   6.935   6.142   6.265
 5924WAT     H218015   6.876   5.993   6.294
 5925WAT      O18016   9.344   3.916   0.884
 5925WAT     H118017   9.438   3.948   0.898
 5925WAT     H218018   9.281   3.988   0.913
 5926WAT      O18019   5.793   7.779   7.197
 5926WAT     H118020   5.878   7.761   7.247
 5926WAT     H218021   5.730   7.702   7.210
 5927WAT      O18022   6.233   3.777   2.319
 5927WAT     H118023   6.226   3.846   2.391
 5927WAT     H218024   6.305   3.804   2.255
 5928WAT      O18025   9.849   8.792   7.977
 5928WAT     H118026   9.922   8.783   7.909
 5928WAT     H218027   9.769   8.835   7.935
 5929WAT      O18028   6.704   0.752   5.419
 5929WAT     H118029   6.695   0.844   5.457
 5929WAT     H218030   6.619   0.702   5.434
 5930WAT      O18031   8.448   4.492   7.790
 5930WAT     H118032   8.478   4.410   7.838
 5930WAT     H218033   8.517   4.518   7.722
 5931WAT      O18034   4.218   9.684   4.491
 5931WAT     H118035   4.292   9.704   4.427
 5931WAT     H218036   4.223   9.588   4.519
 5932WAT      O18037   7.961   3.203   1.505
 5932WAT     H118038   7.989   3.268   1.434
 5932WAT     H218039   7.917   3.252   1.580
 5933WAT      O18040   5.226   8.146   2.486
 5933WAT     H118041   5.228   8.230   2.539
 5933WAT     H218042   5.261   8.070   2.542
 5934WAT      O18043   0.434   5.048   9.388
 5934WAT     H118044   0.505   5.056   9.318
 5934WAT     H218045   0.410   4.951   9.401
 5935WAT      O18046   5.615   7.034   8.219
 5935WAT     H118047   5.665   6.948   8.204
 5935WAT     H218048   5.672   7.096   8.273
 5936WAT      O18049   4.843   2.332   7.484
 5936WAT     H118050   4.833   2.234   7.468
 5936WAT     H218051   4.865   2.378   7.398
 5937WAT      O18052   8.099   6.353   1.012
 5937WAT     H118053   8.118   6.282   1.080
 5937WAT     H218054   8.085   6.310   0.923
 5938WAT      O18055   1.578   2.631   0.031
 5938WAT     H118056   1.506   2.699   0.039
 5938WAT     H218057   1.540   2.544  -0.001
 5939WAT      O18058   0.690   7.723   0.191
 5939WAT     H118059   0.704   7.624   0.178
 5939WAT     H218060   0.651   7.739   0.281
 5940WAT      O18061   6.168   2.240   3.163
 5940WAT     H118062   6.077   2.252   3.201
 5940WAT     H218063   6.165   2.256   3.064
 5941WAT      O18064   2.083   8.960   5.205
 5941WAT     H118065   2.034   8.954   5.118
 5941WAT     H218066   2.176   8.993   5.188
 5942WAT      O18067   8.723   6.988   7.069
 5942WAT     H118068   8.675   6.945   6.993
 5942WAT     H218069   8.821   6.983   7.053
 5943WAT      O18070   3.154   4.400   3.247
 5943WAT     H118071   3.183   4.400   3.151
 5943WAT     H218072   3.196   4.323   3.295
 5944WAT      O18073   4.510   4.468   0.208
 5944WAT     H118074   4.522   4.382   0.158
 5944WAT     H218075   4.439   4.522   0.162
 5945WAT      O18076   8.522   4.162   5.752
 5945WAT     H118077   8.607   4.169   5.700
 5945WAT     H218078   8.485   4.069   5.743
 5946WAT      O18079   6.410   1.063   5.991
 5946WAT     H118080   6.351   0.983   6.002
 5946WAT     H218081   6.356   1.141   5.959
 5947WAT      O18082   7.100   2.309   2.880
 5947WAT     H118083   7.021   2.316   2.942
 5947WAT     H218084   7.128   2.400   2.852
 5948WAT      O18085   8.324   0.092   7.604
 5948WAT     H118086   8.356   0.017   7.662
 5948WAT     H218087   8.272   0.055   7.527
 5949WAT      O18088   2.743   3.581   5.752
 5949WAT     H118089   2.737   3.663   5.810
 5949WAT     H218090   2.678   3.512   5.784
 5950WAT      O18091   0.606   6.912   3.855
 5950WAT     H118092   0.552   6.991   3.828
 5950WAT     H218093   0.693   6.912   3.805
 5951WAT      O18094   3.414   7.512   6.993
 5951WAT     H118095   3.343   7.528   6.924
 5951WAT     H218096   3.383   7.442   7.057
 5952WAT      O18097   4.710   7.020   5.174
 5952WAT     H118098   4.779   7.036   5.245
 5952WAT     H218099   4.641   6.956   5.208
 5953WAT      O18100   6.721   3.117   8.567
 5953WAT     H118101   6.751   3.180   8.496
 5953WAT     H218102   6.763   3.142   8.654
 5954WAT      O18103   2.221   6.119   3.386
 5954WAT     H118104   2.269   6.093   3.469
 5954WAT     H218105   2.134   6.071   3.381
 5955WAT      O18106   6.248   4.158   8.071
 5955WAT     H118107   6.344   4.171   8.050
 5955WAT     H218108   6.230   4.060   8.085
 5956WAT      O18109   8.454   4.842   6.372
 5956WAT     H118110   8.499   4.769   6.320
 5956WAT     H218111   8.426   4.806   6.461
 5957WAT      O18112   4.754   7.432   3.561
 5957WAT     H118113   4.744   7.523   3.521
 5957WAT     H218114   4.765   7.441   3.660
 5958WAT      O18115   5.196   7.430   0.791
 5958WAT     H118116   5.146   7.424   0.704
 5958WAT     H218117   5.177   7.348   0.846
 5959WAT      O18118   4.939   5.924   1.175
 5959WAT     H118119   4.996   5.856   1.222
 5959WAT     H218120   4.962   5.926   1.078
 5960WAT      O18121   0.593   3.666   6.280
 5960WAT     H118122   0.527   3.740   6.264
 5960WAT     H218123   0.642   3.683   6.366
 5961WAT      O18124   5.892   6.409   7.211
 5961WAT     H118125   5.985   6.389   7.181
 5961WAT     H218126   5.894   6.440   7.306
 5962WAT      O18127   2.138   0.344   5.432
 5962WAT     H118128   2.080   0.425   5.446
 5962WAT     H218129   2.182   0.350   5.342
 5963WAT      O18130   7.530   9.720   1.121
 5963WAT     H118131   7.592   9.697   1.046
 5963WAT     H218132   7.570   9.689   1.208
 5964WAT      O18133   3.103   6.596   8.630
 5964WAT     H118134   3.076   6.690   8.648
 5964WAT     H218135   3.022   6.537   8.638
 5965WAT      O18136   4.873   8.964   7.739
 5965WAT     H118137   4.950   8.952   7.677
 5965WAT     H218138   4.803   9.020   7.695
 5966WAT      O18139   9.841   5.842   1.453
 5966WAT     H118140   9.877   5.935   1.453
 5966WAT     H218141   9.768   5.835   1.385
 5967WAT      O18142   9.263   3.152   6.790
 5967WAT     H118143   9.341   3.124   6.846
 5967WAT     H218144   9.184   3.095   6.811
 5968WAT      O18145   6.681   7.165   6.153
 5968WAT     H118146   6.621   7.136   6.228
 5968WAT     H218147   6.630   7.161   6.067
 5969WAT      O18148   4.126   1.211   2.780
 5969WAT     H118149   4.037   1.256   2.781
 5969WAT     H218150   4.146   1.177   2.688
 5970WAT      O18151   0.703   2.316   9.749
 5970WAT     H118152   0.737   2.222   9.743
 5970WAT     H218153   0.656   2.340   9.664
 5971WAT      O18154   8.872   4.884   6.192
 5971WAT     H118155   8.833   4.799   6.155
 5971WAT     H218156   8.823   4.910   6.274
 5972WAT      O18157   2.957   4.084   3.461
 5972WAT     H118158   2.897   4.104   3.539
 5972WAT     H218159   2.986   4.169   3.419
 5973WAT      O18160   1.064   0.097   7.081
 5973WAT     H118161   1.057   0.181   7.135
 5973WAT     H218162   1.157   0.060   7.087
 5974WAT      O18163   8.980   9.391   9.156
 5974WAT     H118164   8.983   9.398   9.256
 5974WAT     H218165   9.033   9.312   9.127
 5975WAT      O18166   9.011   6.747   8.575
 5975WAT     H118167   9.099   6.716   8.611
 5975WAT     H218168   8.937   6.707   8.630
 5976WAT      O18169   4.782   2.848   0.573
 5976WAT     H118170   4.877   2.828   0.599
 5976WAT     H218171   4.723   2.773   0.602
 5977WAT      O18172   4.555   5.388   1.335
 5977WAT     H118173   4.562   5.312   1.399
 5977WAT     H218174   4.460   5.398   1.305
 5978WAT      O18175   5.584   1.435   5.797
 5978WAT     H118176   5.569   1.485   5.711
 5978WAT     H218177   5.673   1.459   5.835
 5979WAT      O18178   8.255   4.562   4.911
 5979WAT     H118179   8.295   4.582   5.001
 5979WAT     H218180   8.297   4.479   4.874
 5980WAT      O18181   1.096   2.942   0.568
 5980WAT     H118182   1.156   3.015   0.600
 5980WAT     H218183   1.131   2.907   0.481
 5981WAT      O18184   3.813   8.105   8.615
 5981WAT     H118185   3.745   8.114   8.688
 5981WAT     H218186   3.783   8.037   8.549
 5982WAT      O18187   7.888   6.040   2.826
 5982WAT     H118188   7.876   6.115   2.891
 5982WAT     H218189   7.821   6.050   2.751
 5983WAT      O18190   9.164   4.765   2.009
 5983WAT     H118191   9.181   4.698   1.937
 5983WAT     H218192   9.066   4.779   2.019
 5984WAT      O18193   4.475   2.902   6.492
 5984WAT     H118194   4.377   2.920   6.501
 5984WAT     H218195   4.521   2.926   6.578
 5985WAT      O18196   0.466   2.014   2.885
 5985WAT     H118197   0.376   2.012   2.928
 5985WAT     H218198   0.473   1.940   2.818
 5986WAT      O18199   0.887   5.034   6.324
 5986WAT     H118200   0.980   5.027   6.290
 5986WAT     H218201   0.888   5.073   6.416
 5987WAT      O18202   3.204   2.167   6.901
 5987WAT     H118203   3.153   2.239   6.947
 5987WAT     H218204   3.302   2.188   6.906
 5988WAT      O18205   8.119   3.600   6.828
 5988WAT     H118206   8.055   3.524   6.836
 5988WAT     H218207   8.186   3.595   6.902
 5989WAT      O18208   1.653   6.314   6.673
 5989WAT     H118209   1.721   6.286   6.605
 5989WAT     H218210   1.657   6.252   6.751
 5990WAT      O18211   3.416   7.189   5.622
 5990WAT     H118212   3.369   7.252   5.683
 5990WAT     H218213   3.420   7.098   5.664
 5991WAT      O18214   1.031   2.376   1.650
 5991WAT     H118215   1.059   2.343   1.560
 5991WAT     H218216   1.006   2.297   1.708
 5992WAT      O18217   3.524   4.065   0.120
 5992WAT     H118218   3.600   4.066   0.056
 5992WAT     H218219   3.438   4.053   0.071
 5993WAT      O18220   9.382   6.019   6.865
 5993WAT     H118221   9.356   6.041   6.959
 5993WAT     H218222   9.478   6.044   6.851
 5994WAT      O18223   8.653   9.031   4.804
 5994WAT     H118224   8.678   9.008   4.898
 5994WAT     H218225   8.730   9.014   4.744
 5995WAT      O18226   7.830   1.940   8.858
 5995WAT     H118227   7.789   1.879   8.926
 5995WAT     H218228   7.907   1.988   8.900
 5996WAT      O18229   7.411   9.446   4.318
 5996WAT     H118230   7.496   9.454   4.369
 5996WAT     H218231   7.335   9.479   4.373
 5997WAT      O18232   0.598   1.552   7.051
 5997WAT     H118233   0.662   1.529   7.124
 5997WAT     H218234   0.513   1.501   7.064
 5998WAT      O18235   1.779   5.043   4.159
 5998WAT     H118236   1.759   5.131   4.117
 5998WAT     H218237   1.877   5.026   4.157
 5999WAT      O18238   3.108   3.941   2.134
 5999WAT     H118239   3.041   3.919   2.205
 5999WAT     H218240   3.180   3.872   2.134
 6000WAT      O18241   7.417   6.816   8.046
 6000WAT     H118242   7.457   6.752   8.112
 6000WAT     H218243   7.407   6.771   7.957
 6001WAT      O18244   4.481   7.210   6.346
 6001WAT     H118245   4.447   7.144   6.414
 6001WAT     H218246   4.414   7.219   6.272
 6002WAT      O18247   5.516   7.861   1.309
 6002WAT     H118248   5.435   7.813   1.341
 6002WAT     H218249   5.495   7.958   1.298
 6003WAT      O18250   9.612   3.544   0.082
 6003WAT     H118251   9.531   3.552   0.024
 6003WAT     H218252   9.694   3.542   0.025
 6004WAT      O18253   4.433   0.327   0.953
 6004WAT     H118254   4.360   0.386   0.988
 6004WAT     H218255   4.488   0.377   0.886
 6005WAT      O18256   5.558   0.551   5.517
 6005WAT     H118257   5.616   0.633   5.519
 6005WAT     H218258   5.462   0.578   5.513
 6006WAT      O18259   8.877   1.998   3.253
 6006WAT     H118260   8.782   1.993   3.282
 6006WAT     H218261   8.895   1.926   3.186
 6007WAT      O18262   7.417   3.106   1.197
 6007WAT     H118263   7.344   3.060   1.248
 6007WAT     H218264   7.378   3.146   1.114
 6008WAT      O18265   2.310   3.316   3.632
 6008WAT     H118266   2.363   3.280   3.554
 6008WAT     H218267   2.292   3.242   3.697
 6009WAT      O18268   6.058   2.643   0.107
 6009WAT     H118269   6.012   2.669   0.022
 6009WAT     H218270   5.992   2.650   0.183
 6010WAT      O18271   0.250   3.790   0.875
 6010WAT     H118272   0.214   3.751   0.791
 6010WAT     H218273   0.350   3.797   0.868
 6011WAT      O18274   4.205   3.223   1.636
 6011WAT     H118275   4.174   3.309   1.596
 6011WAT     H218276   4.293   3.197   1.597
 6012WAT      O18277   1.418   7.279   6.179
 6012WAT     H118278   1.490   7.230   6.228
 6012WAT     H218279   1.445   7.290   6.083
 6013WAT      O18280   1.552   6.653   8.474
 6013WAT     H118281   1.515   6.633   8.383
 6013WAT     H218282   1.482   6.635   8.543
 6014WAT      O18283   1.776   3.782   5.764
 6014WAT     H118284   1.816   3.712   5.823
 6014WAT     H218285   1.676   3.778   5.769
 6015WAT      O18286   5.785   7.854   1.203
 6015WAT     H118287   5.781   7.872   1.105
 6015WAT     H218288   5.697   7.818   1.234
 6016WAT      O18289   8.727   2.352   2.052
 6016WAT     H118290   8.825   2.371   2.065
 6016WAT     H218291   8.674   2.432   2.079
 6017WAT      O18292   4.667   5.129   7.926
 6017WAT     H118293   4.762   5.140   7.898
 6017WAT     H218294   4.608   5.127   7.845
 6018WAT      O18295   7.224   3.122   0.871
 6018WAT     H118296   7.309   3.171   0.849
 6018WAT     H218297   7.146   3.178   0.846
 6019WAT      O18298   4.737   9.485   5.702
 6019WAT     H118299   4.780   9.396   5.717
 6019WAT     H218300   4.716   9.527   5.790
 6020WAT      O18301   8.299   3.616   1.183
 6020WAT     H118302   8.230   3.688   1.182
 6020WAT     H218303   8.383   3.650   1.225
 6021WAT      O18304   5.848   1.205   4.358
 6021WAT     H118305   5.778   1.139   4.331
 6021WAT     H218306   5.899   1.235   4.278
 6022WAT      O18307   2.220   3.728   3.426
 6022WAT     H118308   2.174   3.640   3.437
 6022WAT     H218309   2.190   3.770   3.340
 6023WAT      O18310   6.109   9.273   0.834
 6023WAT     H118311   6.139   9.210   0.906
 6023WAT     H218312   6.182   9.339   0.816
 6024WAT      O18313   7.739   5.694   6.944
 6024WAT     H118314   7.781   5.654   6.863
 6024WAT     H218315   7.806   5.749   6.994
 6025WAT      O18316   0.662   3.281   2.600
 6025WAT     H118317   0.629   3.342   2.528
 6025WAT     H218318   0.762   3.280   2.599
 6026WAT      O18319   0.771   2.243   7.668
 6026WAT     H118320   0.836   2.168   7.675
 6026WAT     H218321   0.773   2.298   7.752
 6027WAT      O18322   2.089   9.769   6.416
 6027WAT     H118323   2.073   9.675   6.388
 6027WAT     H218324   2.100   9.827   6.335
 6028WAT      O18325   9.429   0.550   4.370
 6028WAT     H118326   9.368   0.471   4.374
 6028WAT     H218327   9.398   0.620   4.434
 6029WAT      O18328   2.048   6.476   0.426
 6029WAT     H118329   1.997   6.507   0.346
 6029WAT     H218330   2.146   6.487   0.409
 6030WAT      O18331   2.192   1.122   0.229
 6030WAT     H118332   2.237   1.092   0.313
 6030WAT     H218333   2.129   1.197   0.250
 6031WAT      O18334   3.384   0.111   4.471
 6031WAT     H118335   3.295   0.135   4.432
 6031WAT     H218336   3.391   0.012   4.478
 6032WAT      O18337   8.609   9.676   0.815
 6032WAT     H118338   8.698   9.631   0.820
 6032WAT     H218339   8.538   9.612   0.847
 6033WAT      O18340   1.103   5.255   0.051
 6033WAT     H118341   1.121   5.352   0.071
 6033WAT     H218342   1.050   5.249  -0.034
 6034WAT      O18343   4.149   2.461   6.567
 6034WAT     H118344   4.170   2.388   6.632
 6034WAT     H218345   4.141   2.422   6.475
 6035WAT      O18346   8.703   8.479   6.344
 6035WAT     H118347   8.636   8.486   6.271
 6035WAT     H218348   8.705   8.385   6.379
 6036WAT      O18349   2.508   6.245   0.254
 6036WAT     H118350   2.578   6.227   0.185
 6036WAT     H218351   2.449   6.319   0.223
 6037WAT      O18352   2.190   2.504   4.963
 6037WAT     H118353   2.097   2.511   4.927
 6037WAT     H218354   2.186   2.486   5.062
 6038WAT      O18355   6.671   9.291   5.925
 6038WAT     H118356   6.639   9.376   5.881
 6038WAT     H218357   6.744   9.313   5.989
 6039WAT      O18358   4.999   5.517   7.921
 6039WAT     H118359   5.028   5.505   7.826
 6039WAT     H218360   4.924   5.454   7.941
 6040WAT      O18361   7.105   3.231   7.058
 6040WAT     H118362   7.147   3.295   7.122
 6040WAT     H218363   7.177   3.180   7.010
 6041WAT      O18364   5.987   5.033   1.295
 6041WAT     H118365   5.947   4.971   1.226
 6041WAT     H218366   6.011   4.981   1.376
 6042WAT      O18367   0.488   3.492   7.228
 6042WAT     H118368   0.489   3.549   7.310
 6042WAT     H218369   0.507   3.397   7.254
 6043WAT      O18370   7.892   4.694   9.345
 6043WAT     H118371   7.960   4.622   9.351
 6043WAT     H218372   7.935   4.779   9.314
 6044WAT      O18373   0.314   9.167   7.322
 6044WAT     H118374   0.359   9.200   7.405
 6044WAT     H218375   0.382   9.126   7.261
 6045WAT      O18376   3.845   2.164   8.664
 6045WAT     H118377   3.779   2.116   8.606
 6045WAT     H218378   3.897   2.097   8.717
 6046WAT      O18379   1.914   8.554   8.681
 6046WAT     H118380   1.894   8.643   8.722
 6046WAT     H218381   1.888   8.481   8.745
 6047WAT      O18382   8.056   8.580   8.776
 6047WAT     H118383   8.151   8.576   8.806
 6047WAT     H218384   8.011   8.493   8.797
 6048WAT      O18385   9.154   6.596   3.679
 6048WAT     H118386   9.141   6.566   3.584
 6048WAT     H218387   9.142   6.695   3.685
 6049WAT      O18388   8.225   3.465   7.934
 6049WAT     H118389   8.267   3.416   7.858
 6049WAT     H218390   8.296   3.508   7.989
 6050WAT      O18391   7.326   1.893   8.095
 6050WAT     H118392   7.270   1.815   8.124
 6050WAT     H218393   7.403   1.904   8.157
 6051WAT      O18394   2.761   7.217   7.752
 6051WAT     H118395   2.755   7.315   7.769
 6051WAT     H218396   2.720   7.196   7.663
 6052WAT      O18397   6.674   3.406   2.424
 6052WAT     H118398   6.705   3.493   2.385
 6052WAT     H218399   6.584   3.382   2.385
 6053WAT      O18400   4.430   9.744   5.296
 6053WAT     H118401   4.335   9.775   5.304
 6053WAT     H218402   4.464   9.715   5.386
 6054WAT      O18403   7.587   3.916   1.212
 6054WAT     H118404   7.681   3.884   1.218
 6054WAT     H218405   7.552   3.900   1.120
 6055WAT      O18406   9.264   2.858   7.698
 6055WAT     H118407   9.360   2.865   7.727
 6055WAT     H218408   9.250   2.771   7.652
 6056WAT      O18409   1.542   5.815   7.795
 6056WAT     H118410   1.622   5.783   7.744
 6056WAT     H218411   1.461   5.811   7.736
 6057WAT      O18412   9.732   0.481   7.009
 6057WAT     H118413   9.640   0.470   7.046
 6057WAT     H218414   9.735   0.562   6.950
 6058WAT      O18415   7.252   1.740   7.624
 6058WAT     H118416   7.340   1.786   7.637
 6058WAT     H218417   7.179   1.794   7.667
 6059WAT      O18418   2.112   6.593   9.420
 6059WAT     H118419   2.067   6.598   9.509
 6059WAT     H218420   2.189   6.530   9.425
 6060WAT      O18421   5.391   8.049   1.899
 6060WAT     H118422   5.305   8.026   1.945
 6060WAT     H218423   5.452   8.095   1.963
 6061WAT      O18424   2.269   8.892   6.920
 6061WAT     H118425   2.287   8.906   7.017
 6061WAT     H218426   2.182   8.845   6.908
 6062WAT      O18427   8.012   5.806   6.973
 6062WAT     H118428   8.074   5.874   6.934
 6062WAT     H218429   8.056   5.716   6.974
 6063WAT      O18430   4.796   0.366   7.323
 6063WAT     H118431   4.893   0.343   7.323
 6063WAT     H218432   4.757   0.346   7.413
 6064WAT      O18433   6.587   6.455   9.740
 6064WAT     H118434   6.604   6.395   9.819
 6064WAT     H218435   6.575   6.549   9.773
 6065WAT      O18436   5.130   2.240   2.797
 6065WAT     H118437   5.142   2.323   2.743
 6065WAT     H218438   5.056   2.185   2.758
 6066WAT      O18439   3.559   7.585   3.632
 6066WAT     H118440   3.517   7.623   3.714
 6066WAT     H218441   3.642   7.534   3.657
 6067WAT      O18442   1.988   0.187   3.801
 6067WAT     H118443   1.900   0.141   3.790
 6067WAT     H218444   1.983   0.278   3.759
 6068WAT      O18445   2.201   6.108   4.523
 6068WAT     H118446   2.136   6.155   4.582
 6068WAT     H218447   2.166   6.107   4.429
 6069WAT      O18448   9.270   5.765   7.700
 6069WAT     H118449   9.217   5.849   7.710
 6069WAT     H218450   9.228   5.693   7.756
 6070WAT      O18451   1.238   6.792   1.713
 6070WAT     H118452   1.327   6.747   1.702
 6070WAT     H218453   1.197   6.805   1.623
 6071WAT      O18454   1.466   4.620   0.662
 6071WAT     H118455   1.479   4.523   0.682
 6071WAT     H218456   1.555   4.667   0.667
 6072WAT      O18457   5.735   1.804   9.358
 6072WAT     H118458   5.824   1.848   9.348
 6072WAT     H218459   5.728   1.765   9.450
 6073WAT      O18460   8.275   5.365   2.979
 6073WAT     H118461   8.322   5.278   2.993
 6073WAT     H218462   8.341   5.437   2.961
 6074WAT      O18463   7.709   7.504   1.081
 6074WAT     H118464   7.711   7.490   0.982
 6074WAT     H218465   7.644   7.577   1.103
 6075WAT      O18466   4.525   5.329   3.946
 6075WAT     H118467   4.447   5.317   3.885
 6075WAT     H218468   4.560   5.240   3.974
 6076WAT      O18469   2.145   0.455   0.768
 6076WAT     H118470   2.117   0.413   0.854
 6076WAT     H218471   2.081   0.527   0.742
 6077WAT      O18472   3.457   8.060   8.992
 6077WAT     H118473   3.376   8.008   9.021
 6077WAT     H218474   3.526   8.057   9.064
 6078WAT      O18475   3.261   8.954   5.354
 6078WAT     H118476   3.164   8.954   5.330
 6078WAT     H218477   3.295   8.860   5.353
 6079WAT      O18478   1.343   7.518   9.765
 6079WAT     H118479   1.364   7.615   9.770
 6079WAT     H218480   1.318   7.484   9.856
 6080WAT      O18481   8.117   4.667   1.881
 6080WAT     H118482   8.101   4.752   1.932
 6080WAT     H218483   8.109   4.589   1.944
 6081WAT      O18484   2.564   2.597   9.338
 6081WAT     H118485   2.550   2.653   9.257
 6081WAT     H218486   2.548   2.501   9.316
 6082WAT      O18487   3.252   9.119   5.606
 6082WAT     H118488   3.303   9.073   5.678
 6082WAT     H218489   3.266   9.071   5.519
 6083WAT      O18490   6.686   5.031   7.923
 6083WAT     H118491   6.778   5.067   7.934
 6083WAT     H218492   6.630   5.056   8.002
 6084WAT      O18493   6.988   8.603   0.706
 6084WAT     H118494   6.986   8.513   0.664
 6084WAT     H218495   7.064   8.656   0.668
 6085WAT      O18496   8.336   7.620   3.780
 6085WAT     H118497   8.403   7.631   3.853
 6085WAT     H218498   8.278   7.702   3.774
 6086WAT      O18499   5.221   0.054   4.218
 6086WAT     H118500   5.202   0.148   4.191
 6086WAT     H218501   5.210  -0.006   4.138
 6087WAT      O18502   6.655   4.719   2.334
 6087WAT     H118503   6.709   4.635   2.333
 6087WAT     H218504   6.704   4.791   2.284
 6088WAT      O18505   1.982   3.096   6.516
 6088WAT     H118506   1.948   3.182   6.555
 6088WAT     H218507   2.061   3.065   6.568
 6089WAT      O18508   1.653   7.461   7.318
 6089WAT     H118509   1.686   7.424   7.405
 6089WAT     H218510   1.690   7.407   7.243
 6090WAT      O18511   3.994   0.041   7.039
 6090WAT     H118512   4.008  -0.013   6.955
 6090WAT     H218513   4.082   0.057   7.083
 6091WAT      O18514   1.975   7.600   3.807
 6091WAT     H118515   1.921   7.516   3.820
 6091WAT     H218516   1.968   7.656   3.889
 6092WAT      O18517   8.319   7.596   6.469
 6092WAT     H118518   8.416   7.589   6.445
 6092WAT     H218519   8.265   7.607   6.386
 6093WAT      O18520   4.803   9.092   2.157
 6093WAT     H118521   4.843   9.173   2.113
 6093WAT     H218522   4.845   9.010   2.119
 6094WAT      O18523   8.726   5.052   5.427
 6094WAT     H118524   8.759   5.147   5.433
 6094WAT     H218525   8.630   5.048   5.456
 6095WAT      O18526   4.667   0.779   9.570
 6095WAT     H118527   4.703   0.872   9.576
 6095WAT     H218528   4.573   0.778   9.606
 6096WAT      O18529   2.013   1.370   8.739
 6096WAT     H118530   2.053   1.337   8.824
 6096WAT     H218531   2.081   1.423   8.688
 6097WAT      O18532   0.488   4.919   6.142
 6097WAT     H118533   0.431   4.955   6.216
 6097WAT     H218534   0.476   4.975   6.060
 6098WAT      O18535   9.771   5.307   3.447
 6098WAT     H118536   9.763   5.406   3.433
 6098WAT     H218537   9.859   5.286   3.489
 6099WAT      O18538   5.561   5.685   2.405
 6099WAT     H118539   5.658   5.680   2.379
 6099WAT     H218540   5.530   5.780   2.399
 6100WAT      O18541   6.862   3.325   4.847
 6100WAT     H118542   6.950   3.337   4.801
 6100WAT     H218543   6.875   3.333   4.946
 6101WAT      O18544   7.288   3.844   0.543
 6101WAT     H118545   7.209   3.784   0.539
 6101WAT     H218546   7.360   3.802   0.598
 6102WAT      O18547   9.308   0.263   1.388
 6102WAT     H118548   9.307   0.249   1.487
 6102WAT     H218549   9.219   0.298   1.359
 6103WAT      O18550   7.360   0.741   2.915
 6103WAT     H118551   7.390   0.790   2.833
 6103WAT     H218552   7.263   0.756   2.930
 6104WAT      O18553   0.808   4.628   6.732
 6104WAT     H118554   0.794   4.652   6.635
 6104WAT     H218555   0.897   4.660   6.762
 6105WAT      O18556   2.435   0.547   3.441
 6105WAT     H118557   2.345   0.547   3.484
 6105WAT     H218558   2.424   0.545   3.341
 6106WAT      O18559   6.234   3.744   4.107
 6106WAT     H118560   6.193   3.741   4.016
 6106WAT     H218561   6.181   3.686   4.169
 6107WAT      O18562   2.081   3.083   9.374
 6107WAT     H118563   2.071   3.123   9.465
 6107WAT     H218564   2.020   3.004   9.365
 6108WAT      O18565   3.364   8.652   1.920
 6108WAT     H118566   3.452   8.636   1.965
 6108WAT     H218567   3.368   8.618   1.826
 6109WAT      O18568   9.746   8.912   0.518
 6109WAT     H118569   9.812   8.936   0.447
 6109WAT     H218570   9.769   8.958   0.603
 6110WAT      O18571   1.524   8.751   0.503
 6110WAT     H118572   1.533   8.653   0.483
 6110WAT     H218573   1.471   8.763   0.587
 6111WAT      O18574   8.952   0.085   1.468
 6111WAT     H118575   8.863   0.049   1.441
 6111WAT     H218576   8.986   0.036   1.548
 6112WAT      O18577   1.933   9.209   8.783
 6112WAT     H118578   1.896   9.161   8.863
 6112WAT     H218579   1.999   9.278   8.814
 6113WAT      O18580   5.682   3.918   9.331
 6113WAT     H118581   5.761   3.938   9.272
 6113WAT     H218582   5.629   3.843   9.291
 6114WAT      O18583   6.447   6.199   5.322
 6114WAT     H118584   6.518   6.208   5.252
 6114WAT     H218585   6.394   6.283   5.327
 6115WAT      O18586   3.710   2.099   3.119
 6115WAT     H118587   3.698   2.119   3.022
 6115WAT     H218588   3.765   2.171   3.161
 6116WAT      O18589   3.812   1.898   4.100
 6116WAT     H118590   3.714   1.880   4.103
 6116WAT     H218591   3.837   1.938   4.012
 6117WAT      O18592   2.296   7.871   7.074
 6117WAT     H118593   2.363   7.799   7.056
 6117WAT     H218594   2.319   7.918   7.159
 6118WAT      O18595   1.805   2.081   7.024
 6118WAT     H118596   1.767   2.037   7.105
 6118WAT     H218597   1.732   2.101   6.959
 6119WAT      O18598   6.674   5.816   3.932
 6119WAT     H118599   6.637   5.735   3.977
 6119WAT     H218600   6.751   5.790   3.874
 6120WAT      O18601   2.831   0.906   2.445
 6120WAT     H118602   2.851   0.810   2.463
 6120WAT     H218603   2.735   0.924   2.464
 6121WAT      O18604   6.629   8.584   1.039
 6121WAT     H118605   6.591   8.660   1.092
 6121WAT     H218606   6.728   8.596   1.029
 6122WAT      O18607   5.220   4.096   1.696
 6122WAT     H118608   5.294   4.039   1.733
 6122WAT     H218609   5.224   4.187   1.738
 6123WAT      O18610   8.586   5.951   2.017
 6123WAT     H118611   8.496   5.967   2.058
 6123WAT     H218612   8.586   5.863   1.970
 6124WAT      O18613   0.318   8.291   7.433
 6124WAT     H118614   0.260   8.330   7.363
 6124WAT     H218615   0.286   8.198   7.456
 6125WAT      O18616   4.041   7.364   6.155
 6125WAT     H118617   4.005   7.369   6.062
 6125WAT     H218618   4.002   7.438   6.209
 6126WAT      O18619   8.822   4.811   5.427
 6126WAT     H118620   8.758   4.745   5.389
 6126WAT     H218621   8.777   4.900   5.437
 6127WAT      O18622   8.295   1.088   5.635
 6127WAT     H118623   8.228   1.153   5.671
 6127WAT     H218624   8.368   1.138   5.589
 6128WAT      O18625   5.876   6.190   2.345
 6128WAT     H118626   5.880   6.277   2.394
 6128WAT     H218627   5.866   6.115   2.410
 6129WAT      O18628   4.563   2.113   4.895
 6129WAT     H118629   4.530   2.204   4.868
 6129WAT     H218630   4.498   2.072   4.960
 6130WAT      O18631   8.292   9.569   9.785
 6130WAT     H118632   8.205   9.536   9.749
 6130WAT     H218633   8.307   9.664   9.756
 6131WAT      O18634   9.721   7.282   8.063
 6131WAT     H118635   9.627   7.291   8.097
 6131WAT     H218636   9.749   7.368   8.021
 6132WAT      O18637   1.358   3.835   6.869
 6132WAT     H118638   1.261   3.840   6.842
 6132WAT     H218639   1.381   3.916   6.923
 6133WAT      O18640   7.573   1.610   8.942
 6133WAT     H118641   7.658   1.638   8.987
 6133WAT     H218642   7.507   1.686   8.945
 6134WAT      O18643   7.839   2.929   7.548
 6134WAT     H118644   7.750   2.957   7.586
 6134WAT     H218645   7.912   2.955   7.611
 6135WAT      O18646   8.294   5.794   1.927
 6135WAT     H118647   8.227   5.723   1.949
 6135WAT     H218648   8.385   5.754   1.926
 6136WAT      O18649   2.289   6.105   1.370
 6136WAT     H118650   2.382   6.075   1.392
 6136WAT     H218651   2.265   6.073   1.278
 6137WAT      O18652   9.571   5.741   2.490
 6137WAT     H118653   9.545   5.837   2.479
 6137WAT     H218654   9.644   5.733   2.558
 6138WAT      O18655   8.884   1.562   9.888
 6138WAT     H118656   8.962   1.509   9.856
 6138WAT     H218657   8.856   1.627   9.817
 6139WAT      O18658   5.158   6.503   3.594
 6139WAT     H118659   5.104   6.588   3.592
 6139WAT     H218660   5.231   6.508   3.526
 6140WAT      O18661   7.049   3.671   4.350
 6140WAT     H118662   6.987   3.678   4.272
 6140WAT     H218663   6.999   3.689   4.434
 6141WAT      O18664   9.580   5.816   3.534
 6141WAT     H118665   9.655   5.863   3.488
 6141WAT     H218666   9.613   5.730   3.573
 6142WAT      O18667   2.801   3.775   9.291
 6142WAT     H118668   2.899   3.786   9.275
 6142WAT     H218669   2.778   3.813   9.381
 6143WAT      O18670   0.103   4.322   0.215
 6143WAT     H118671   0.031   4.376   0.259
 6143WAT     H218672   0.098   4.228   0.247
 6144WAT      O18673   4.144   4.272   1.988
 6144WAT     H118674   4.080   4.347   1.975
 6144WAT     H218675   4.147   4.246   2.084
 6145WAT      O18676   3.604   0.255   4.510
 6145WAT     H118677   3.597   0.313   4.591
 6145WAT     H218678   3.519   0.203   4.498
 6146WAT      O18679   6.386   0.739   1.346
 6146WAT     H118680   6.323   0.724   1.423
 6146WAT     H218681   6.379   0.834   1.316
 6147WAT      O18682   8.888   3.422   1.096
 6147WAT     H118683   8.940   3.507   1.084
 6147WAT     H218684   8.951   3.346   1.112
 6148WAT      O18685   1.083   3.086   3.368
 6148WAT     H118686   0.990   3.120   3.357
 6148WAT     H218687   1.080   2.997   3.415
 6149WAT      O18688   3.662   3.087   3.354
 6149WAT     H118689   3.730   3.156   3.327
 6149WAT     H218690   3.634   3.102   3.448
 6150WAT      O18691   0.806   6.493   9.460
 6150WAT     H118692   0.851   6.405   9.446
 6150WAT     H218693   0.773   6.528   9.372
 6151WAT      O18694   2.684   3.655   2.123
 6151WAT     H118695   2.778   3.635   2.153
 6151WAT     H218696   2.649   3.735   2.172
 6152WAT      O18697   7.806   1.260   9.801
 6152WAT     H118698   7.875   1.283   9.733
 6152WAT     H218699   7.851   1.239   9.888
 6153WAT      O18700   9.356   6.350   7.176
 6153WAT     H118701   9.364   6.448   7.193
 6153WAT     H218702   9.445   6.306   7.190
 6154WAT      O18703   0.433   8.762   2.163
 6154WAT     H118704   0.401   8.722   2.249
 6154WAT     H218705   0.495   8.698   2.118
 6155WAT      O18706   9.631   7.006   8.214
 6155WAT     H118707   9.536   6.985   8.240
 6155WAT     H218708   9.645   6.985   8.118
 6156WAT      O18709   8.109   8.739   9.380
 6156WAT     H118710   8.191   8.746   9.436
 6156WAT     H218711   8.038   8.799   9.416
 6157WAT      O18712   2.150   8.137   3.643
 6157WAT     H118713   2.174   8.064   3.706
 6157WAT     H218714   2.144   8.224   3.693
 6158WAT      O18715   2.071   5.892   4.929
 6158WAT     H118716   1.987   5.928   4.968
 6158WAT     H218717   2.148   5.913   4.988
 6159WAT      O18718   5.865   3.792   8.449
 6159WAT     H118719   5.791   3.779   8.383
 6159WAT     H218720   5.859   3.721   8.519
 6160WAT      O18721   3.789   2.044   9.209
 6160WAT     H118722   3.820   1.954   9.178
 6160WAT     H218723   3.723   2.032   9.283
 6161WAT      O18724   8.001   2.070   9.014
 6161WAT     H118725   7.954   2.135   9.074
 6161WAT     H218726   8.094   2.055   9.049
 6162WAT      O18727   0.115   3.619   8.174
 6162WAT     H118728   0.122   3.648   8.269
 6162WAT     H218729   0.131   3.521   8.168
 6163WAT      O18730   0.253   4.278   3.840
 6163WAT     H118731   0.279   4.359   3.892
 6163WAT     H218732   0.249   4.301   3.743
 6164WAT      O18733   2.317   2.044   1.253
 6164WAT     H118734   2.230   2.055   1.302
 6164WAT     H218735   2.384   2.001   1.314
 6165WAT      O18736   5.718   0.985   3.788
 6165WAT     H118737   5.704   1.054   3.860
 6165WAT     H218738   5.631   0.967   3.742
 6166WAT      O18739   0.265   9.476   9.210
 6166WAT     H118740   0.168   9.497   9.200
 6166WAT     H218741   0.306   9.537   9.278
 6167WAT      O18742   8.417   1.291   5.484
 6167WAT     H118743   8.413   1.275   5.386
 6167WAT     H218744   8.456   1.382   5.501
 6168WAT      O18745   6.235   9.455   5.457
 6168WAT     H118746   6.180   9.431   5.536
 6168WAT     H218747   6.301   9.526   5.482
 6169WAT      O18748   2.258   1.027   5.708
 6169WAT     H118749   2.310   0.989   5.785
 6169WAT     H218750   2.298   1.114   5.681
 6170WAT      O18751   3.425   2.658   8.364
 6170WAT     H118752   3.357   2.731   8.351
 6170WAT     H218753   3.516   2.694   8.347
 6171WAT      O18754   5.009   1.924   0.184
 6171WAT     H118755   4.943   1.849   0.181
 6171WAT     H218756   4.962   2.009   0.161
 6172WAT      O18757   6.814   2.029   6.734
 6172WAT     H118758   6.718   2.053   6.748
 6172WAT     H218759   6.824   1.982   6.647
 6173WAT      O18760   8.353   7.580   1.646
 6173WAT     H118761   8.255   7.596   1.655
 6173WAT     H218762   8.369   7.484   1.621
 6174WAT      O18763   0.750   5.747   0.941
 6174WAT     H118764   0.695   5.830   0.954
 6174WAT     H218765   0.793   5.723   1.028
 6175WAT      O18766   7.344   9.633   7.801
 6175WAT     H118767   7.334   9.723   7.843
 6175WAT     H218768   7.438   9.621   7.769
 6176WAT      O18769   1.245   6.998   4.376
 6176WAT     H118770   1.206   7.060   4.308
 6176WAT     H218771   1.344   7.011   4.380
 6177WAT      O18772   4.215   1.769   1.149
 6177WAT     H118773   4.116   1.777   1.164
 6177WAT     H218774   4.240   1.672   1.150
 6178WAT      O18775   3.145   8.430   0.515
 6178WAT     H118776   3.193   8.448   0.601
 6178WAT     H218777   3.068   8.369   0.532
 6179WAT      O18778   5.465   3.475   3.211
 6179WAT     H118779   5.469   3.568   3.174
 6179WAT     H218780   5.488   3.410   3.139
 6180WAT      O18781   4.223   3.739   3.564
 6180WAT     H118782   4.266   3.658   3.524
 6180WAT     H218783   4.132   3.716   3.597
 6181WAT      O18784   2.305   3.410   1.924
 6181WAT     H118785   2.221   3.361   1.901
 6181WAT     H218786   2.335   3.383   2.016
 6182WAT      O18787   3.806   9.074   0.586
 6182WAT     H118788   3.739   9.145   0.568
 6182WAT     H218789   3.871   9.106   0.655
 6183WAT      O18790   2.516   3.422   2.914
 6183WAT     H118791   2.420   3.446   2.927
 6183WAT     H218792   2.552   3.471   2.835
 6184WAT      O18793   4.381   3.395   3.970
 6184WAT     H118794   4.339   3.354   3.889
 6184WAT     H218795   4.437   3.327   4.017
 6185WAT      O18796   3.051   5.872   3.552
 6185WAT     H118797   3.084   5.802   3.488
 6185WAT     H218798   3.096   5.860   3.640
 6186WAT      O18799   6.301   5.554   3.930
 6186WAT     H118800   6.295   5.454   3.930
 6186WAT     H218801   6.315   5.586   3.836
 6187WAT      O18802   9.887   0.472   1.519
 6187WAT     H118803   9.942   0.492   1.438
 6187WAT     H218804   9.840   0.385   1.506
 6188WAT      O18805   3.941   2.039   6.323
 6188WAT     H118806   3.853   2.032   6.276
 6188WAT     H218807   3.963   1.952   6.366
 6189WAT      O18808   6.950   4.254   4.077
 6189WAT     H118809   6.965   4.170   4.026
 6189WAT     H218810   6.924   4.232   4.171
 6190WAT      O18811   8.596   2.000   5.280
 6190WAT     H118812   8.659   1.986   5.204
 6190WAT     H218813   8.622   2.082   5.331
 6191WAT      O18814   6.121   6.063   0.604
 6191WAT     H118815   6.058   6.141   0.600
 6191WAT     H218816   6.070   5.982   0.635
 6192WAT      O18817   7.900   1.464   1.864
 6192WAT     H118818   7.809   1.424   1.880
 6192WAT     H218819   7.938   1.427   1.779
 6193WAT      O18820   8.061   9.776   9.141
 6193WAT     H118821   8.058   9.844   9.214
 6193WAT     H218822   7.998   9.701   9.162
 6194WAT      O18823   5.675   7.572   5.261
 6194WAT     H118824   5.703   7.563   5.357
 6194WAT     H218825   5.662   7.482   5.221
 6195WAT      O18826   4.699   3.151   3.561
 6195WAT     H118827   4.673   3.126   3.654
 6195WAT     H218828   4.720   3.069   3.509
 6196WAT      O18829   4.393   6.027   8.732
 6196WAT     H118830   4.320   5.994   8.673
 6196WAT     H218831   4.452   5.951   8.758
 6197WAT      O18832   4.895   3.922   6.429
 6197WAT     H118833   4.810   3.886   6.467
 6197WAT     H218834   4.972   3.888   6.483
 6198WAT      O18835   7.002   6.229   2.304
 6198WAT     H118836   7.018   6.137   2.340
 6198WAT     H218837   6.905   6.239   2.281
 6199WAT      O18838   8.395   4.618   5.644
 6199WAT     H118839   8.477   4.572   5.610
 6199WAT     H218840   8.330   4.551   5.679
 6200WAT      O18841   1.612   5.325   2.826
 6200WAT     H118842   1.587   5.231   2.803
 6200WAT     H218843   1.614   5.380   2.743
 6201WAT      O18844   3.293   4.732   9.069
 6201WAT     H118845   3.339   4.692   8.989
 6201WAT     H218846   3.345   4.811   9.101
 6202WAT      O18847   9.133   2.865   0.284
 6202WAT     H118848   9.040   2.892   0.263
 6202WAT     H218849   9.136   2.766   0.303
 6203WAT      O18850   3.914   7.275   2.971
 6203WAT     H118851   3.875   7.186   2.995
 6203WAT     H218852   3.844   7.332   2.927
 6204WAT      O18853   1.432   8.373   7.534
 6204WAT     H118854   1.530   8.365   7.551
 6204WAT     H218855   1.417   8.388   7.436
 6205WAT      O18856   9.786   9.496   7.533
 6205WAT     H118857   9.731   9.414   7.549
 6205WAT     H218858   9.729   9.577   7.543
 6206WAT      O18859   5.481   2.514   7.990
 6206WAT     H118860   5.497   2.611   7.968
 6206WAT     H218861   5.482   2.503   8.089
 6207WAT      O18862   7.648   9.105   5.319
 6207WAT     H118863   7.594   9.103   5.403
 6207WAT     H218864   7.588   9.119   5.241
 6208WAT      O18865   5.788   1.752   0.738
 6208WAT     H118866   5.865   1.692   0.764
 6208WAT     H218867   5.816   1.813   0.664
 6209WAT      O18868   9.222   2.114   2.488
 6209WAT     H118869   9.316   2.123   2.455
 6209WAT     H218870   9.160   2.163   2.426
 6210WAT      O18871   0.388   5.555   5.059
 6210WAT     H118872   0.294   5.584   5.078
 6210WAT     H218873   0.386   5.476   4.997
 6211WAT      O18874   0.831   1.122   4.362
 6211WAT     H118875   0.898   1.115   4.435
 6211WAT     H218876   0.790   1.033   4.345
 6212WAT      O18877   5.855   8.860   8.375
 6212WAT     H118878   5.770   8.912   8.382
 6212WAT     H218879   5.889   8.840   8.467
 6213WAT      O18880   1.488   5.785   2.640
 6213WAT     H118881   1.558   5.764   2.708
 6213WAT     H218882   1.507   5.735   2.556
 6214WAT      O18883   7.091   5.056   9.064
 6214WAT     H118884   6.994   5.033   9.059
 6214WAT     H218885   7.143   4.976   9.095
 6215WAT      O18886   7.402   7.295   6.167
 6215WAT     H118887   7.306   7.319   6.153
 6215WAT     H218888   7.458   7.340   6.097
 6216WAT      O18889   3.449   9.038   0.690
 6216WAT     H118890   3.400   9.000   0.612
 6216WAT     H218891   3.542   9.063   0.663
 6217WAT      O18892   9.747   8.305   3.912
 6217WAT     H118893   9.770   8.265   4.000
 6217WAT     H218894   9.736   8.404   3.921
 6218WAT      O18895   4.507   3.373   1.035
 6218WAT     H118896   4.582   3.431   1.067
 6218WAT     H218897   4.518   3.354   0.938
 6219WAT      O18898   2.407   5.142   1.363
 6219WAT     H118899   2.331   5.081   1.384
 6219WAT     H218900   2.447   5.176   1.448
 6220WAT      O18901   4.713   6.953   9.030
 6220WAT     H118902   4.624   6.995   9.049
 6220WAT     H218903   4.763   7.008   8.963
 6221WAT      O18904   6.471   5.586   7.870
 6221WAT     H118905   6.476   5.642   7.788
 6221WAT     H218906   6.497   5.492   7.848
 6222WAT      O18907   3.090   5.941   5.560
 6222WAT     H118908   3.009   5.937   5.501
 6222WAT     H218909   3.144   5.858   5.549
 6223WAT      O18910   7.828   6.927   1.276
 6223WAT     H118911   7.922   6.936   1.243
 6223WAT     H218912   7.805   7.005   1.334
 6224WAT      O18913   6.915   2.788   7.830
 6224WAT     H118914   6.948   2.696   7.848
 6224WAT     H218915   6.962   2.826   7.750
 6225WAT      O18916   6.444   3.459   7.157
 6225WAT     H118917   6.451   3.371   7.204
 6225WAT     H218918   6.516   3.466   7.088
 6226WAT      O18919   5.309   3.444   0.721
 6226WAT     H118920   5.282   3.534   0.755
 6226WAT     H218921   5.263   3.373   0.774
 6227WAT      O18922   0.792   4.859   7.481
 6227WAT     H118923   0.711   4.812   7.446
 6227WAT     H218924   0.857   4.875   7.407
 6228WAT      O18925   4.938   7.107   5.787
 6228WAT     H118926   4.935   7.120   5.886
 6228WAT     H218927   4.935   7.196   5.741
 6229WAT      O18928   3.529   1.528   9.522
 6229WAT     H118929   3.530   1.465   9.444
 6229WAT     H218930   3.601   1.597   9.510
 6230WAT      O18931   9.381   3.902   5.610
 6230WAT     H118932   9.449   3.956   5.559
 6230WAT     H218933   9.362   3.817   5.560
 6231WAT      O18934   8.709   8.339   1.361
 6231WAT     H118935   8.699   8.274   1.286
 6231WAT     H218936   8.630   8.333   1.422
 6232WAT      O18937   7.305   4.732   8.885
 6232WAT     H118938   7.243   4.682   8.824
 6232WAT     H218939   7.255   4.762   8.967
 6233WAT      O18940   5.798   5.638   8.420
 6233WAT     H118941   5.761   5.551   8.454
 6233WAT     H218942   5.853   5.621   8.339
 6234WAT      O18943   2.151   7.845   3.953
 6234WAT     H118944   2.054   7.866   3.955
 6234WAT     H218945   2.181   7.833   3.858
 6235WAT      O18946   2.685   5.204   1.654
 6235WAT     H118947   2.746   5.176   1.728
 6235WAT     H218948   2.715   5.162   1.568
 6236WAT      O18949   8.490   4.480   3.658
 6236WAT     H118950   8.520   4.562   3.706
 6236WAT     H218951   8.392   4.466   3.674
 6237WAT      O18952   0.457   6.207   8.975
 6237WAT     H118953   0.380   6.271   8.967
 6237WAT     H218954   0.427   6.115   8.951
 6238WAT      O18955   4.625   2.303   2.298
 6238WAT     H118956   4.700   2.299   2.232
 6238WAT     H218957   4.538   2.312   2.248
 6239WAT      O18958   1.365   0.343   7.781
 6239WAT     H118959   1.278   0.297   7.760
 6239WAT     H218960   1.440   0.290   7.742
 6240WAT      O18961   7.949   3.370   4.093
 6240WAT     H118962   7.871   3.433   4.089
 6240WAT     H218963   7.941   3.313   4.175
 6241WAT      O18964   5.042   8.634   0.850
 6241WAT     H118965   5.085   8.544   0.861
 6241WAT     H218966   5.010   8.644   0.756
 6242WAT      O18967   4.513   0.140   7.253
 6242WAT     H118968   4.508   0.226   7.304
 6242WAT     H218969   4.481   0.065   7.311
 6243WAT      O18970   9.587   1.592   5.047
 6243WAT     H118971   9.569   1.497   5.073
 6243WAT     H218972   9.502   1.643   5.047
 6244WAT      O18973   6.228   5.977   4.184
 6244WAT     H118974   6.256   6.073   4.183
 6244WAT     H218975   6.216   5.944   4.091
 6245WAT      O18976   0.677   5.535   4.678
 6245WAT     H118977   0.703   5.487   4.594
 6245WAT     H218978   0.677   5.634   4.661
 6246WAT      O18979   1.391   6.356   6.599
 6246WAT     H118980   1.487   6.365   6.622
 6246WAT     H218981   1.355   6.271   6.637
 6247WAT      O18982   7.779   6.282   3.396
 6247WAT     H118983   7.855   6.338   3.363
 6247WAT     H218984   7.719   6.260   3.319
 6248WAT      O18985   9.239   0.639   4.791
 6248WAT     H118986   9.326   0.669   4.828
 6248WAT     H218987   9.225   0.543   4.814
 6249WAT      O18988   3.993   8.218   5.467
 6249WAT     H118989   4.054   8.161   5.523
 6249WAT     H218990   3.937   8.159   5.409
 6250WAT      O18991   6.063   1.096   1.932
 6250WAT     H118992   6.081   1.171   1.869
 6250WAT     H218993   6.134   1.093   2.002
 6251WAT      O18994   8.702   8.594   4.594
 6251WAT     H118995   8.676   8.600   4.691
 6251WAT     H218996   8.631   8.546   4.544
 6252WAT      O18997   7.651   9.522   8.394
 6252WAT     H118998   7.606   9.563   8.474
 6252WAT     H218999   7.581   9.489   8.330
 6253WAT      O19000   6.918   5.719   8.653
 6253WAT     H119001   6.901   5.785   8.580
 6253WAT     H219002   6.938   5.629   8.613
 6254WAT      O19003   8.228   3.166   4.264
 6254WAT     H119004   8.310   3.184   4.318
 6254WAT     H219005   8.228   3.223   4.182
 6255WAT      O19006   0.389   2.674   1.895
 6255WAT     H119007   0.303   2.623   1.889
 6255WAT     H219008   0.387   2.749   1.828
 6256WAT      O19009   5.849   5.168   0.843
 6256WAT     H119010   5.819   5.248   0.791
 6256WAT     H219011   5.775   5.101   0.847
 6257WAT      O19012   7.289   4.048   9.759
 6257WAT     H119013   7.236   3.971   9.793
 6257WAT     H219014   7.363   4.069   9.823
 6258WAT      O19015   3.846   8.275   7.659
 6258WAT     H119016   3.917   8.222   7.706
 6258WAT     H219017   3.861   8.270   7.560
 6259WAT      O19018   7.069   0.071   9.769
 6259WAT     H119019   7.124  -0.005   9.735
 6259WAT     H219020   6.994   0.035   9.825
 6260WAT      O19021   2.886   9.248   7.791
 6260WAT     H119022   2.971   9.251   7.738
 6260WAT     H219023   2.811   9.219   7.732
 6261WAT      O19024   3.938   4.867   5.375
 6261WAT     H119025   3.939   4.827   5.284
 6261WAT     H219026   3.853   4.842   5.421
 6262WAT      O19027   7.976   0.897   3.547
 6262WAT     H119028   7.973   0.837   3.468
 6262WAT     H219029   7.937   0.850   3.627
 6263WAT      O19030   2.212   0.505   8.164
 6263WAT     H119031   2.169   0.527   8.077
 6263WAT     H219032   2.237   0.408   8.165
 6264WAT      O19033   1.007   8.609   0.833
 6264WAT     H119034   1.050   8.700   0.828
 6264WAT     H219035   1.026   8.568   0.922
 6265WAT      O19036   2.887   3.439   0.461
 6265WAT     H119037   2.981   3.465   0.438
 6265WAT     H219038   2.883   3.342   0.482
 6266WAT      O19039   8.907   7.253   8.880
 6266WAT     H119040   8.824   7.264   8.934
 6266WAT     H219041   8.919   7.156   8.857
 6267WAT      O19042   7.078   7.505   8.542
 6267WAT     H119043   7.110   7.521   8.449
 6267WAT     H219044   6.979   7.499   8.543
 6268WAT      O19045   6.775   6.139   6.645
 6268WAT     H119046   6.866   6.103   6.626
 6268WAT     H219047   6.771   6.236   6.622
 6269WAT      O19048   6.637   3.190   6.345
 6269WAT     H119049   6.617   3.193   6.443
 6269WAT     H219050   6.553   3.174   6.294
 6270WAT      O19051   2.373   5.976   4.684
 6270WAT     H119052   2.377   6.002   4.780
 6270WAT     H219053   2.305   6.032   4.637
 6271WAT      O19054   6.210   2.864   1.428
 6271WAT     H119055   6.191   2.943   1.370
 6271WAT     H219056   6.299   2.825   1.403
 6272WAT      O19057   3.743   8.276   1.203
 6272WAT     H119058   3.832   8.307   1.169
 6272WAT     H219059   3.708   8.342   1.270
 6273WAT      O19060   3.424   7.638   6.279
 6273WAT     H119061   3.375   7.551   6.279
 6273WAT     H219062   3.417   7.680   6.369
 6274WAT      O19063   0.348   4.611   4.393
 6274WAT     H119064   0.359   4.522   4.438
 6274WAT     H219065   0.319   4.597   4.298
 6275WAT      O19066   2.544   7.941   7.546
 6275WAT     H119067   2.573   7.846   7.537
 6275WAT     H219068   2.540   7.966   7.643
 6276WAT      O19069   1.526   6.197   0.172
 6276WAT     H119070   1.510   6.270   0.105
 6276WAT     H219071   1.584   6.231   0.246
 6277WAT      O19072   1.786   8.922   3.211
 6277WAT     H119073   1.744   8.867   3.284
 6277WAT     H219074   1.844   8.992   3.252
 6278WAT      O19075   7.346   7.724   1.281
 6278WAT     H119076   7.412   7.736   1.207
 6278WAT     H219077   7.356   7.633   1.320
 6279WAT      O19078   2.988   9.406   2.271
 6279WAT     H119079   3.063   9.421   2.207
 6279WAT     H219080   3.024   9.369   2.357
 6280WAT      O19081   7.994   6.892   1.870
 6280WAT     H119082   8.037   6.944   1.944
 6280WAT     H219083   7.970   6.801   1.904
 6281WAT      O19084   5.350   2.953   1.783
 6281WAT     H119085   5.404   2.959   1.867
 6281WAT     H219086   5.277   2.885   1.795
 6282WAT      O19087   4.752   4.207   6.864
 6282WAT     H119088   4.723   4.142   6.794
 6282WAT     H219089   4.673   4.253   6.902
 6283WAT      O19090   1.314   7.841   5.165
 6283WAT     H119091   1.336   7.883   5.253
 6283WAT     H219092   1.396   7.841   5.107
 6284WAT      O19093   6.733   1.115   2.082
 6284WAT     H119094   6.724   1.060   2.165
 6284WAT     H219095   6.783   1.064   2.013
 6285WAT      O19096   8.120   9.264   0.356
 6285WAT     H119097   8.175   9.314   0.290
 6285WAT     H219098   8.153   9.169   0.362
 6286WAT      O19099   5.710   2.941   7.856
 6286WAT     H119100   5.777   3.015   7.848
 6286WAT     H219101   5.735   2.882   7.933
 6287WAT      O19102   0.439   1.222   8.079
 6287WAT     H119103   0.485   1.199   8.165
 6287WAT     H219104   0.487   1.179   8.003
 6288WAT      O19105   3.385   3.690   1.405
 6288WAT     H119106   3.430   3.656   1.323
 6288WAT     H219107   3.421   3.641   1.485
 6289WAT      O19108   5.742   0.401   5.658
 6289WAT     H119109   5.787   0.474   5.709
 6289WAT     H219110   5.660   0.437   5.613
 6290WAT      O19111   1.523   0.031   9.813
 6290WAT     H119112   1.571  -0.001   9.731
 6290WAT     H219113   1.542  -0.031   9.889
 6291WAT      O19114   8.091   1.942   9.450
 6291WAT     H119115   8.170   1.917   9.506
 6291WAT     H219116   8.016   1.970   9.510
 6292WAT      O19117   9.806   4.944   0.722
 6292WAT     H119118   9.879   4.982   0.779
 6292WAT     H219119   9.718   4.952   0.770
 6293WAT      O19120   2.909   6.824   4.125
 6293WAT     H119121   2.961   6.753   4.078
 6293WAT     H219122   2.841   6.781   4.185
 6294WAT      O19123   8.325   7.624   4.807
 6294WAT     H119124   8.255   7.669   4.751
 6294WAT     H219125   8.290   7.613   4.900
 6295WAT      O19126   3.879   3.721   8.150
 6295WAT     H119127   3.955   3.681   8.200
 6295WAT     H219128   3.866   3.816   8.180
 6296WAT      O19129   6.801   6.987   4.674
 6296WAT     H119130   6.826   6.998   4.578
 6296WAT     H219131   6.855   7.051   4.730
 6297WAT      O19132   2.517   8.428   6.192
 6297WAT     H119133   2.421   8.454   6.187
 6297WAT     H219134   2.567   8.497   6.246
 6298WAT      O19135   7.036   4.885   4.326
 6298WAT     H119136   7.132   4.870   4.350
 6298WAT     H219137   6.986   4.914   4.408
 6299WAT      O19138   1.895   3.808   7.369
 6299WAT     H119139   1.972   3.787   7.309
 6299WAT     H219140   1.820   3.743   7.351
 6300WAT      O19141   5.977   8.211   3.206
 6300WAT     H119142   5.922   8.175   3.130
 6300WAT     H219143   5.982   8.142   3.279
 6301WAT      O19144   8.012   6.145   9.726
 6301WAT     H119145   7.939   6.077   9.717
 6301WAT     H219146   8.053   6.137   9.817
 6302WAT      O19147   0.828   5.196   6.089
 6302WAT     H119148   0.849   5.111   6.137
 6302WAT     H219149   0.800   5.175   5.995
 6303WAT      O19150   7.072   4.716   2.375
 6303WAT     H119151   7.044   4.657   2.450
 6303WAT     H219152   6.992   4.761   2.336
 6304WAT      O19153   5.298   3.829   7.492
 6304WAT     H119154   5.258   3.788   7.409
 6304WAT     H219155   5.238   3.810   7.570
 6305WAT      O19156   1.404   7.077   9.362
 6305WAT     H119157   1.492   7.064   9.317
 6305WAT     H219158   1.331   7.075   9.293
 6306WAT      O19159   3.080   2.006   9.011
 6306WAT     H119160   3.177   2.020   8.996
 6306WAT     H219161   3.035   2.093   9.027
 6307WAT      O19162   1.902   5.560   3.995
 6307WAT     H119163   1.823   5.621   3.999
 6307WAT     H219164   1.981   5.605   4.038
 6308WAT      O19165   1.461   6.739   1.555
 6308WAT     H119166   1.499   6.658   1.511
 6308WAT     H219167   1.414   6.795   1.487
 6309WAT      O19168   3.797   7.853   1.983
 6309WAT     H119169   3.698   7.850   1.966
 6309WAT     H219170   3.833   7.941   1.951
 6310WAT      O19171   4.812   8.748   5.125
 6310WAT     H119172   4.850   8.738   5.033
 6310WAT     H219173   4.750   8.671   5.143
 6311WAT      O19174   8.778   7.283   6.834
 6311WAT     H119175   8.748   7.284   6.930
 6311WAT     H219176   8.731   7.356   6.784
 6312WAT      O19177   0.261   4.013   7.142
 6312WAT     H119178   0.220   3.930   7.104
 6312WAT     H219179   0.294   4.071   7.067
 6313WAT      O19180   5.993   1.377   5.199
 6313WAT     H119181   6.080   1.419   5.227
 6313WAT     H219182   5.917   1.434   5.231
 6314WAT      O19183   0.878   5.945   5.216
 6314WAT     H119184   0.963   5.969   5.263
 6314WAT     H219185   0.823   6.027   5.203
 6315WAT      O19186   4.536   0.641   3.354
 6315WAT     H119187   4.487   0.619   3.270
 6315WAT     H219188   4.493   0.594   3.431
 6316WAT      O19189   7.778   7.757   3.005
 6316WAT     H119190   7.859   7.783   3.058
 6316WAT     H219191   7.732   7.840   2.971
 6317WAT      O19192   3.509   6.641   3.711
 6317WAT     H119193   3.474   6.693   3.633
 6317WAT     H219194   3.486   6.545   3.700
 6318WAT      O19195   0.238   4.589   6.453
 6318WAT     H119196   0.323   4.537   6.445
 6318WAT     H219197   0.205   4.613   6.362
 6319WAT      O19198   9.263   2.888   0.697
 6319WAT     H119199   9.221   2.974   0.670
 6319WAT     H219200   9.193   2.826   0.733
 6320WAT      O19201   9.009   2.268   6.906
 6320WAT     H119202   9.096   2.304   6.938
 6320WAT     H219203   8.938   2.338   6.915
 6321WAT      O19204   4.461   2.923   3.581
 6321WAT     H119205   4.364   2.932   3.557
 6321WAT     H219206   4.481   2.828   3.604
 6322WAT      O19207   1.468   6.768   9.300
 6322WAT     H119208   1.396   6.792   9.235
 6322WAT     H219209   1.546   6.829   9.287
 6323WAT      O19210   2.951   4.905   7.581
 6323WAT     H119211   3.047   4.910   7.609
 6323WAT     H219212   2.930   4.812   7.550
 6324WAT      O19213   0.031   8.083   6.028
 6324WAT     H119214  -0.046   8.090   5.965
 6324WAT     H219215   0.015   8.009   6.093
 6325WAT      O19216   8.957   4.949   6.545
 6325WAT     H119217   8.986   4.866   6.496
 6325WAT     H219218   8.950   5.025   6.480
 6326WAT      O19219   2.003   7.605   9.108
 6326WAT     H119220   2.082   7.663   9.129
 6326WAT     H219221   2.018   7.560   9.020
 6327WAT      O19222   0.821   4.397   0.115
 6327WAT     H119223   0.722   4.379   0.108
 6327WAT     H219224   0.844   4.479   0.062
 6328WAT      O19225   8.732   0.695   0.009
 6328WAT     H119226   8.659   0.631  -0.011
 6328WAT     H219227   8.728   0.773  -0.054
 6329WAT      O19228   9.273   5.467   8.793
 6329WAT     H119229   9.369   5.462   8.820
 6329WAT     H219230   9.262   5.426   8.702
 6330WAT      O19231   3.659   0.083   0.732
 6330WAT     H119232   3.701   0.138   0.803
 6330WAT     H219233   3.676   0.124   0.642
 6331WAT      O19234   6.789   9.347   3.785
 6331WAT     H119235   6.727   9.304   3.719
 6331WAT     H219236   6.803   9.286   3.862
 6332WAT      O19237   2.943   5.358   1.475
 6332WAT     H119238   3.004   5.434   1.454
 6332WAT     H219239   2.940   5.344   1.574
 6333WAT      O19240   9.368   7.773   8.982
 6333WAT     H119241   9.404   7.682   9.003
 6333WAT     H219242   9.274   7.765   8.947
 6334WAT      O19243   3.986   3.972   8.591
 6334WAT     H119244   3.974   3.943   8.686
 6334WAT     H219245   3.902   4.014   8.559
 6335WAT      O19246   7.865   9.262   9.152
 6335WAT     H119247   7.857   9.243   9.250
 6335WAT     H219248   7.954   9.304   9.134
 6336WAT      O19249   2.159   1.063   7.552
 6336WAT     H119250   2.108   0.979   7.573
 6336WAT     H219251   2.162   1.121   7.633
 6337WAT      O19252   3.409   4.606   1.310
 6337WAT     H119253   3.421   4.512   1.344
 6337WAT     H219254   3.341   4.653   1.367
 6338WAT      O19255   1.064   6.127   8.407
 6338WAT     H119256   1.141   6.190   8.416
 6338WAT     H219257   0.984   6.177   8.371
 6339WAT      O19258   8.522   7.530   0.775
 6339WAT     H119259   8.451   7.485   0.721
 6339WAT     H219260   8.554   7.612   0.728
 6340WAT      O19261   2.884   7.132   1.074
 6340WAT     H119262   2.829   7.078   1.010
 6340WAT     H219263   2.868   7.229   1.058
 6341WAT      O19264   3.153   4.540   0.411
 6341WAT     H119265   3.074   4.504   0.363
 6341WAT     H219266   3.225   4.562   0.345
 6342WAT      O19267   5.315   4.676   8.649
 6342WAT     H119268   5.325   4.773   8.626
 6342WAT     H219269   5.400   4.628   8.629
 6343WAT      O19270   8.700   5.238   0.610
 6343WAT     H119271   8.800   5.235   0.614
 6343WAT     H219272   8.664   5.263   0.700
 6344WAT      O19273   2.894   3.753   8.933
 6344WAT     H119274   2.974   3.765   8.991
 6344WAT     H219275   2.816   3.801   8.972
 6345WAT      O19276   1.125   0.922   9.402
 6345WAT     H119277   1.182   0.881   9.331
 6345WAT     H219278   1.125   1.022   9.390
 6346WAT      O19279   5.190   9.092   0.695
 6346WAT     H119280   5.114   9.032   0.669
 6346WAT     H219281   5.155   9.185   0.709
 6347WAT      O19282   6.231   6.993   1.905
 6347WAT     H119283   6.158   7.041   1.857
 6347WAT     H219284   6.266   6.919   1.847
 6348WAT      O19285   8.443   8.821   3.768
 6348WAT     H119286   8.479   8.749   3.708
 6348WAT     H219287   8.440   8.787   3.862
 6349WAT      O19288   7.699   6.998   8.242
 6349WAT     H119289   7.738   7.002   8.150
 6349WAT     H219290   7.751   7.058   8.303
 6350WAT      O19291   0.760   5.820   7.501
 6350WAT     H119292   0.766   5.790   7.596
 6350WAT     H219293   0.831   5.774   7.447
 6351WAT      O19294   1.001   8.845   2.666
 6351WAT     H119295   1.077   8.849   2.601
 6351WAT     H219296   1.008   8.762   2.721
 6352WAT      O19297   2.761   1.505   0.690
 6352WAT     H119298   2.719   1.421   0.725
 6352WAT     H219299   2.847   1.521   0.739
 6353WAT      O19300   2.396   8.441   7.857
 6353WAT     H119301   2.416   8.535   7.830
 6353WAT     H219302   2.359   8.390   7.780
 6354WAT      O19303   5.190   1.017   0.918
 6354WAT     H119304   5.277   0.986   0.881
 6354WAT     H219305   5.184   1.117   0.912
 6355WAT      O19306   0.359   6.858   0.953
 6355WAT     H119307   0.367   6.842   1.051
 6355WAT     H219308   0.335   6.773   0.907
 6356WAT      O19309   8.589   8.876   7.834
 6356WAT     H119310   8.618   8.785   7.804
 6356WAT     H219311   8.541   8.869   7.922
 6357WAT      O19312   1.476   0.735   0.619
 6357WAT     H119313   1.506   0.642   0.638
 6357WAT     H219314   1.456   0.744   0.521
 6358WAT      O19315   8.155   6.120   8.440
 6358WAT     H119316   8.210   6.051   8.393
 6358WAT     H219317   8.198   6.210   8.428
 6359WAT      O19318   1.064   7.716   4.275
 6359WAT     H119319   1.157   7.700   4.245
 6359WAT     H219320   1.002   7.652   4.228
 6360WAT      O19321   2.783   4.571   4.163
 6360WAT     H119322   2.883   4.564   4.164
 6360WAT     H219323   2.749   4.571   4.257
 6361WAT      O19324   9.067   1.610   3.148
 6361WAT     H119325   9.006   1.531   3.152
 6361WAT     H219326   9.019   1.687   3.106
 6362WAT      O19327   4.190   2.400   6.086
 6362WAT     H119328   4.224   2.337   6.016
 6362WAT     H219329   4.256   2.474   6.100
 6363WAT      O19330   0.938   6.389   1.509
 6363WAT     H119331   0.940   6.343   1.597
 6363WAT     H219332   0.895   6.330   1.441
 6364WAT      O19333   4.434   0.939   5.441
 6364WAT     H119334   4.489   1.015   5.407
 6364WAT     H219335   4.371   0.909   5.369
 6365WAT      O19336   6.186   2.047   3.736
 6365WAT     H119337   6.117   1.975   3.748
 6365WAT     H219338   6.140   2.134   3.722
 6366WAT      O19339   0.651   3.607   6.790
 6366WAT     H119340   0.603   3.632   6.706
 6366WAT     H219341   0.604   3.647   6.868
 6367WAT      O19342   3.687   1.728   9.466
 6367WAT     H119343   3.652   1.821   9.479
 6367WAT     H219344   3.787   1.730   9.463
 6368WAT      O19345   4.394   7.819   2.393
 6368WAT     H119346   4.471   7.884   2.393
 6368WAT     H219347   4.410   7.749   2.462
 6369WAT      O19348   4.571   8.120   0.365
 6369WAT     H119349   4.617   8.178   0.432
 6369WAT     H219350   4.477   8.152   0.352
 6370WAT      O19351   1.234   9.495   7.362
 6370WAT     H119352   1.142   9.532   7.357
 6370WAT     H219353   1.261   9.458   7.273
 6371WAT      O19354   3.178   2.243   0.989
 6371WAT     H119355   3.269   2.251   1.030
 6371WAT     H219356   3.171   2.305   0.911
 6372WAT      O19357   4.291   5.376   7.973
 6372WAT     H119358   4.294   5.296   7.913
 6372WAT     H219359   4.383   5.395   8.007
 6373WAT      O19360   2.208   2.865   2.216
 6373WAT     H119361   2.175   2.952   2.178
 6373WAT     H219362   2.267   2.820   2.150
 6374WAT      O19363   8.819   3.927   8.712
 6374WAT     H119364   8.918   3.930   8.704
 6374WAT     H219365   8.783   3.851   8.658
 6375WAT      O19366   5.064   0.770   1.380
 6375WAT     H119367   5.086   0.860   1.341
 6375WAT     H219368   5.106   0.762   1.471
 6376WAT      O19369   3.631   1.292   2.313
 6376WAT     H119370   3.624   1.369   2.250
 6376WAT     H219371   3.701   1.312   2.382
 6377WAT      O19372   8.988   2.003   0.238
 6377WAT     H119373   8.943   2.077   0.186
 6377WAT     H219374   8.943   1.916   0.216
 6378WAT      O19375   6.773   1.109   9.453
 6378WAT     H119376   6.854   1.141   9.403
 6378WAT     H219377   6.781   1.011   9.472
 6379WAT      O19378   2.122   2.931   1.552
 6379WAT     H119379   2.216   2.959   1.573
 6379WAT     H219380   2.059   2.978   1.615
 6380WAT      O19381   7.500   9.292   8.023
 6380WAT     H119382   7.479   9.327   8.114
 6380WAT     H219383   7.429   9.322   7.959
 6381WAT      O19384   1.743   7.280   6.789
 6381WAT     H119385   1.678   7.344   6.747
 6381WAT     H219386   1.825   7.274   6.733
 6382WAT      O19387   1.123   7.792   5.558
 6382WAT     H119388   1.116   7.845   5.643
 6382WAT     H219389   1.112   7.852   5.479
 6383WAT      O19390   0.365   1.444   8.580
 6383WAT     H119391   0.294   1.512   8.599
 6383WAT     H219392   0.333   1.382   8.508
 6384WAT      O19393   3.403   3.660   9.207
 6384WAT     H119394   3.311   3.679   9.174
 6384WAT     H219395   3.452   3.746   9.220
 6385WAT      O19396   0.153   6.616   4.026
 6385WAT     H119397   0.183   6.604   4.121
 6385WAT     H219398   0.221   6.577   3.964
 6386WAT      O19399   9.245   5.028   1.885
 6386WAT     H119400   9.228   4.947   1.942
 6386WAT     H219401   9.292   5.000   1.801
 6387WAT      O19402   7.608   0.903   0.376
 6387WAT     H119403   7.606   1.003   0.378
 6387WAT     H219404   7.548   0.871   0.303
 6388WAT      O19405   0.074   5.313   5.844
 6388WAT     H119406   0.138   5.389   5.830
 6388WAT     H219407   0.125   5.227   5.843
 6389WAT      O19408   0.965   2.514   3.736
 6389WAT     H119409   0.986   2.595   3.791
 6389WAT     H219410   0.877   2.526   3.690
 6390WAT      O19411   8.963   6.914   2.947
 6390WAT     H119412   8.980   6.839   3.011
 6390WAT     H219413   8.878   6.898   2.897
 6391WAT      O19414   7.292   1.452   5.031
 6391WAT     H119415   7.291   1.369   5.087
 6391WAT     H219416   7.227   1.441   4.955
 6392WAT      O19417   7.705   9.836   0.733
 6392WAT     H119418   7.614   9.796   0.735
 6392WAT     H219419   7.746   9.820   0.643
 6393WAT      O19420   3.029   3.845   6.784
 6393WAT     H119421   2.938   3.846   6.825
 6393WAT     H219422   3.043   3.929   6.732
 6394WAT      O19423   4.775   0.901   2.733
 6394WAT     H119424   4.722   0.967   2.680
 6394WAT     H219425   4.866   0.891   2.693
 6395WAT      O19426   7.206   7.956   5.173
 6395WAT     H119427   7.284   7.945   5.111
 6395WAT     H219428   7.238   7.955   5.268
 6396WAT      O19429   0.193   8.304   8.438
 6396WAT     H119430   0.223   8.381   8.381
 6396WAT     H219431   0.122   8.336   8.501
 6397WAT      O19432   9.870   4.185   9.877
 6397WAT     H119433   9.919   4.253   9.932
 6397WAT     H219434   9.878   4.209   9.780
 6398WAT      O19435   2.919   2.087   4.276
 6398WAT     H119436   2.938   2.183   4.255
 6398WAT     H219437   3.001   2.032   4.260
 6399WAT      O19438   6.125   9.543   0.346
 6399WAT     H119439   6.065   9.485   0.291
 6399WAT     H219440   6.215   9.499   0.354
 6400WAT      O19441   5.869   1.641   3.341
 6400WAT     H119442   5.780   1.681   3.320
 6400WAT     H219443   5.873   1.548   3.305
 6401WAT      O19444   4.669   3.037   0.401
 6401WAT     H119445   4.686   2.963   0.466
 6401WAT     H219446   4.611   3.004   0.327
 6402WAT      O19447   8.203   4.738   7.070
 6402WAT     H119448   8.189   4.808   7.140
 6402WAT     H219449   8.279   4.679   7.096
 6403WAT      O19450   9.861   4.779   7.258
 6403WAT     H119451   9.777   4.725   7.247
 6403WAT     H219452   9.933   4.721   7.295
 6404WAT      O19453   8.869   6.385   7.944
 6404WAT     H119454   8.968   6.373   7.952
 6404WAT     H219455   8.836   6.446   8.016
 6405WAT      O19456   5.258   0.578   7.541
 6405WAT     H119457   5.304   0.495   7.508
 6405WAT     H219458   5.281   0.593   7.637
 6406WAT      O19459   1.364   9.389   3.184
 6406WAT     H119460   1.359   9.450   3.264
 6406WAT     H219461   1.271   9.364   3.156
 6407WAT      O19462   7.947   2.515   0.753
 6407WAT     H119463   8.024   2.531   0.692
 6407WAT     H219464   7.862   2.537   0.706
 6408WAT      O19465   8.326   6.841   0.503
 6408WAT     H119466   8.294   6.747   0.493
 6408WAT     H219467   8.426   6.842   0.509
 6409WAT      O19468   2.245   7.124   3.398
 6409WAT     H119469   2.216   7.079   3.482
 6409WAT     H219470   2.279   7.215   3.419
 6410WAT      O19471   7.547   2.834   0.497
 6410WAT     H119472   7.493   2.862   0.577
 6410WAT     H219473   7.494   2.768   0.443
 6411WAT      O19474   1.655   3.646   7.336
 6411WAT     H119475   1.586   3.719   7.331
 6411WAT     H219476   1.670   3.608   7.245
 6412WAT      O19477   4.687   7.434   1.307
 6412WAT     H119478   4.695   7.334   1.308
 6412WAT     H219479   4.683   7.467   1.401
 6413WAT      O19480   9.749   3.249   0.345
 6413WAT     H119481   9.806   3.273   0.266
 6413WAT     H219482   9.799   3.270   0.430
 6414WAT      O19483   2.116   5.837   3.608
 6414WAT     H119484   2.108   5.900   3.531
 6414WAT     H219485   2.055   5.866   3.682
 6415WAT      O19486   9.489   0.779   9.761
 6415WAT     H119487   9.489   0.831   9.676
 6415WAT     H219488   9.531   0.834   9.833
 6416WAT      O19489   2.919   2.573   7.793
 6416WAT     H119490   2.867   2.493   7.762
 6416WAT     H219491   2.985   2.546   7.863
 6417WAT      O19492   3.261   6.912   9.026
 6417WAT     H119493   3.272   7.011   9.014
 6417WAT     H219494   3.172   6.894   9.069
 6418WAT      O19495   7.722   0.458   4.255
 6418WAT     H119496   7.723   0.482   4.352
 6418WAT     H219497   7.696   0.538   4.201
 6419WAT      O19498   1.950   5.232   8.457
 6419WAT     H119499   1.943   5.150   8.401
 6419WAT     H219500   1.861   5.254   8.496
 6420WAT      O19501   0.695   7.841   4.035
 6420WAT     H119502   0.793   7.825   4.031
 6420WAT     H219503   0.678   7.937   4.058
 6421WAT      O19504   7.368   8.503   4.826
 6421WAT     H119505   7.414   8.425   4.869
 6421WAT     H219506   7.411   8.588   4.857
 6422WAT      O19507   3.409   2.385   5.153
 6422WAT     H119508   3.477   2.400   5.082
 6422WAT     H219509   3.436   2.307   5.210
 6423WAT      O19510   0.146   9.089   2.551
 6423WAT     H119511   0.207   9.132   2.484
 6423WAT     H219512   0.051   9.106   2.524
 6424WAT      O19513   2.455   7.560   1.080
 6424WAT     H119514   2.424   7.490   1.145
 6424WAT     H219515   2.376   7.599   1.033
 6425WAT      O19516   0.037   0.152   2.417
 6425WAT     H119517   0.086   0.131   2.332
 6425WAT     H219518   0.014   0.067   2.464
 6426WAT      O19519   5.712   6.471   1.876
 6426WAT     H119520   5.728   6.378   1.843
 6426WAT     H219521   5.792   6.500   1.930
 6427WAT      O19522   3.375   8.056   3.814
 6427WAT     H119523   3.363   8.101   3.902
 6427WAT     H219524   3.351   7.959   3.822
 6428WAT      O19525   6.226   3.531   2.437
 6428WAT     H119526   6.216   3.544   2.536
 6428WAT     H219527   6.204   3.616   2.389
 6429WAT      O19528   9.404   2.721   6.176
 6429WAT     H119529   9.324   2.673   6.213
 6429WAT     H219530   9.487   2.683   6.217
 6430WAT      O19531   3.393   3.134   1.695
 6430WAT     H119532   3.327   3.063   1.719
 6430WAT     H219533   3.353   3.224   1.713
 6431WAT      O19534   9.587   2.366   1.020
 6431WAT     H119535   9.635   2.334   0.939
 6431WAT     H219536   9.506   2.309   1.035
 6432WAT      O19537   0.745   4.379   8.566
 6432WAT     H119538   0.649   4.369   8.539
 6432WAT     H219539   0.783   4.289   8.585
 6433WAT      O19540   8.321   8.790   0.474
 6433WAT     H119541   8.266   8.802   0.557
 6433WAT     H219542   8.376   8.707   0.482
 6434WAT      O19543   7.566   3.604   7.577
 6434WAT     H119544   7.510   3.548   7.637
 6434WAT     H219545   7.649   3.632   7.625
 6435WAT      O19546   3.448   1.190   3.542
 6435WAT     H119547   3.408   1.114   3.593
 6435WAT     H219548   3.387   1.216   3.468
 6436WAT      O19549   9.781   0.385   0.655
 6436WAT     H119550   9.782   0.427   0.746
 6436WAT     H219551   9.787   0.457   0.586
 6437WAT      O19552   9.155   0.759   8.164
 6437WAT     H119553   9.079   0.780   8.102
 6437WAT     H219554   9.125   0.771   8.258
 6438WAT      O19555   3.781   4.910   0.058
 6438WAT     H119556   3.809   4.828   0.107
 6438WAT     H219557   3.689   4.896   0.020
 6439WAT      O19558   2.074   7.013   1.331
 6439WAT     H119559   2.162   6.972   1.356
 6439WAT     H219560   2.001   6.947   1.349
 6440WAT      O19561   7.092   8.693   1.302
 6440WAT     H119562   7.184   8.696   1.342
 6440WAT     H219563   7.084   8.764   1.231
 6441WAT      O19564   4.792   6.968   8.152
 6441WAT     H119565   4.749   7.059   8.155
 6441WAT     H219566   4.826   6.945   8.244
 6442WAT      O19567   3.129   9.472   9.467
 6442WAT     H119568   3.084   9.556   9.436
 6442WAT     H219569   3.221   9.468   9.428
 6443WAT      O19570   8.031   7.363   2.221
 6443WAT     H119571   8.002   7.342   2.314
 6443WAT     H219572   7.953   7.357   2.159
 6444WAT      O19573   4.193   8.051   8.000
 6444WAT     H119574   4.213   8.148   7.984
 6444WAT     H219575   4.177   8.037   8.098
 6445WAT      O19576   8.827   4.302   6.612
 6445WAT     H119577   8.772   4.268   6.536
 6445WAT     H219578   8.924   4.292   6.590
 6446WAT      O19579   1.325   1.367   2.785
 6446WAT     H119580   1.263   1.318   2.724
 6446WAT     H219581   1.274   1.402   2.863
 6447WAT      O19582   3.413   0.464   0.786
 6447WAT     H119583   3.397   0.381   0.732
 6447WAT     H219584   3.326   0.509   0.804
 6448WAT      O19585   2.750   4.624   4.448
 6448WAT     H119586   2.668   4.575   4.479
 6448WAT     H219587   2.831   4.585   4.492
 6449WAT      O19588   1.093   7.067   3.224
 6449WAT     H119589   1.006   7.105   3.193
 6449WAT     H219590   1.157   7.063   3.147
 6450WAT      O19591   4.104   3.831   2.462
 6450WAT     H119592   4.185   3.884   2.436
 6450WAT     H219593   4.083   3.765   2.391
 6451WAT      O19594   5.301   8.795   8.528
 6451WAT     H119595   5.265   8.765   8.439
 6451WAT     H219596   5.400   8.808   8.521
 6452WAT      O19597   4.204   1.257   0.663
 6452WAT     H119598   4.215   1.163   0.630
 6452WAT     H219599   4.164   1.313   0.590
 6453WAT      O19600   8.282   1.321   7.337
 6453WAT     H119601   8.219   1.396   7.355
 6453WAT     H219602   8.246   1.237   7.380
 6454WAT      O19603   8.913   8.292   3.910
 6454WAT     H119604   8.908   8.277   4.008
 6454WAT     H219605   8.984   8.232   3.871
 6455WAT      O19606   6.489   1.964   9.651
 6455WAT     H119607   6.525   2.053   9.677
 6455WAT     H219608   6.558   1.894   9.667
 6456WAT      O19609   1.762   8.046   1.491
 6456WAT     H119610   1.712   7.996   1.562
 6456WAT     H219611   1.702   8.114   1.449
 6457WAT      O19612   6.129   1.152   3.701
 6457WAT     H119613   6.197   1.091   3.743
 6457WAT     H219614   6.075   1.101   3.634
 6458WAT      O19615   2.455   4.818   5.958
 6458WAT     H119616   2.422   4.808   5.864
 6458WAT     H219617   2.538   4.873   5.959
 6459WAT      O19618   8.505   1.178   0.718
 6459WAT     H119619   8.423   1.177   0.661
 6459WAT     H219620   8.586   1.192   0.661
 6460WAT      O19621   6.201   1.498   6.180
 6460WAT     H119622   6.223   1.408   6.218
 6460WAT     H219623   6.221   1.568   6.248
 6461WAT      O19624   6.379   4.699   2.269
 6461WAT     H119625   6.380   4.606   2.234
 6461WAT     H219626   6.467   4.721   2.311
 6462WAT      O19627   7.414   0.782   5.724
 6462WAT     H119628   7.328   0.765   5.675
 6462WAT     H219629   7.404   0.754   5.819
 6463WAT      O19630   4.014   4.830   5.123
 6463WAT     H119631   4.007   4.790   5.032
 6463WAT     H219632   4.108   4.823   5.155
 6464WAT      O19633   1.843   5.818   4.426
 6464WAT     H119634   1.920   5.763   4.458
 6464WAT     H219635   1.874   5.881   4.355
 6465WAT      O19636   9.584   3.095   4.865
 6465WAT     H119637   9.533   3.010   4.852
 6465WAT     H219638   9.682   3.076   4.865
 6466WAT      O19639   2.065   0.935   3.437
 6466WAT     H119640   2.163   0.937   3.455
 6466WAT     H219641   2.045   0.865   3.368
 6467WAT      O19642   8.168   4.893   4.222
 6467WAT     H119643   8.222   4.811   4.242
 6467WAT     H219644   8.097   4.870   4.156
 6468WAT      O19645   1.843   5.968   5.067
 6468WAT     H119646   1.783   6.007   4.996
 6468WAT     H219647   1.818   6.006   5.156
 6469WAT      O19648   9.137   6.530   4.035
 6469WAT     H119649   9.211   6.463   4.035
 6469WAT     H219650   9.049   6.483   4.033
 6470WAT      O19651   1.659   8.189   5.265
 6470WAT     H119652   1.593   8.261   5.245
 6470WAT     H219653   1.747   8.212   5.223
 6471WAT      O19654   5.788   4.998   1.950
 6471WAT     H119655   5.860   5.066   1.938
 6471WAT     H219656   5.744   4.979   1.861
 6472WAT      O19657   5.591   3.743   6.655
 6472WAT     H119658   5.505   3.777   6.694
 6472WAT     H219659   5.633   3.679   6.719
 6473WAT      O19660   0.969   5.656   0.578
 6473WAT     H119661   0.976   5.575   0.636
 6473WAT     H219662   1.037   5.651   0.505
 6474WAT      O19663   6.247   5.553   1.557
 6474WAT     H119664   6.187   5.591   1.627
 6474WAT     H219665   6.208   5.469   1.521
 6475WAT      O19666   8.384   8.785   9.546
 6475WAT     H119667   8.448   8.842   9.597
 6475WAT     H219668   8.414   8.779   9.450
 6476WAT      O19669   0.700   8.792   0.798
 6476WAT     H119670   0.732   8.819   0.889
 6476WAT     H219671   0.670   8.874   0.749
 6477WAT      O19672   4.195   7.180   3.848
 6477WAT     H119673   4.217   7.121   3.926
 6477WAT     H219674   4.168   7.124   3.770
 6478WAT      O19675   3.728   7.405   2.112
 6478WAT     H119676   3.633   7.419   2.083
 6478WAT     H219677   3.765   7.491   2.147
 6479WAT      O19678   5.673   8.121   0.265
 6479WAT     H119679   5.646   8.065   0.343
 6479WAT     H219680   5.594   8.172   0.232
 6480WAT      O19681   9.806   2.230   2.430
 6480WAT     H119682   9.904   2.234   2.409
 6480WAT     H219683   9.780   2.312   2.481
 6481WAT      O19684   8.564   0.081   3.026
 6481WAT     H119685   8.489   0.119   2.973
 6481WAT     H219686   8.543  -0.014   3.050
 6482WAT      O19687   1.174   3.746   5.718
 6482WAT     H119688   1.249   3.715   5.659
 6482WAT     H219689   1.203   3.828   5.767
 6483WAT      O19690   3.516   3.110   0.746
 6483WAT     H119691   3.568   3.070   0.821
 6483WAT     H219692   3.418   3.103   0.766
 6484WAT      O19693   5.225   7.175   1.550
 6484WAT     H119694   5.248   7.080   1.531
 6484WAT     H219695   5.137   7.179   1.598
 6485WAT      O19696   9.798   0.579   6.480
 6485WAT     H119697   9.751   0.491   6.472
 6485WAT     H219698   9.884   0.566   6.529
 6486WAT      O19699   2.777   4.242   1.360
 6486WAT     H119700   2.695   4.227   1.416
 6486WAT     H219701   2.759   4.214   1.266
 6487WAT      O19702   5.860   5.080   8.217
 6487WAT     H119703   5.809   5.035   8.144
 6487WAT     H219704   5.845   5.032   8.303
 6488WAT      O19705   0.165   7.766   8.666
 6488WAT     H119706   0.157   7.696   8.595
 6488WAT     H219707   0.248   7.820   8.651
 6489WAT      O19708   5.755   8.187   9.623
 6489WAT     H119709   5.844   8.214   9.660
 6489WAT     H219710   5.724   8.257   9.558
 6490WAT      O19711   4.678   8.847   3.989
 6490WAT     H119712   4.670   8.937   3.946
 6490WAT     H219713   4.596   8.829   4.044
 6491WAT      O19714   3.163   5.862   6.564
 6491WAT     H119715   3.217   5.946   6.558
 6491WAT     H219716   3.146   5.840   6.660
 6492WAT      O19717   6.281   8.115   6.867
 6492WAT     H119718   6.340   8.099   6.947
 6492WAT     H219719   6.190   8.078   6.885
 6493WAT      O19720   0.868   8.252   2.986
 6493WAT     H119721   0.898   8.187   2.916
 6493WAT     H219722   0.947   8.286   3.036
 6494WAT      O19723   5.378   0.928   3.408
 6494WAT     H119724   5.280   0.912   3.396
 6494WAT     H219725   5.396   1.026   3.401
 6495WAT      O19726   0.911   1.347   2.369
 6495WAT     H119727   0.881   1.374   2.278
 6495WAT     H219728   0.923   1.429   2.426
 6496WAT      O19729   0.651   8.782   5.127
 6496WAT     H119730   0.700   8.712   5.075
 6496WAT     H219731   0.689   8.872   5.105
 6497WAT      O19732   8.327   0.227   5.731
 6497WAT     H119733   8.298   0.172   5.653
 6497WAT     H219734   8.424   0.210   5.750
 6498WAT      O19735   0.587   7.780   4.674
 6498WAT     H119736   0.686   7.788   4.679
 6498WAT     H219737   0.549   7.861   4.631
 6499WAT      O19738   8.557   6.890   1.461
 6499WAT     H119739   8.570   6.809   1.519
 6499WAT     H219740   8.533   6.968   1.518
 6500WAT      O19741   6.386   8.972   3.326
 6500WAT     H119742   6.308   8.929   3.371
 6500WAT     H219743   6.359   9.004   3.235
 6501WAT      O19744   6.767   6.857   0.113
 6501WAT     H119745   6.801   6.773   0.157
 6501WAT     H219746   6.844   6.917   0.091
 6502WAT      O19747   2.072   0.212   6.588
 6502WAT     H119748   2.089   0.190   6.492
 6502WAT     H219749   2.061   0.311   6.598
 6503WAT      O19750   9.343   5.938   2.567
 6503WAT     H119751   9.256   5.978   2.538
 6503WAT     H219752   9.419   5.994   2.533
 6504WAT      O19753   9.572   3.351   9.102
 6504WAT     H119754   9.628   3.397   9.170
 6504WAT     H219755   9.630   3.317   9.028
 6505WAT      O19756   5.331   6.920   1.468
 6505WAT     H119757   5.393   6.957   1.398
 6505WAT     H219758   5.267   6.856   1.425
 6506WAT      O19759   2.315   4.290   0.356
 6506WAT     H119760   2.337   4.386   0.371
 6506WAT     H219761   2.258   4.281   0.274
 6507WAT      O19762   9.277   8.841   6.976
 6507WAT     H119763   9.205   8.864   7.042
 6507WAT     H219764   9.252   8.877   6.887
 6508WAT      O19765   4.437   1.108   5.066
 6508WAT     H119766   4.482   1.147   5.145
 6508WAT     H219767   4.475   1.017   5.047
 6509WAT      O19768   9.032   5.213   3.581
 6509WAT     H119769   9.008   5.236   3.676
 6509WAT     H219770   9.094   5.134   3.581
 6510WAT      O19771   5.386   8.665   1.214
 6510WAT     H119772   5.437   8.706   1.138
 6510WAT     H219773   5.341   8.581   1.182
 6511WAT      O19774   1.499   1.281   6.404
 6511WAT     H119775   1.532   1.262   6.311
 6511WAT     H219776   1.532   1.370   6.433
 6512WAT      O19777   6.012   5.616   7.585
 6512WAT     H119778   6.034   5.710   7.608
 6512WAT     H219779   6.072   5.554   7.637
 6513WAT      O19780   5.106   5.081   8.517
 6513WAT     H119781   5.024   5.125   8.552
 6513WAT     H219782   5.176   5.078   8.588
 6514WAT      O19783   7.776   0.792   3.236
 6514WAT     H119784   7.738   0.786   3.144
 6514WAT     H219785   7.724   0.860   3.289
 6515WAT      O19786   5.296   1.302   6.617
 6515WAT     H119787   5.379   1.356   6.599
 6515WAT     H219788   5.238   1.302   6.535
 6516WAT      O19789   2.686   1.506   7.963
 6516WAT     H119790   2.699   1.487   8.060
 6516WAT     H219791   2.745   1.583   7.936
 6517WAT      O19792   5.025   5.417   9.656
 6517WAT     H119793   5.009   5.319   9.673
 6517WAT     H219794   5.012   5.468   9.741
 6518WAT      O19795   2.488   9.516   4.931
 6518WAT     H119796   2.413   9.518   4.997
 6518WAT     H219797   2.556   9.449   4.959
 6519WAT      O19798   6.398   1.060   1.602
 6519WAT     H119799   6.439   1.016   1.521
 6519WAT     H219800   6.447   1.032   1.684
 6520WAT      O19801   4.731   5.623   4.334
 6520WAT     H119802   4.827   5.611   4.308
 6520WAT     H219803   4.673   5.608   4.254
 6521WAT      O19804   5.862   4.795   1.224
 6521WAT     H119805   5.834   4.725   1.158
 6521WAT     H219806   5.781   4.831   1.271
 6522WAT      O19807   2.640   3.444   7.688
 6522WAT     H119808   2.689   3.531   7.685
 6522WAT     H219809   2.642   3.401   7.598
 6523WAT      O19810   1.801   6.837   6.033
 6523WAT     H119811   1.707   6.867   6.050
 6523WAT     H219812   1.828   6.769   6.101
 6524WAT      O19813   2.500   0.519   1.535
 6524WAT     H119814   2.537   0.582   1.604
 6524WAT     H219815   2.418   0.475   1.572
 6525WAT      O19816   2.404   4.602   7.621
 6525WAT     H119817   2.422   4.528   7.685
 6525WAT     H219818   2.483   4.615   7.561
 6526WAT      O19819   3.766   6.686   3.304
 6526WAT     H119820   3.854   6.711   3.264
 6526WAT     H219821   3.772   6.685   3.403
 6527WAT      O19822   3.077   5.473   8.202
 6527WAT     H119823   3.034   5.426   8.126
 6527WAT     H219824   3.024   5.555   8.225
 6528WAT      O19825   8.056   3.668   4.788
 6528WAT     H119826   8.021   3.643   4.878
 6528WAT     H219827   8.141   3.719   4.799
 6529WAT      O19828   9.171   6.021   7.748
 6529WAT     H119829   9.140   6.116   7.743
 6529WAT     H219830   9.230   6.009   7.828
 6530WAT      O19831   9.048   1.996   2.008
 6530WAT     H119832   9.012   2.020   1.918
 6530WAT     H219833   9.023   1.902   2.030
 6531WAT      O19834   4.577   1.624   0.641
 6531WAT     H119835   4.619   1.676   0.716
 6531WAT     H219836   4.541   1.538   0.677
 6532WAT      O19837   8.402   0.726   9.118
 6532WAT     H119838   8.329   0.749   9.181
 6532WAT     H219839   8.415   0.627   9.116
 6533WAT      O19840   9.458   4.794   6.118
 6533WAT     H119841   9.523   4.720   6.133
 6533WAT     H219842   9.484   4.873   6.174
 6534WAT      O19843   7.164   4.685   4.048
 6534WAT     H119844   7.085   4.693   4.108
 6534WAT     H219845   7.198   4.591   4.049
 6535WAT      O19846   9.859   4.294   9.617
 6535WAT     H119847   9.952   4.331   9.616
 6535WAT     H219848   9.795   4.367   9.643
 6536WAT      O19849   7.738   4.108   1.375
 6536WAT     H119850   7.764   4.199   1.409
 6536WAT     H219851   7.674   4.118   1.299
 6537WAT      O19852   9.589   8.165   6.377
 6537WAT     H119853   9.519   8.197   6.313
 6537WAT     H219854   9.679   8.184   6.340
 6538WAT      O19855   0.959   2.448   8.564
 6538WAT     H119856   1.033   2.416   8.505
 6538WAT     H219857   0.960   2.397   8.650
 6539WAT      O19858   1.199   7.378   7.342
 6539WAT     H119859   1.276   7.351   7.284
 6539WAT     H219860   1.126   7.309   7.333
 6540WAT      O19861   9.386   2.996   3.618
 6540WAT     H119862   9.351   3.073   3.671
 6540WAT     H219863   9.454   3.028   3.552
 6541WAT      O19864   4.591   2.970   2.898
 6541WAT     H119865   4.603   2.928   2.988
 6541WAT     H219866   4.505   3.021   2.896
 6542WAT      O19867   8.485   7.377   2.480
 6542WAT     H119868   8.457   7.285   2.454
 6542WAT     H219869   8.515   7.427   2.399
 6543WAT      O19870   9.786   8.872   3.507
 6543WAT     H119871   9.695   8.894   3.544
 6543WAT     H219872   9.846   8.950   3.520
 6544WAT      O19873   6.449   6.433   5.648
 6544WAT     H119874   6.520   6.408   5.714
 6544WAT     H219875   6.377   6.484   5.695
 6545WAT      O19876   2.973   7.269   4.740
 6545WAT     H119877   2.960   7.282   4.642
 6545WAT     H219878   3.052   7.210   4.756
 6546WAT      O19879   2.067   6.030   8.741
 6546WAT     H119880   1.977   6.026   8.699
 6546WAT     H219881   2.060   6.012   8.839
 6547WAT      O19882   0.549   6.429   5.053
 6547WAT     H119883   0.624   6.385   5.004
 6547WAT     H219884   0.511   6.364   5.120
 6548WAT      O19885   7.428   2.192   6.741
 6548WAT     H119886   7.497   2.125   6.767
 6548WAT     H219887   7.363   2.151   6.677
 6549WAT      O19888   1.603   1.595   1.072
 6549WAT     H119889   1.607   1.564   0.977
 6549WAT     H219890   1.592   1.695   1.074
 6550WAT      O19891   3.270   7.412   0.115
 6550WAT     H119892   3.199   7.481   0.130
 6550WAT     H219893   3.298   7.374   0.203
 6551WAT      O19894   1.534   6.654   7.113
 6551WAT     H119895   1.569   6.561   7.127
 6551WAT     H219896   1.606   6.720   7.135
 6552WAT      O19897   2.579   9.642   6.709
 6552WAT     H119898   2.524   9.580   6.763
 6552WAT     H219899   2.586   9.608   6.615
 6553WAT      O19900   8.699   4.142   8.270
 6553WAT     H119901   8.642   4.081   8.214
 6553WAT     H219902   8.720   4.225   8.218
 6554WAT      O19903   2.795   4.409   1.090
 6554WAT     H119904   2.812   4.418   0.992
 6554WAT     H219905   2.722   4.342   1.104
 6555WAT      O19906   2.850   5.560   6.121
 6555WAT     H119907   2.792   5.614   6.182
 6555WAT     H219908   2.859   5.467   6.157
 6556WAT      O19909   2.477   4.086   6.026
 6556WAT     H119910   2.498   4.179   5.996
 6556WAT     H219911   2.458   4.029   5.947
 6557WAT      O19912   2.803   7.425   1.975
 6557WAT     H119913   2.842   7.515   1.995
 6557WAT     H219914   2.759   7.428   1.885
 6558WAT      O19915   0.518   9.163   5.156
 6558WAT     H119916   0.506   9.144   5.254
 6558WAT     H219917   0.594   9.109   5.121
 6559WAT      O19918   8.857   2.287   1.054
 6559WAT     H119919   8.874   2.251   1.146
 6559WAT     H219920   8.758   2.300   1.041
 6560WAT      O19921   6.593   1.001   5.472
 6560WAT     H119922   6.542   1.077   5.431
 6560WAT     H219923   6.580   1.002   5.571
 6561WAT      O19924   7.962   3.083   5.064
 6561WAT     H119925   8.023   3.095   5.143
 6561WAT     H219926   8.009   3.028   4.995
 6562WAT      O19927   3.704   4.772   7.968
 6562WAT     H119928   3.764   4.844   8.003
 6562WAT     H219929   3.635   4.813   7.908
 6563WAT      O19930   9.831   4.638   1.234
 6563WAT     H119931   9.930   4.644   1.244
 6563WAT     H219932   9.791   4.606   1.320
 6564WAT      O19933   1.831   1.401   8.057
 6564WAT     H119934   1.913   1.430   8.108
 6564WAT     H219935   1.760   1.470   8.069
 6565WAT      O19936   4.642   4.641   8.502
 6565WAT     H119937   4.666   4.647   8.598
 6565WAT     H219938   4.549   4.604   8.493
 6566WAT      O19939   2.836   0.970   2.790
 6566WAT     H119940   2.799   0.947   2.881
 6566WAT     H219941   2.929   0.934   2.782
 6567WAT      O19942   5.704   9.149   9.285
 6567WAT     H119943   5.744   9.119   9.372
 6567WAT     H219944   5.748   9.234   9.255
 6568WAT      O19945   3.904   0.161   3.267
 6568WAT     H119946   3.889   0.063   3.277
 6568WAT     H219947   3.991   0.186   3.309
 6569WAT      O19948   9.862   7.909   9.090
 6569WAT     H119949   9.904   7.824   9.119
 6569WAT     H219950   9.801   7.943   9.162
 6570WAT      O19951   3.755   9.647   5.470
 6570WAT     H119952   3.776   9.568   5.528
 6570WAT     H219953   3.670   9.689   5.501
 6571WAT      O19954   5.761   0.494   2.192
 6571WAT     H119955   5.722   0.530   2.276
 6571WAT     H219956   5.850   0.537   2.176
 6572WAT      O19957   3.731   7.947   3.079
 6572WAT     H119958   3.691   7.933   3.170
 6572WAT     H219959   3.824   7.911   3.077
 6573WAT      O19960   8.383   0.225   8.994
 6573WAT     H119961   8.402   0.248   8.899
 6573WAT     H219962   8.396   0.127   9.008
 6574WAT      O19963   0.328   3.847   6.293
 6574WAT     H119964   0.285   3.933   6.264
 6574WAT     H219965   0.387   3.864   6.371
 6575WAT      O19966   9.497   4.337   4.979
 6575WAT     H119967   9.588   4.322   4.938
 6575WAT     H219968   9.462   4.250   5.014
 6576WAT      O19969   1.024   4.722   6.877
 6576WAT     H119970   1.067   4.669   6.950
 6576WAT     H219971   0.982   4.804   6.916
 6577WAT      O19972   8.389   9.246   9.750
 6577WAT     H119973   8.343   9.278   9.668
 6577WAT     H219974   8.460   9.311   9.776
 6578WAT      O19975   0.984   9.808   8.112
 6578WAT     H119976   0.896   9.801   8.160
 6578WAT     H219977   1.037   9.883   8.152
 6579WAT      O19978   2.780   1.849   2.170
 6579WAT     H119979   2.876   1.872   2.184
 6579WAT     H219980   2.738   1.917   2.109
 6580WAT      O19981   3.509   0.805   4.406
 6580WAT     H119982   3.466   0.870   4.468
 6580WAT     H219983   3.509   0.842   4.313
 6581WAT      O19984   4.939   5.351   4.575
 6581WAT     H119985   4.892   5.409   4.642
 6581WAT     H219986   4.986   5.408   4.508
 6582WAT      O19987   3.101   5.894   8.250
 6582WAT     H119988   3.027   5.870   8.313
 6582WAT     H219989   3.063   5.913   8.159
 6583WAT      O19990   3.696   2.649   9.545
 6583WAT     H119991   3.742   2.560   9.552
 6583WAT     H219992   3.755   2.715   9.499
 6584WAT      O19993   4.564   2.102   6.931
 6584WAT     H119994   4.565   2.153   7.017
 6584WAT     H219995   4.469   2.079   6.907
 6585WAT      O19996   7.167   9.072   3.682
 6585WAT     H119997   7.144   9.099   3.775
 6585WAT     H219998   7.182   8.973   3.678
 6586WAT      O19999   6.415   4.279   6.089
 6586WAT     H120000   6.515   4.272   6.093
 6586WAT     H220001   6.385   4.361   6.138
 6587WAT      O20002   1.140   6.893   4.841
 6587WAT     H120003   1.060   6.833   4.835
 6587WAT     H220004   1.163   6.926   4.750
 6588WAT      O20005   8.718   5.095   2.635
 6588WAT     H120006   8.705   5.119   2.539
 6588WAT     H220007   8.813   5.065   2.649
 6589WAT      O20008   5.547   9.659   4.569
 6589WAT     H120009   5.609   9.677   4.645
 6589WAT     H220010   5.600   9.626   4.491
 6590WAT      O20011   8.759   2.745   3.377
 6590WAT     H120012   8.662   2.723   3.385
 6590WAT     H220013   8.811   2.662   3.361
 6591WAT      O20014   5.916   3.198   4.033
 6591WAT     H120015   5.967   3.245   4.105
 6591WAT     H220016   5.835   3.154   4.073
 6592WAT      O20017   0.953   1.364   4.743
 6592WAT     H120018   0.858   1.374   4.715
 6592WAT     H220019   0.987   1.451   4.778
 6593WAT      O20020   1.745   9.396   0.984
 6593WAT     H120021   1.755   9.456   0.905
 6593WAT     H220022   1.726   9.303   0.952
 6594WAT      O20023   8.214   4.874   7.831
 6594WAT     H120024   8.181   4.830   7.748
 6594WAT     H220025   8.250   4.805   7.895
 6595WAT      O20026   1.213   4.797   9.161
 6595WAT     H120027   1.263   4.883   9.169
 6595WAT     H220028   1.117   4.813   9.184
 6596WAT      O20029   4.160   5.135   1.678
 6596WAT     H120030   4.121   5.159   1.767
 6596WAT     H220031   4.213   5.212   1.642
 6597WAT      O20032   8.103   8.475   9.333
 6597WAT     H120033   8.102   8.571   9.362
 6597WAT     H220034   8.153   8.466   9.247
 6598WAT      O20035   4.615   4.720   6.262
 6598WAT     H120036   4.595   4.814   6.288
 6598WAT     H220037   4.675   4.719   6.183
 6599WAT      O20038   9.843   0.056   7.597
 6599WAT     H120039   9.913   0.010   7.651
 6599WAT     H220040   9.781  -0.011   7.557
 6600WAT      O20041   8.960   6.493   1.467
 6600WAT     H120042   8.894   6.438   1.518
 6600WAT     H220043   9.046   6.497   1.516
 6601WAT      O20044   4.951   9.760   0.412
 6601WAT     H120045   4.868   9.739   0.362
 6601WAT     H220046   5.030   9.748   0.352
 6602WAT      O20047   9.516   3.270   5.382
 6602WAT     H120048   9.549   3.261   5.288
 6602WAT     H220049   9.454   3.348   5.388
 6603WAT      O20050   9.374   2.113   3.267
 6603WAT     H120051   9.382   2.063   3.354
 6603WAT     H220052   9.278   2.134   3.249
 6604WAT      O20053   5.074   0.872   4.575
 6604WAT     H120054   5.162   0.903   4.612
 6604WAT     H220055   5.002   0.891   4.641
 6605WAT      O20056   3.959   2.222   3.963
 6605WAT     H120057   3.884   2.288   3.973
 6605WAT     H220058   4.040   2.257   4.011
 6606WAT      O20059   4.842   9.088   3.726
 6606WAT     H120060   4.772   9.033   3.681
 6606WAT     H220061   4.804   9.128   3.810
 6607WAT      O20062   0.653   9.158   2.723
 6607WAT     H120063   0.706   9.084   2.765
 6607WAT     H220064   0.558   9.154   2.755
 6608WAT      O20065   3.565   0.747   8.872
 6608WAT     H120066   3.586   0.699   8.787
 6608WAT     H220067   3.499   0.820   8.854
 6609WAT      O20068   8.025   0.292   8.224
 6609WAT     H120069   8.047   0.384   8.193
 6609WAT     H220070   8.060   0.225   8.158
 6610WAT      O20071   1.111   2.274   9.301
 6610WAT     H120072   1.116   2.186   9.348
 6610WAT     H220073   1.066   2.261   9.213
 6611WAT      O20074   3.362   1.454   0.795
 6611WAT     H120075   3.296   1.417   0.730
 6611WAT     H220076   3.414   1.527   0.752
 6612WAT      O20077   4.898   4.313   2.831
 6612WAT     H120078   4.985   4.352   2.802
 6612WAT     H220079   4.824   4.376   2.806
 6613WAT      O20080   1.636   3.817   8.135
 6613WAT     H120081   1.672   3.724   8.149
 6613WAT     H220082   1.562   3.814   8.068
 6614WAT      O20083   0.626   8.528   4.589
 6614WAT     H120084   0.672   8.573   4.513
 6614WAT     H220085   0.533   8.505   4.563
 6615WAT      O20086   5.529   3.358   3.828
 6615WAT     H120087   5.478   3.400   3.903
 6615WAT     H220088   5.626   3.353   3.852
 6616WAT      O20089   1.497   8.564   5.729
 6616WAT     H120090   1.463   8.591   5.638
 6616WAT     H220091   1.482   8.638   5.794
 6617WAT      O20092   5.195   6.967   4.112
 6617WAT     H120093   5.196   6.938   4.207
 6617WAT     H220094   5.280   7.014   4.090
 6618WAT      O20095   0.185   9.153   8.562
 6618WAT     H120096   0.116   9.108   8.618
 6618WAT     H220097   0.149   9.166   8.469
 6619WAT      O20098   9.547   0.622   1.083
 6619WAT     H120099   9.524   0.703   1.029
 6619WAT     H220100   9.463   0.576   1.111
 6620WAT      O20101   8.022   0.677   3.363
 6620WAT     H120102   8.030   0.590   3.315
 6620WAT     H220103   7.944   0.728   3.326
 6621WAT      O20104   6.646   3.727   2.471
 6621WAT     H120105   6.746   3.729   2.458
 6621WAT     H220106   6.607   3.653   2.417
 6622WAT      O20107   9.033   6.579   1.803
 6622WAT     H120108   9.090   6.553   1.725
 6622WAT     H220109   9.090   6.587   1.885
 6623WAT      O20110   7.416   8.647   5.507
 6623WAT     H120111   7.487   8.717   5.507
 6623WAT     H220112   7.457   8.556   5.514
 6624WAT      O20113   0.308   1.168   1.309
 6624WAT     H120114   0.324   1.085   1.363
 6624WAT     H220115   0.341   1.154   1.216
 6625WAT      O20116   9.747   8.780   2.481
 6625WAT     H120117   9.721   8.780   2.577
 6625WAT     H220118   9.702   8.704   2.434
 6626WAT      O20119   7.101   4.060   6.909
 6626WAT     H120120   7.007   4.064   6.873
 6626WAT     H220121   7.112   4.132   6.978
 6627WAT      O20122   4.301   1.511   1.164
 6627WAT     H120123   4.294   1.440   1.094
 6627WAT     H220124   4.384   1.496   1.219
 6628WAT      O20125   4.285   4.526   4.610
 6628WAT     H120126   4.279   4.426   4.613
 6628WAT     H220127   4.349   4.553   4.538
 6629WAT      O20128   1.883   3.800   9.550
 6629WAT     H120129   1.932   3.871   9.600
 6629WAT     H220130   1.934   3.775   9.467
 6630WAT      O20131   9.802   5.564   9.834
 6630WAT     H120132   9.799   5.522   9.743
 6630WAT     H220133   9.717   5.546   9.882
 6631WAT      O20134   3.882   9.277   2.209
 6631WAT     H120135   3.888   9.281   2.109
 6631WAT     H220136   3.823   9.201   2.235
 6632WAT      O20137   7.777   3.950   4.243
 6632WAT     H120138   7.755   3.876   4.306
 6632WAT     H220139   7.693   3.996   4.214
 6633WAT      O20140   0.702   4.868   6.311
 6633WAT     H120141   0.780   4.930   6.312
 6633WAT     H220142   0.644   4.889   6.232
 6634WAT      O20143   7.582   5.275   5.219
 6634WAT     H120144   7.506   5.285   5.154
 6634WAT     H220145   7.655   5.340   5.196
 6635WAT      O20146   5.864   3.039   2.846
 6635WAT     H120147   5.807   3.068   2.923
 6635WAT     H220148   5.840   3.091   2.764
 6636WAT      O20149   7.551   4.683   8.160
 6636WAT     H120150   7.529   4.771   8.203
 6636WAT     H220151   7.647   4.683   8.133
 6637WAT      O20152   2.617   5.564   9.644
 6637WAT     H120153   2.591   5.571   9.740
 6637WAT     H220154   2.544   5.519   9.593
 6638WAT      O20155   5.216   2.312   9.010
 6638WAT     H120156   5.167   2.397   9.031
 6638WAT     H220157   5.252   2.316   8.917
 6639WAT      O20158   4.005   1.802   6.428
 6639WAT     H120159   4.105   1.807   6.419
 6639WAT     H220160   3.979   1.830   6.520
 6640WAT      O20161   3.656   7.606   6.855
 6640WAT     H120162   3.571   7.596   6.907
 6640WAT     H220163   3.661   7.699   6.818
 6641WAT      O20164   6.710   1.183   3.984
 6641WAT     H120165   6.760   1.143   4.060
 6641WAT     H220166   6.677   1.274   4.010
 6642WAT      O20167   2.498   4.696   0.970
 6642WAT     H120168   2.511   4.712   1.068
 6642WAT     H220169   2.556   4.621   0.941
 6643WAT      O20170   7.405   7.415   3.692
 6643WAT     H120171   7.475   7.365   3.642
 6643WAT     H220172   7.370   7.489   3.635
 6644WAT      O20173   1.141   1.291   1.817
 6644WAT     H120174   1.225   1.252   1.779
 6644WAT     H220175   1.136   1.271   1.915
 6645WAT      O20176   8.359   7.348   4.549
 6645WAT     H120177   8.268   7.355   4.589
 6645WAT     H220178   8.402   7.438   4.546
 6646WAT      O20179   0.411   2.312   7.866
 6646WAT     H120180   0.490   2.254   7.851
 6646WAT     H220181   0.441   2.405   7.887
 6647WAT      O20182   6.823   5.451   2.655
 6647WAT     H120183   6.820   5.449   2.555
 6647WAT     H220184   6.911   5.414   2.687
 6648WAT      O20185   5.754   8.391   1.212
 6648WAT     H120186   5.853   8.391   1.199
 6648WAT     H220187   5.709   8.352   1.132
 6649WAT      O20188   0.644   7.444   9.049
 6649WAT     H120189   0.641   7.363   9.107
 6649WAT     H220190   0.561   7.447   8.993
 6650WAT      O20191   5.947   0.585   1.181
 6650WAT     H120192   6.012   0.509   1.186
 6650WAT     H220193   5.990   0.663   1.136
 6651WAT      O20194   0.326   7.422   6.512
 6651WAT     H120195   0.284   7.434   6.422
 6651WAT     H220196   0.409   7.367   6.503
 6652WAT      O20197   0.622   5.128   2.248
 6652WAT     H120198   0.570   5.100   2.167
 6652WAT     H220199   0.569   5.194   2.300
 6653WAT      O20200   1.413   7.890   2.803
 6653WAT     H120201   1.473   7.924   2.731
 6653WAT     H220202   1.393   7.793   2.786
 6654WAT      O20203   4.671   8.646   9.131
 6654WAT     H120204   4.623   8.713   9.074
 6654WAT     H220205   4.645   8.553   9.103
 6655WAT      O20206   5.007   3.636   8.639
 6655WAT     H120207   4.912   3.617   8.666
 6655WAT     H220208   5.029   3.731   8.660
 6656WAT      O20209   4.264   2.013   2.165
 6656WAT     H120210   4.173   2.031   2.201
 6656WAT     H220211   4.299   2.094   2.118
 6657WAT      O20212   0.933   9.154   5.226
 6657WAT     H120213   0.862   9.108   5.280
 6657WAT     H220214   0.951   9.244   5.265
 6658WAT      O20215   7.982   0.981   0.506
 6658WAT     H120216   7.906   0.917   0.517
 6658WAT     H220217   8.068   0.935   0.530
 6659WAT      O20218   5.165   9.599   6.410
 6659WAT     H120219   5.235   9.602   6.339
 6659WAT     H220220   5.180   9.675   6.474
 6660WAT      O20221   9.405   2.175   2.038
 6660WAT     H120222   9.392   2.085   1.996
 6660WAT     H220223   9.388   2.246   1.970
 6661WAT      O20224   7.328   9.142   6.722
 6661WAT     H120225   7.388   9.169   6.798
 6661WAT     H220226   7.253   9.207   6.714
 6662WAT      O20227   5.870   4.791   1.628
 6662WAT     H120228   5.793   4.774   1.566
 6662WAT     H220229   5.941   4.841   1.579
 6663WAT      O20230   9.057   4.657   8.713
 6663WAT     H120231   9.068   4.674   8.615
 6663WAT     H220232   9.088   4.564   8.734
 6664WAT      O20233   3.854   2.418   6.540
 6664WAT     H120234   3.931   2.452   6.488
 6664WAT     H220235   3.886   2.353   6.609
 6665WAT      O20236   7.389   6.462   6.008
 6665WAT     H120237   7.403   6.368   5.979
 6665WAT     H220238   7.434   6.478   6.096
 6666WAT      O20239   0.449   5.063   2.003
 6666WAT     H120240   0.352   5.088   1.996
 6666WAT     H220241   0.458   4.963   1.999
 6667WAT      O20242   9.556   6.060   2.465
 6667WAT     H120243   9.517   6.126   2.401
 6667WAT     H220244   9.656   6.071   2.467
 6668WAT      O20245   6.344   9.642   0.026
 6668WAT     H120246   6.259   9.594   0.007
 6668WAT     H220247   6.334   9.696   0.110
 6669WAT      O20248   7.779   5.424   8.977
 6669WAT     H120249   7.764   5.343   8.921
 6669WAT     H220250   7.730   5.502   8.937
 6670WAT      O20251   8.042   5.163   2.998
 6670WAT     H120252   8.030   5.114   2.911
 6670WAT     H220253   8.117   5.228   2.990
 6671WAT      O20254   5.781   5.797   4.940
 6671WAT     H120255   5.826   5.874   4.896
 6671WAT     H220256   5.734   5.742   4.870
 6672WAT      O20257   6.305   5.044   5.692
 6672WAT     H120258   6.404   5.053   5.684
 6672WAT     H220259   6.281   4.947   5.705
 6673WAT      O20260   6.672   1.003   2.621
 6673WAT     H120261   6.687   0.933   2.690
 6673WAT     H220262   6.703   0.970   2.532
 6674WAT      O20263   5.799   5.727   2.711
 6674WAT     H120264   5.799   5.793   2.786
 6674WAT     H220265   5.894   5.707   2.684
 6675WAT      O20266   7.356   4.362   4.912
 6675WAT     H120267   7.398   4.451   4.893
 6675WAT     H220268   7.427   4.291   4.910
 6676WAT      O20269   0.203   8.216   9.896
 6676WAT     H120270   0.122   8.166   9.928
 6676WAT     H220271   0.219   8.195   9.800
 6677WAT      O20272   7.313   7.987   6.474
 6677WAT     H120273   7.390   8.029   6.425
 6677WAT     H220274   7.283   7.905   6.425
 6678WAT      O20275   3.740   1.703   6.313
 6678WAT     H120276   3.724   1.611   6.278
 6678WAT     H220277   3.838   1.718   6.325
 6679WAT      O20278   4.086   3.174   3.329
 6679WAT     H120279   4.039   3.105   3.274
 6679WAT     H220280   4.020   3.242   3.359
 6680WAT      O20281   0.144   4.248   3.530
 6680WAT     H120282   0.118   4.345   3.536
 6680WAT     H220283   0.091   4.196   3.598
 6681WAT      O20284   2.802   0.667   6.029
 6681WAT     H120285   2.765   0.613   5.952
 6681WAT     H220286   2.856   0.743   5.993
 6682WAT      O20287   3.496   1.537   1.640
 6682WAT     H120288   3.480   1.440   1.659
 6682WAT     H220289   3.515   1.549   1.542
 6683WAT      O20290   8.443   5.726   5.200
 6683WAT     H120291   8.349   5.759   5.206
 6683WAT     H220292   8.477   5.706   5.291
 6684WAT      O20293   0.657   2.974   5.659
 6684WAT     H120294   0.676   2.928   5.572
 6684WAT     H220295   0.685   2.916   5.735
 6685WAT      O20296   2.762   8.847   4.907
 6685WAT     H120297   2.696   8.772   4.899
 6685WAT     H220298   2.792   8.874   4.816
 6686WAT      O20299   4.625   4.025   6.720
 6686WAT     H120300   4.608   4.086   6.643
 6686WAT     H220301   4.675   3.944   6.689
 6687WAT      O20302   4.476   8.479   0.824
 6687WAT     H120303   4.440   8.559   0.777
 6687WAT     H220304   4.575   8.487   0.833
 6688WAT      O20305   6.455   9.402   7.169
 6688WAT     H120306   6.376   9.437   7.119
 6688WAT     H220307   6.521   9.364   7.105
 6689WAT      O20308   1.133   5.162   6.163
 6689WAT     H120309   1.094   5.229   6.226
 6689WAT     H220310   1.225   5.137   6.194
 6690WAT      O20311   2.377   0.502   0.028
 6690WAT     H120312   2.415   0.577   0.081
 6690WAT     H220313   2.371   0.420   0.085
 6691WAT      O20314   3.657   1.707   0.947
 6691WAT     H120315   3.579   1.755   0.988
 6691WAT     H220316   3.702   1.653   1.017
 6692WAT      O20317   6.659   0.919   0.878
 6692WAT     H120318   6.672   0.979   0.957
 6692WAT     H220319   6.623   0.831   0.908
 6693WAT      O20320   3.958   3.748   4.589
 6693WAT     H120321   3.867   3.772   4.553
 6693WAT     H220322   3.977   3.803   4.670
 6694WAT      O20323   8.692   1.111   5.877
 6694WAT     H120324   8.754   1.129   5.800
 6694WAT     H220325   8.730   1.152   5.960
 6695WAT      O20326   3.213   6.431   8.823
 6695WAT     H120327   3.163   6.405   8.906
 6695WAT     H220328   3.177   6.517   8.788
 6696WAT      O20329   4.224   7.998   8.298
 6696WAT     H120330   4.174   7.911   8.300
 6696WAT     H220331   4.319   7.981   8.271
 6697WAT      O20332   6.780   5.819   3.561
 6697WAT     H120333   6.834   5.782   3.636
 6697WAT     H220334   6.840   5.865   3.496
 6698WAT      O20335   7.395   0.354   6.381
 6698WAT     H120336   7.309   0.380   6.336
 6698WAT     H220337   7.376   0.296   6.459
 6699WAT      O20338   6.964   1.999   1.777
 6699WAT     H120339   6.913   1.991   1.691
 6699WAT     H220340   6.930   1.931   1.842
 6700WAT      O20341   5.117   8.189   5.393
 6700WAT     H120342   5.161   8.264   5.442
 6700WAT     H220343   5.169   8.168   5.310
 6701WAT      O20344   3.106   7.015   3.827
 6701WAT     H120345   3.046   7.081   3.870
 6701WAT     H220346   3.180   6.991   3.889
 6702WAT      O20347   5.583   0.563   4.055
 6702WAT     H120348   5.577   0.517   4.144
 6702WAT     H220349   5.526   0.515   3.989
 6703WAT      O20350   0.093   5.012   9.106
 6703WAT     H120351  -0.006   5.003   9.094
 6703WAT     H220352   0.126   5.092   9.057
 6704WAT      O20353   6.327   5.931   3.034
 6704WAT     H120354   6.334   6.029   3.050
 6704WAT     H220355   6.368   5.882   3.111
 6705WAT      O20356   4.572   9.215   7.853
 6705WAT     H120357   4.477   9.242   7.838
 6705WAT     H220358   4.601   9.245   7.944
 6706WAT      O20359   8.987   6.173   4.932
 6706WAT     H120360   8.956   6.253   4.880
 6706WAT     H220361   8.908   6.128   4.975
 6707WAT      O20362   1.932   1.000   4.751
 6707WAT     H120363   1.917   1.075   4.688
 6707WAT     H220364   1.980   0.925   4.704
 6708WAT      O20365   5.814   0.748   2.880
 6708WAT     H120366   5.753   0.717   2.953
 6708WAT     H220367   5.775   0.722   2.792
 6709WAT      O20368   5.128   6.301   8.134
 6709WAT     H120369   5.091   6.361   8.205
 6709WAT     H220370   5.136   6.352   8.048
 6710WAT      O20371   6.175   8.336   4.353
 6710WAT     H120372   6.085   8.314   4.316
 6710WAT     H220373   6.201   8.429   4.325
 6711WAT      O20374   2.947   8.039   5.885
 6711WAT     H120375   3.036   8.002   5.857
 6711WAT     H220376   2.887   8.044   5.806
 6712WAT      O20377   8.476   7.401   5.383
 6712WAT     H120378   8.470   7.331   5.454
 6712WAT     H220379   8.572   7.418   5.361
 6713WAT      O20380   7.944   5.460   1.688
 6713WAT     H120381   7.938   5.560   1.694
 6713WAT     H220382   8.036   5.431   1.713
 6714WAT      O20383   7.430   9.715   7.168
 6714WAT     H120384   7.378   9.786   7.215
 6714WAT     H220385   7.478   9.658   7.235
 6715WAT      O20386   2.956   8.516   4.712
 6715WAT     H120387   2.982   8.600   4.759
 6715WAT     H220388   2.906   8.456   4.775
 6716WAT      O20389   7.403   6.268   2.540
 6716WAT     H120390   7.495   6.302   2.521
 6716WAT     H220391   7.370   6.217   2.460
 6717WAT      O20392   8.802   1.350   9.299
 6717WAT     H120393   8.721   1.386   9.253
 6717WAT     H220394   8.852   1.290   9.236
 6718WAT      O20395   4.574   9.577   1.281
 6718WAT     H120396   4.620   9.547   1.364
 6718WAT     H220397   4.634   9.641   1.232
 6719WAT      O20398   2.364   0.332   8.505
 6719WAT     H120399   2.286   0.272   8.522
 6719WAT     H220400   2.380   0.388   8.586
 6720WAT      O20401   7.393   3.765   2.530
 6720WAT     H120402   7.329   3.706   2.480
 6720WAT     H220403   7.373   3.762   2.628
 6721WAT      O20404   0.920   7.193   8.922
 6721WAT     H120405   0.954   7.264   8.984
 6721WAT     H220406   0.821   7.201   8.914
 6722WAT      O20407   5.805   5.306   8.767
 6722WAT     H120408   5.726   5.368   8.769
 6722WAT     H220409   5.883   5.353   8.726
 6723WAT      O20410   2.015   5.973   9.011
 6723WAT     H120411   1.922   5.944   9.035
 6723WAT     H220412   2.051   6.032   9.084
 6724WAT      O20413   4.269   2.986   5.085
 6724WAT     H120414   4.253   2.928   5.004
 6724WAT     H220415   4.337   2.942   5.144
 6725WAT      O20416   0.214   3.421   5.845
 6725WAT     H120417   0.142   3.491   5.847
 6725WAT     H220418   0.303   3.465   5.860
 6726WAT      O20419   2.253   2.189   8.062
 6726WAT     H120420   2.160   2.209   8.094
 6726WAT     H220421   2.269   2.238   7.976
 6727WAT      O20422   1.606   1.284   7.686
 6727WAT     H120423   1.628   1.269   7.590
 6727WAT     H220424   1.659   1.361   7.721
 6728WAT      O20425   8.976   8.574   3.247
 6728WAT     H120426   8.886   8.598   3.211
 6728WAT     H220427   8.995   8.478   3.227
 6729WAT      O20428   0.227   8.611   0.202
 6729WAT     H120429   0.164   8.684   0.230
 6729WAT     H220430   0.232   8.542   0.273
 6730WAT      O20431   4.136   8.040   7.266
 6730WAT     H120432   4.197   8.044   7.187
 6730WAT     H220433   4.146   7.951   7.311
 6731WAT      O20434   5.194   9.759   3.164
 6731WAT     H120435   5.139   9.810   3.230
 6731WAT     H220436   5.235   9.823   3.099
 6732WAT      O20437   3.484   7.043   0.806
 6732WAT     H120438   3.461   6.988   0.887
 6732WAT     H220439   3.560   7.103   0.827
 6733WAT      O20440   1.088   7.517   8.737
 6733WAT     H120441   1.102   7.524   8.638
 6733WAT     H220442   1.142   7.441   8.773
 6734WAT      O20443   2.066   1.605   9.662
 6734WAT     H120444   2.123   1.539   9.711
 6734WAT     H220445   1.981   1.620   9.713
 6735WAT      O20446   5.511   2.144   1.619
 6735WAT     H120447   5.513   2.112   1.524
 6735WAT     H220448   5.419   2.132   1.656
 6736WAT      O20449   5.080   3.271   6.290
 6736WAT     H120450   5.022   3.301   6.366
 6736WAT     H220451   5.064   3.330   6.211
 6737WAT      O20452   2.917   3.438   4.875
 6737WAT     H120453   2.902   3.495   4.794
 6737WAT     H220454   3.014   3.430   4.894
 6738WAT      O20455   7.830   0.971   6.968
 6738WAT     H120456   7.761   1.040   6.949
 6738WAT     H220457   7.821   0.895   6.903
 6739WAT      O20458   1.294   3.981   5.780
 6739WAT     H120459   1.333   3.976   5.872
 6739WAT     H220460   1.304   4.074   5.744
 6740WAT      O20461   2.101   9.316   3.735
 6740WAT     H120462   2.185   9.370   3.726
 6740WAT     H220463   2.063   9.297   3.645
 6741WAT      O20464   6.121   7.928   6.385
 6741WAT     H120465   6.114   7.883   6.474
 6741WAT     H220466   6.192   7.999   6.388
 6742WAT      O20467   6.101   0.645   1.490
 6742WAT     H120468   6.129   0.703   1.567
 6742WAT     H220469   6.054   0.702   1.423
 6743WAT      O20470   0.434   2.825   6.897
 6743WAT     H120471   0.525   2.866   6.895
 6743WAT     H220472   0.366   2.895   6.875
 6744WAT      O20473   5.480   7.391   8.639
 6744WAT     H120474   5.448   7.308   8.592
 6744WAT     H220475   5.540   7.442   8.577
 6745WAT      O20476   3.427   6.370   3.750
 6745WAT     H120477   3.340   6.401   3.711
 6745WAT     H220478   3.469   6.305   3.687
 6746WAT      O20479   0.980   6.729   4.357
 6746WAT     H120480   0.955   6.825   4.341
 6746WAT     H220481   0.916   6.688   4.422
 6747WAT      O20482   4.631   8.387   4.763
 6747WAT     H120483   4.567   8.382   4.839
 6747WAT     H220484   4.581   8.393   4.677
 6748WAT      O20485   5.055   3.630   1.986
 6748WAT     H120486   5.097   3.617   2.076
 6748WAT     H220487   5.125   3.655   1.920
 6749WAT      O20488   9.706   6.699   7.304
 6749WAT     H120489   9.701   6.786   7.354
 6749WAT     H220490   9.738   6.716   7.211
 6750WAT      O20491   6.679   6.567   6.716
 6750WAT     H120492   6.739   6.575   6.795
 6750WAT     H220493   6.590   6.533   6.745
 6751WAT      O20494   0.316   6.438   6.758
 6751WAT     H120495   0.320   6.500   6.836
 6751WAT     H220496   0.293   6.346   6.790
 6752WAT      O20497   7.036   1.328   5.242
 6752WAT     H120498   7.003   1.394   5.175
 6752WAT     H220499   7.047   1.239   5.198
 6753WAT      O20500   3.060   3.798   6.028
 6753WAT     H120501   3.160   3.800   6.026
 6753WAT     H220502   3.025   3.801   5.934
 6754WAT      O20503   5.710   3.749   5.157
 6754WAT     H120504   5.699   3.716   5.063
 6754WAT     H220505   5.717   3.849   5.157
 6755WAT      O20506   4.877   3.452   8.895
 6755WAT     H120507   4.818   3.494   8.826
 6755WAT     H220508   4.911   3.364   8.861
 6756WAT      O20509   3.493   4.550   0.441
 6756WAT     H120510   3.580   4.546   0.391
 6756WAT     H220511   3.427   4.603   0.388
 6757WAT      O20512   1.719   5.229   2.432
 6757WAT     H120513   1.694   5.248   2.337
 6757WAT     H220514   1.671   5.147   2.463
 6758WAT      O20515   0.285   1.037   1.831
 6758WAT     H120516   0.381   1.035   1.802
 6758WAT     H220517   0.272   0.978   1.910
 6759WAT      O20518   7.625   6.370   7.573
 6759WAT     H120519   7.566   6.435   7.526
 6759WAT     H220520   7.570   6.308   7.628
 6760WAT      O20521   9.469   2.832   4.887
 6760WAT     H120522   9.378   2.861   4.858
 6760WAT     H220523   9.475   2.732   4.885
 6761WAT      O20524   3.488   5.157   4.862
 6761WAT     H120525   3.393   5.132   4.844
 6761WAT     H220526   3.491   5.238   4.920
 6762WAT      O20527   2.077   4.936   0.116
 6762WAT     H120528   2.085   4.875   0.037
 6762WAT     H220529   2.064   5.030   0.085
 6763WAT      O20530   6.288   3.523   0.801
 6763WAT     H120531   6.213   3.460   0.817
 6763WAT     H220532   6.252   3.614   0.780
 6764WAT      O20533   1.802   9.489   6.992
 6764WAT     H120534   1.840   9.400   7.015
 6764WAT     H220535   1.763   9.532   7.074
 6765WAT      O20536   8.510   6.622   1.569
 6765WAT     H120537   8.449   6.652   1.643
 6765WAT     H220538   8.590   6.577   1.608
 6766WAT      O20539   7.552   7.401   9.268
 6766WAT     H120540   7.614   7.477   9.284
 6766WAT     H220541   7.590   7.318   9.309
 6767WAT      O20542   1.169   4.817   4.177
 6767WAT     H120543   1.165   4.896   4.117
 6767WAT     H220544   1.259   4.772   4.167
 6768WAT      O20545   0.940   1.779   5.233
 6768WAT     H120546   0.926   1.796   5.331
 6768WAT     H220547   0.917   1.684   5.212
 6769WAT      O20548   6.660   7.478   5.520
 6769WAT     H120549   6.602   7.532   5.458
 6769WAT     H220550   6.703   7.404   5.468
 6770WAT      O20551   6.528   2.874   9.705
 6770WAT     H120552   6.465   2.933   9.756
 6770WAT     H220553   6.571   2.926   9.632
 6771WAT      O20554   5.067   7.269   5.507
 6771WAT     H120555   5.093   7.179   5.543
 6771WAT     H220556   5.130   7.338   5.541
 6772WAT      O20557   7.197   2.340   1.340
 6772WAT     H120558   7.286   2.294   1.338
 6772WAT     H220559   7.171   2.365   1.247
 6773WAT      O20560   1.808   4.667   4.155
 6773WAT     H120561   1.766   4.580   4.181
 6773WAT     H220562   1.865   4.699   4.230
 6774WAT      O20563   2.143   2.203   2.273
 6774WAT     H120564   2.116   2.189   2.368
 6774WAT     H220565   2.218   2.269   2.269
 6775WAT      O20566   9.346   7.956   5.691
 6775WAT     H120567   9.256   7.942   5.732
 6775WAT     H220568   9.336   7.965   5.592
 6776WAT      O20569   5.761   3.536   1.692
 6776WAT     H120570   5.665   3.508   1.697
 6776WAT     H220571   5.767   3.624   1.643
 6777WAT      O20572   9.365   7.583   0.196
 6777WAT     H120573   9.284   7.629   0.233
 6777WAT     H220574   9.359   7.485   0.213
 6778WAT      O20575   3.387   3.900   2.653
 6778WAT     H120576   3.443   3.817   2.660
 6778WAT     H220577   3.403   3.944   2.565
 6779WAT      O20578   3.260   6.401   6.957
 6779WAT     H120579   3.297   6.421   7.048
 6779WAT     H220580   3.309   6.456   6.888
 6780WAT      O20581   0.462   4.315   5.527
 6780WAT     H120582   0.368   4.349   5.530
 6780WAT     H220583   0.477   4.252   5.603
 6781WAT      O20584   5.369   6.191   6.671
 6781WAT     H120585   5.394   6.103   6.633
 6781WAT     H220586   5.301   6.179   6.743
 6782WAT      O20587   7.023   7.177   0.239
 6782WAT     H120588   7.094   7.244   0.216
 6782WAT     H220589   7.016   7.170   0.339
 6783WAT      O20590   7.621   8.115   6.558
 6783WAT     H120591   7.716   8.112   6.527
 6783WAT     H220592   7.592   8.023   6.585
 6784WAT      O20593   8.228   1.639   4.257
 6784WAT     H120594   8.277   1.570   4.311
 6784WAT     H220595   8.202   1.715   4.317
 6785WAT      O20596   2.154   2.475   3.550
 6785WAT     H120597   2.227   2.412   3.523
 6785WAT     H220598   2.146   2.548   3.482
 6786WAT      O20599   0.628   5.312   2.660
 6786WAT     H120600   0.542   5.356   2.635
 6786WAT     H220601   0.616   5.261   2.746
 6787WAT      O20602   5.124   3.275   2.735
 6787WAT     H120603   5.066   3.357   2.732
 6787WAT     H220604   5.083   3.208   2.797
 6788WAT      O20605   4.528   9.728   0.801
 6788WAT     H120606   4.473   9.801   0.841
 6788WAT     H220607   4.501   9.714   0.706
 6789WAT      O20608   3.009   4.085   2.494
 6789WAT     H120609   2.925   4.128   2.526
 6789WAT     H220610   3.080   4.154   2.482
 6790WAT      O20611   6.705   2.217   6.182
 6790WAT     H120612   6.719   2.122   6.212
 6790WAT     H220613   6.778   2.274   6.219
 6791WAT      O20614   0.938   8.161   5.743
 6791WAT     H120615   0.866   8.114   5.692
 6791WAT     H220616   0.897   8.227   5.806
 6792WAT      O20617   4.009   0.879   6.736
 6792WAT     H120618   4.039   0.903   6.643
 6792WAT     H220619   3.945   0.947   6.769
 6793WAT      O20620   8.375   5.115   3.621
 6793WAT     H120621   8.345   5.181   3.552
 6793WAT     H220622   8.365   5.022   3.585
 6794WAT      O20623   5.285   2.532   8.345
 6794WAT     H120624   5.378   2.504   8.320
 6794WAT     H220625   5.237   2.562   8.263
 6795WAT      O20626   8.322   6.860   3.848
 6795WAT     H120627   8.241   6.908   3.881
 6795WAT     H220628   8.369   6.817   3.926
 6796WAT      O20629   3.243   2.862   7.771
 6796WAT     H120630   3.145   2.850   7.789
 6796WAT     H220631   3.275   2.946   7.813
 6797WAT      O20632   3.976   8.480   3.992
 6797WAT     H120633   4.023   8.568   3.991
 6797WAT     H220634   4.025   8.415   3.934
 6798WAT      O20635   4.837   0.783   2.998
 6798WAT     H120636   4.770   0.812   3.066
 6798WAT     H220637   4.805   0.809   2.907
 6799WAT      O20638   3.697   5.803   2.416
 6799WAT     H120639   3.709   5.850   2.329
 6799WAT     H220640   3.716   5.866   2.491
 6800WAT      O20641   2.295   3.242   9.778
 6800WAT     H120642   2.393   3.235   9.758
 6800WAT     H220643   2.271   3.339   9.790
 6801WAT      O20644   7.415   2.527   9.100
 6801WAT     H120645   7.379   2.575   9.020
 6801WAT     H220646   7.460   2.443   9.071
 6802WAT      O20647   8.181   1.661   7.894
 6802WAT     H120648   8.197   1.759   7.878
 6802WAT     H220649   8.094   1.635   7.855
 6803WAT      O20650   8.264   8.295   8.187
 6803WAT     H120651   8.331   8.221   8.194
 6803WAT     H220652   8.311   8.383   8.195
 6804WAT      O20653   5.403   5.074   1.717
 6804WAT     H120654   5.330   5.051   1.782
 6804WAT     H220655   5.484   5.018   1.737
 6805WAT      O20656   9.722   3.614   2.478
 6805WAT     H120657   9.727   3.672   2.559
 6805WAT     H220658   9.813   3.603   2.439
 6806WAT      O20659   9.055   6.298   8.626
 6806WAT     H120660   8.978   6.243   8.660
 6806WAT     H220661   9.050   6.303   8.527
 6807WAT      O20662   2.972   3.530   1.662
 6807WAT     H120663   2.939   3.552   1.570
 6807WAT     H220664   3.033   3.603   1.694
 6808WAT      O20665   2.844   1.103   5.288
 6808WAT     H120666   2.878   1.024   5.340
 6808WAT     H220667   2.848   1.185   5.346
 6809WAT      O20668   2.041   3.985   9.666
 6809WAT     H120669   2.113   3.973   9.734
 6809WAT     H220670   2.070   4.053   9.598
 6810WAT      O20671   6.201   5.237   5.553
 6810WAT     H120672   6.138   5.193   5.489
 6810WAT     H220673   6.257   5.167   5.599
 6811WAT      O20674   2.335   1.478   3.355
 6811WAT     H120675   2.411   1.483   3.290
 6811WAT     H220676   2.294   1.387   3.351
 6812WAT      O20677   5.204   9.088   4.628
 6812WAT     H120678   5.167   9.143   4.553
 6812WAT     H220679   5.249   9.007   4.590
 6813WAT      O20680   1.314   7.827   9.530
 6813WAT     H120681   1.408   7.826   9.564
 6813WAT     H220682   1.284   7.734   9.510
 6814WAT      O20683   6.508   2.496   1.526
 6814WAT     H120684   6.486   2.450   1.440
 6814WAT     H220685   6.607   2.507   1.534
 6815WAT      O20686   9.180   0.527   0.165
 6815WAT     H120687   9.084   0.533   0.138
 6815WAT     H220688   9.234   0.491   0.089
 6816WAT      O20689   2.586   1.221   3.868
 6816WAT     H120690   2.533   1.154   3.920
 6816WAT     H220691   2.606   1.184   3.777
 6817WAT      O20692   0.069   7.832   1.831
 6817WAT     H120693   0.163   7.843   1.799
 6817WAT     H220694   0.026   7.756   1.783
 6818WAT      O20695   3.201   1.819   8.005
 6818WAT     H120696   3.234   1.875   7.929
 6818WAT     H220697   3.161   1.735   7.969
 6819WAT      O20698   2.713   5.642   3.622
 6819WAT     H120699   2.801   5.596   3.604
 6819WAT     H220700   2.647   5.575   3.656
 6820WAT      O20701   5.112   1.694   0.685
 6820WAT     H120702   5.129   1.689   0.784
 6820WAT     H220703   5.120   1.603   0.645
 6821WAT      O20704   1.210   7.677   7.566
 6821WAT     H120705   1.295   7.663   7.517
 6821WAT     H220706   1.184   7.593   7.614
 6822WAT      O20707   4.114   7.187   5.617
 6822WAT     H120708   4.033   7.186   5.675
 6822WAT     H220709   4.177   7.258   5.648
 6823WAT      O20710   4.342   8.223   2.600
 6823WAT     H120711   4.397   8.249   2.520
 6823WAT     H220712   4.256   8.181   2.569
 6824WAT      O20713   8.581   0.419   4.413
 6824WAT     H120714   8.660   0.397   4.356
 6824WAT     H220715   8.605   0.403   4.509
 6825WAT      O20716   3.694   4.325   4.029
 6825WAT     H120717   3.760   4.276   3.972
 6825WAT     H220718   3.665   4.267   4.105
 6826WAT      O20719   8.350   1.912   5.226
 6826WAT     H120720   8.272   1.960   5.266
 6826WAT     H220721   8.435   1.954   5.259
 6827WAT      O20722   9.473   0.506   2.182
 6827WAT     H120723   9.472   0.503   2.282
 6827WAT     H220724   9.550   0.562   2.151
 6828WAT      O20725   1.051   9.642   3.645
 6828WAT     H120726   0.968   9.606   3.688
 6828WAT     H220727   1.062   9.602   3.554
 6829WAT      O20728   3.714   4.334   3.105
 6829WAT     H120729   3.691   4.407   3.042
 6829WAT     H220730   3.811   4.311   3.095
 6830WAT      O20731   4.934   2.605   2.578
 6830WAT     H120732   4.867   2.632   2.509
 6830WAT     H220733   4.914   2.653   2.664
 6831WAT      O20734   0.448   4.564   6.716
 6831WAT     H120735   0.419   4.645   6.664
 6831WAT     H220736   0.403   4.483   6.678
 6832WAT      O20737   2.472   4.620   4.253
 6832WAT     H120738   2.460   4.719   4.268
 6832WAT     H220739   2.509   4.605   4.161
 6833WAT      O20740   8.692   6.095   5.387
 6833WAT     H120741   8.624   6.079   5.315
 6833WAT     H220742   8.646   6.132   5.468
 6834WAT      O20743   5.056   5.932   6.734
 6834WAT     H120744   5.084   5.956   6.827
 6834WAT     H220745   4.964   5.894   6.736
 6835WAT      O20746   7.495   8.918   2.424
 6835WAT     H120747   7.423   8.861   2.385
 6835WAT     H220748   7.501   9.003   2.372
 6836WAT      O20749   0.298   0.476   5.625
 6836WAT     H120750   0.226   0.451   5.690
 6836WAT     H220751   0.359   0.543   5.667
 6837WAT      O20752   7.000   9.489   9.156
 6837WAT     H120753   7.010   9.554   9.081
 6837WAT     H220754   7.091   9.462   9.188
 6838WAT      O20755   3.181   6.118   1.509
 6838WAT     H120756   3.277   6.118   1.537
 6838WAT     H220757   3.124   6.096   1.588
 6839WAT      O20758   5.259   3.502   8.259
 6839WAT     H120759   5.204   3.453   8.191
 6839WAT     H220760   5.330   3.441   8.294
 6840WAT      O20761   6.817   3.629   1.041
 6840WAT     H120762   6.781   3.548   1.087
 6840WAT     H220763   6.897   3.663   1.090
 6841WAT      O20764   8.908   0.147   2.223
 6841WAT     H120765   8.861   0.137   2.136
 6841WAT     H220766   8.959   0.233   2.225
 6842WAT      O20767   0.993   4.869   9.886
 6842WAT     H120768   1.087   4.885   9.857
 6842WAT     H220769   0.976   4.918   9.971
 6843WAT      O20770   3.771   4.124   8.518
 6843WAT     H120771   3.713   4.051   8.480
 6843WAT     H220772   3.719   4.173   8.588
 6844WAT      O20773   6.639   8.424   6.242
 6844WAT     H120774   6.697   8.409   6.322
 6844WAT     H220775   6.655   8.351   6.175
 6845WAT      O20776   4.426   1.194   3.383
 6845WAT     H120777   4.523   1.172   3.376
 6845WAT     H220778   4.400   1.197   3.479
 6846WAT      O20779   8.251   3.174   9.113
 6846WAT     H120780   8.306   3.258   9.119
 6846WAT     H220781   8.154   3.197   9.121
 6847WAT      O20782   8.646   8.688   2.371
 6847WAT     H120783   8.674   8.727   2.283
 6847WAT     H220784   8.564   8.734   2.404
 6848WAT      O20785   8.103   0.749   3.002
 6848WAT     H120786   8.117   0.848   2.994
 6848WAT     H220787   8.184   0.708   3.044
 6849WAT      O20788   7.336   5.825   3.250
 6849WAT     H120789   7.334   5.729   3.224
 6849WAT     H220790   7.377   5.879   3.176
 6850WAT      O20791   8.158   3.374   8.645
 6850WAT     H120792   8.203   3.455   8.683
 6850WAT     H220793   8.227   3.309   8.614
 6851WAT      O20794   6.801   5.438   1.357
 6851WAT     H120795   6.706   5.452   1.331
 6851WAT     H220796   6.822   5.495   1.437
 6852WAT      O20797   2.032   2.199   4.859
 6852WAT     H120798   2.106   2.176   4.797
 6852WAT     H220799   1.975   2.119   4.874
 6853WAT      O20800   4.190   9.676   7.263
 6853WAT     H120801   4.106   9.642   7.306
 6853WAT     H220802   4.197   9.641   7.170
 6854WAT      O20803   9.124   2.564   9.252
 6854WAT     H120804   9.126   2.479   9.304
 6854WAT     H220805   9.217   2.593   9.231
 6855WAT      O20806   1.250   3.532   3.660
 6855WAT     H120807   1.188   3.603   3.627
 6855WAT     H220808   1.197   3.449   3.681
 6856WAT      O20809   0.427   1.463   7.574
 6856WAT     H120810   0.340   1.474   7.622
 6856WAT     H220811   0.437   1.535   7.506
 6857WAT      O20812   4.767   7.270   5.125
 6857WAT     H120813   4.854   7.293   5.168
 6857WAT     H220814   4.745   7.174   5.145
 6858WAT      O20815   3.351   1.022   4.496
 6858WAT     H120816   3.416   1.090   4.529
 6858WAT     H220817   3.276   1.067   4.448
 6859WAT      O20818   6.026   0.548   0.584
 6859WAT     H120819   5.992   0.637   0.555
 6859WAT     H220820   6.022   0.540   0.683
 6860WAT      O20821   7.513   1.834   7.626
 6860WAT     H120822   7.507   1.808   7.723
 6860WAT     H220823   7.532   1.932   7.619
 6861WAT      O20824   8.141   0.979   9.552
 6861WAT     H120825   8.198   1.037   9.610
 6861WAT     H220826   8.098   0.909   9.609
 6862WAT      O20827   5.326   5.081   8.111
 6862WAT     H120828   5.275   4.995   8.104
 6862WAT     H220829   5.356   5.094   8.205
 6863WAT      O20830   3.498   1.757   4.134
 6863WAT     H120831   3.487   1.721   4.226
 6863WAT     H220832   3.439   1.707   4.071
 6864WAT      O20833   4.149   2.249   0.613
 6864WAT     H120834   4.207   2.281   0.688
 6864WAT     H220835   4.206   2.210   0.541
 6865WAT      O20836   4.149   2.701   2.144
 6865WAT     H120837   4.163   2.688   2.243
 6865WAT     H220838   4.211   2.642   2.094
 6866WAT      O20839   6.063   9.019   5.669
 6866WAT     H120840   6.087   8.962   5.591
 6866WAT     H220841   6.145   9.042   5.721
 6867WAT      O20842   0.910   3.388   8.439
 6867WAT     H120843   0.907   3.477   8.484
 6867WAT     H220844   0.818   3.359   8.416
 6868WAT      O20845   5.402   2.384   9.199
 6868WAT     H120846   5.306   2.388   9.170
 6868WAT     H220847   5.455   2.332   9.131
 6869WAT      O20848   4.664   7.661   4.458
 6869WAT     H120849   4.686   7.626   4.367
 6869WAT     H220850   4.743   7.649   4.518
 6870WAT      O20851   8.262   6.445   9.280
 6870WAT     H120852   8.166   6.432   9.258
 6870WAT     H220853   8.274   6.533   9.326
 6871WAT      O20854   4.603   8.392   3.771
 6871WAT     H120855   4.620   8.308   3.822
 6871WAT     H220856   4.690   8.435   3.748
 6872WAT      O20857   1.968   5.085   4.540
 6872WAT     H120858   2.020   5.167   4.518
 6872WAT     H220859   1.968   5.070   4.639
 6873WAT      O20860   1.162   2.732   4.868
 6873WAT     H120861   1.107   2.797   4.816
 6873WAT     H220862   1.105   2.655   4.895
 6874WAT      O20863   5.053   7.366   2.137
 6874WAT     H120864   4.953   7.369   2.136
 6874WAT     H220865   5.089   7.460   2.135
 6875WAT      O20866   2.393   4.952   3.938
 6875WAT     H120867   2.482   4.924   3.903
 6875WAT     H220868   2.358   5.028   3.884
 6876WAT      O20869   5.077   2.210   5.778
 6876WAT     H120870   5.154   2.245   5.724
 6876WAT     H220871   4.996   2.265   5.759
 6877WAT      O20872   2.715   2.587   8.154
 6877WAT     H120873   2.713   2.503   8.100
 6877WAT     H220874   2.673   2.571   8.243
 6878WAT      O20875   5.588   8.407   7.849
 6878WAT     H120876   5.632   8.435   7.763
 6878WAT     H220877   5.490   8.393   7.833
 6879WAT      O20878   4.729   4.390   9.645
 6879WAT     H120879   4.712   4.439   9.559
 6879WAT     H220880   4.811   4.427   9.688
 6880WAT      O20881   8.382   9.586   4.867
 6880WAT     H120882   8.409   9.585   4.963
 6880WAT     H220883   8.457   9.621   4.811
 6881WAT      O20884   8.845   9.015   4.587
 6881WAT     H120885   8.851   8.916   4.573
 6881WAT     H220886   8.804   9.058   4.506
 6882WAT      O20887   9.686   5.767   1.994
 6882WAT     H120888   9.683   5.866   2.013
 6882WAT     H220889   9.611   5.743   1.933
 6883WAT      O20890   0.861   3.118   4.013
 6883WAT     H120891   0.827   3.078   4.099
 6883WAT     H220892   0.961   3.120   4.015
 6884WAT      O20893   7.118   6.872   6.053
 6884WAT     H120894   7.193   6.812   6.026
 6884WAT     H220895   7.152   6.944   6.114
 6885WAT      O20896   7.044   2.419   1.113
 6885WAT     H120897   7.068   2.511   1.082
 6885WAT     H220898   6.962   2.388   1.064
 6886WAT      O20899   0.514   1.850   0.164
 6886WAT     H120900   0.526   1.839   0.262
 6886WAT     H220901   0.500   1.947   0.143
 6887WAT      O20902   1.793   3.316   5.511
 6887WAT     H120903   1.767   3.219   5.505
 6887WAT     H220904   1.892   3.323   5.513
 6888WAT      O20905   2.894   5.822   3.062
 6888WAT     H120906   2.839   5.864   2.989
 6888WAT     H220907   2.847   5.832   3.149
 6889WAT      O20908   3.846   2.829   0.463
 6889WAT     H120909   3.750   2.837   0.490
 6889WAT     H220910   3.862   2.739   0.423
 6890WAT      O20911   2.285   6.288   6.461
 6890WAT     H120912   2.200   6.243   6.433
 6890WAT     H220913   2.282   6.308   6.558
 6891WAT      O20914   7.406   0.735   0.180
 6891WAT     H120915   7.449   0.718   0.091
 6891WAT     H220916   7.447   0.674   0.248
 6892WAT      O20917   9.882   0.901   7.971
 6892WAT     H120918   9.910   0.997   7.980
 6892WAT     H220919   9.929   0.846   8.039
 6893WAT      O20920   2.307   3.368   7.472
 6893WAT     H120921   2.224   3.314   7.457
 6893WAT     H220922   2.293   3.461   7.440
 6894WAT      O20923   5.235   6.645   7.012
 6894WAT     H120924   5.331   6.638   7.037
 6894WAT     H220925   5.227   6.677   6.918
 6895WAT      O20926   1.413   3.589   6.968
 6895WAT     H120927   1.382   3.543   6.885
 6895WAT     H220928   1.431   3.685   6.949
 6896WAT      O20929   2.281   0.718   0.417
 6896WAT     H120930   2.256   0.621   0.420
 6896WAT     H220931   2.227   0.769   0.484
 6897WAT      O20932   9.625   3.577   3.443
 6897WAT     H120933   9.645   3.582   3.541
 6897WAT     H220934   9.571   3.657   3.416
 6898WAT      O20935   3.438   5.627   4.218
 6898WAT     H120936   3.396   5.651   4.305
 6898WAT     H220937   3.458   5.710   4.166
 6899WAT      O20938   6.223   5.922   8.522
 6899WAT     H120939   6.194   5.963   8.609
 6899WAT     H220940   6.221   5.822   8.531
 6900WAT      O20941   2.890   8.008   7.553
 6900WAT     H120942   2.885   7.908   7.548
 6900WAT     H220943   2.961   8.042   7.492
 6901WAT      O20944   0.833   6.997   3.709
 6901WAT     H120945   0.878   6.950   3.632
 6901WAT     H220946   0.875   6.968   3.794
 6902WAT      O20947   2.647   4.677   5.687
 6902WAT     H120948   2.575   4.647   5.624
 6902WAT     H220949   2.653   4.777   5.685
 6903WAT      O20950   7.149   0.307   9.891
 6903WAT     H120951   7.119   0.218   9.858
 6903WAT     H220952   7.181   0.362   9.814
 6904WAT      O20953   8.638   1.688   9.091
 6904WAT     H120954   8.570   1.634   9.141
 6904WAT     H220955   8.662   1.640   9.006
 6905WAT      O20956   2.992   5.999   8.030
 6905WAT     H120957   2.945   6.087   8.029
 6905WAT     H220958   3.023   5.977   7.937
 6906WAT      O20959   6.595   1.689   6.716
 6906WAT     H120960   6.539   1.607   6.711
 6906WAT     H220961   6.690   1.664   6.733
 6907WAT      O20962   5.775   4.885   8.433
 6907WAT     H120963   5.679   4.899   8.409
 6907WAT     H220964   5.794   4.928   8.521
 6908WAT      O20965   3.729   8.528   3.582
 6908WAT     H120966   3.814   8.482   3.606
 6908WAT     H220967   3.663   8.462   3.548
 6909WAT      O20968   4.569   7.199   8.841
 6909WAT     H120969   4.604   7.242   8.925
 6909WAT     H220970   4.643   7.150   8.796
 6910WAT      O20971   3.089   2.694   5.710
 6910WAT     H120972   3.016   2.755   5.741
 6910WAT     H220973   3.087   2.689   5.610
 6911WAT      O20974   8.396   2.480   7.998
 6911WAT     H120975   8.374   2.528   7.913
 6911WAT     H220976   8.315   2.430   8.030
 6912WAT      O20977   1.632   2.260   3.938
 6912WAT     H120978   1.631   2.212   4.026
 6912WAT     H220979   1.544   2.246   3.892
 6913WAT      O20980   3.872   5.645   2.805
 6913WAT     H120981   3.917   5.597   2.880
 6913WAT     H220982   3.914   5.734   2.791
 6914WAT      O20983   0.851   8.563   9.341
 6914WAT     H120984   0.920   8.616   9.388
 6914WAT     H220985   0.888   8.472   9.319
 6915WAT      O20986   8.233   2.377   5.648
 6915WAT     H120987   8.146   2.345   5.612
 6915WAT     H220988   8.217   2.435   5.728
 6916WAT      O20989   6.317   9.776   1.497
 6916WAT     H120990   6.281   9.719   1.423
 6916WAT     H220991   6.379   9.844   1.459
 6917WAT      O20992   9.641   4.723   6.414
 6917WAT     H120993   9.659   4.657   6.341
 6917WAT     H220994   9.544   4.723   6.437
 6918WAT      O20995   7.165   5.179   3.898
 6918WAT     H120996   7.214   5.104   3.943
 6918WAT     H220997   7.203   5.193   3.806
 6919WAT      O20998   2.660   6.301   9.558
 6919WAT     H120999   2.617   6.381   9.600
 6919WAT     H221000   2.748   6.283   9.602
 6920WAT      O21001   8.361   1.987   7.985
 6920WAT     H121002   8.270   2.028   7.990
 6920WAT     H221003   8.374   1.925   8.062
 6921WAT      O21004   0.137   2.537   4.811
 6921WAT     H121005   0.195   2.500   4.883
 6921WAT     H221006   0.055   2.480   4.801
 6922WAT      O21007   5.766   3.104   5.810
 6922WAT     H121008   5.764   3.167   5.732
 6922WAT     H221009   5.823   3.143   5.883
 6923WAT      O21010   2.912   9.526   3.856
 6923WAT     H121011   2.983   9.457   3.843
 6923WAT     H221012   2.825   9.481   3.879
 6924WAT      O21013   3.690   0.933   4.573
 6924WAT     H121014   3.643   1.021   4.581
 6924WAT     H221015   3.689   0.904   4.477
 6925WAT      O21016   2.725   6.958   4.492
 6925WAT     H121017   2.822   6.967   4.514
 6925WAT     H221018   2.699   7.030   4.428
 6926WAT      O21019   7.364   2.122   3.484
 6926WAT     H121020   7.395   2.125   3.389
 6926WAT     H221021   7.441   2.140   3.545
 6927WAT      O21022   5.115   6.762   8.374
 6927WAT     H121023   5.198   6.796   8.330
 6927WAT     H221024   5.139   6.718   8.461
 6928WAT      O21025   8.664   5.502   3.080
 6928WAT     H121026   8.684   5.523   3.175
 6928WAT     H221027   8.712   5.418   3.053
 6929WAT      O21028   4.773   2.028   6.761
 6929WAT     H121029   4.716   1.992   6.687
 6929WAT     H221030   4.714   2.063   6.834
 6930WAT      O21031   0.525   0.683   1.212
 6930WAT     H121032   0.597   0.702   1.279
 6930WAT     H221033   0.542   0.593   1.170
 6931WAT      O21034   5.860   6.547   8.032
 6931WAT     H121035   5.929   6.500   8.087
 6931WAT     H221036   5.784   6.576   8.091
 6932WAT      O21037   4.610   8.521   0.439
 6932WAT     H121038   4.554   8.600   0.464
 6932WAT     H221039   4.658   8.487   0.519
 6933WAT      O21040   1.415   4.671   2.222
 6933WAT     H121041   1.479   4.630   2.156
 6933WAT     H221042   1.325   4.680   2.180
 6934WAT      O21043   0.318   3.050   6.606
 6934WAT     H121044   0.242   2.986   6.607
 6934WAT     H221045   0.330   3.090   6.697
 6935WAT      O21046   0.194   7.810   4.689
 6935WAT     H121047   0.230   7.796   4.782
 6935WAT     H221048   0.158   7.723   4.655
 6936WAT      O21049   5.079   0.167   4.479
 6936WAT     H121050   5.175   0.154   4.456
 6936WAT     H221051   5.065   0.151   4.577
 6937WAT      O21052   5.603   6.746   7.703
 6937WAT     H121053   5.570   6.744   7.797
 6937WAT     H221054   5.636   6.837   7.681
 6938WAT      O21055   8.952   5.779   3.183
 6938WAT     H121056   8.997   5.836   3.252
 6938WAT     H221057   8.996   5.690   3.180
 6939WAT      O21058   7.692   0.860   7.889
 6939WAT     H121059   7.599   0.894   7.895
 6939WAT     H221060   7.698   0.791   7.817
 6940WAT      O21061   1.373   0.771   3.497
 6940WAT     H121062   1.430   0.841   3.454
 6940WAT     H221063   1.373   0.784   3.596
 6941WAT      O21064   9.220   7.792   1.981
 6941WAT     H121065   9.231   7.694   1.963
 6941WAT     H221066   9.311   7.834   1.990
 6942WAT      O21067   4.870   3.826   8.016
 6942WAT     H121068   4.848   3.728   8.017
 6942WAT     H221069   4.808   3.873   7.953
 6943WAT      O21070   1.223   8.095   1.268
 6943WAT     H121071   1.163   8.016   1.285
 6943WAT     H221072   1.255   8.131   1.355
 6944WAT      O21073   2.990   2.633   8.232
 6944WAT     H121074   2.974   2.679   8.319
 6944WAT     H221075   2.903   2.608   8.191
 6945WAT      O21076   9.108   8.337   1.229
 6945WAT     H121077   9.205   8.317   1.243
 6945WAT     H221078   9.063   8.258   1.186
 6946WAT      O21079   5.108   1.185   2.197
 6946WAT     H121080   5.202   1.173   2.164
 6946WAT     H221081   5.091   1.122   2.272
 6947WAT      O21082   5.039   7.151   7.877
 6947WAT     H121083   5.031   7.052   7.890
 6947WAT     H221084   5.095   7.190   7.950
 6948WAT      O21085   3.381   2.830   6.773
 6948WAT     H121086   3.287   2.828   6.741
 6948WAT     H221087   3.413   2.924   6.777
 6949WAT      O21088   6.519   2.001   1.869
 6949WAT     H121089   6.496   2.085   1.919
 6949WAT     H221090   6.538   2.023   1.774
 6950WAT      O21091   2.615   0.270   8.184
 6950WAT     H121092   2.555   0.310   8.115
 6950WAT     H221093   2.652   0.343   8.242
 6951WAT      O21094   5.387   1.389   8.210
 6951WAT     H121095   5.332   1.433   8.139
 6951WAT     H221096   5.435   1.310   8.172
 6952WAT      O21097   9.821   4.216   2.504
 6952WAT     H121098   9.739   4.235   2.557
 6952WAT     H221099   9.847   4.120   2.517
 6953WAT      O21100   9.488   0.497   7.126
 6953WAT     H121101   9.399   0.512   7.083
 6953WAT     H221102   9.529   0.585   7.149
 6954WAT      O21103   5.635   1.165   6.909
 6954WAT     H121104   5.734   1.159   6.922
 6954WAT     H221105   5.617   1.195   6.815
 6955WAT      O21106   9.338   7.382   2.570
 6955WAT     H121107   9.256   7.330   2.545
 6955WAT     H221108   9.384   7.413   2.487
 6956WAT      O21109   6.297   1.622   5.483
 6956WAT     H121110   6.272   1.574   5.567
 6956WAT     H221111   6.365   1.692   5.504
 6957WAT      O21112   2.162   4.906   5.196
 6957WAT     H121113   2.241   4.876   5.143
 6957WAT     H221114   2.145   5.003   5.179
 6958WAT      O21115   4.623   5.318   7.270
 6958WAT     H121116   4.713   5.277   7.256
 6958WAT     H221117   4.559   5.282   7.202
 6959WAT      O21118   0.467   9.228   7.537
 6959WAT     H121119   0.452   9.213   7.634
 6959WAT     H221120   0.464   9.326   7.517
 6960WAT      O21121   1.371   7.467   9.217
 6960WAT     H121122   1.346   7.501   9.308
 6960WAT     H221123   1.347   7.371   9.210
 6961WAT      O21124   9.223   6.787   1.417
 6961WAT     H121125   9.127   6.813   1.430
 6961WAT     H221126   9.237   6.754   1.324
 6962WAT      O21127   5.729   5.527   7.645
 6962WAT     H121128   5.804   5.582   7.682
 6962WAT     H221129   5.709   5.557   7.551
 6963WAT      O21130   0.120   3.033   1.744
 6963WAT     H121131   0.135   2.939   1.713
 6963WAT     H221132   0.040   3.070   1.698
 6964WAT      O21133   6.937   3.046   1.489
 6964WAT     H121134   6.917   3.123   1.550
 6964WAT     H221135   7.034   3.046   1.466
 6965WAT      O21136   6.539   6.672   5.910
 6965WAT     H121137   6.519   6.586   5.957
 6965WAT     H221138   6.472   6.688   5.838
 6966WAT      O21139   7.456   7.094   1.161
 6966WAT     H121140   7.514   7.026   1.116
 6966WAT     H221141   7.418   7.055   1.245
 6967WAT      O21142   1.254   8.375   0.539
 6967WAT     H121143   1.197   8.300   0.572
 6967WAT     H221144   1.196   8.449   0.505
 6968WAT      O21145   7.986   7.059   9.731
 6968WAT     H121146   8.031   6.969   9.730
 6968WAT     H221147   7.918   7.062   9.803
 6969WAT      O21148   2.042   0.132   1.538
 6969WAT     H121149   2.132   0.093   1.516
 6969WAT     H221150   2.053   0.204   1.606
 6970WAT      O21151   4.987   4.006   5.427
 6970WAT     H121152   5.046   4.087   5.424
 6970WAT     H221153   4.891   4.035   5.431
 6971WAT      O21154   7.478   5.674   2.396
 6971WAT     H121155   7.389   5.653   2.436
 6971WAT     H221156   7.467   5.704   2.302
 6972WAT      O21157   7.603   9.455   0.674
 6972WAT     H121158   7.667   9.380   0.661
 6972WAT     H221159   7.537   9.431   0.745
 6973WAT      O21160   7.030   5.306   2.172
 6973WAT     H121161   6.959   5.236   2.177
 6973WAT     H221162   7.102   5.276   2.109
 6974WAT      O21163   5.522   7.971   4.318
 6974WAT     H121164   5.617   7.983   4.347
 6974WAT     H221165   5.487   7.884   4.353
 6975WAT      O21166   5.859   4.116   6.929
 6975WAT     H121167   5.794   4.192   6.925
 6975WAT     H221168   5.943   4.147   6.976
 6976WAT      O21169   3.422   6.559   1.633
 6976WAT     H121170   3.513   6.538   1.596
 6976WAT     H221171   3.402   6.495   1.707
 6977WAT      O21172   4.808   0.736   5.021
 6977WAT     H121173   4.840   0.645   4.995
 6977WAT     H221174   4.733   0.728   5.087
 6978WAT      O21175   3.288   4.509   6.533
 6978WAT     H121176   3.339   4.574   6.590
 6978WAT     H221177   3.203   4.551   6.501
 6979WAT      O21178   8.651   1.977   4.069
 6979WAT     H121179   8.702   1.993   3.984
 6979WAT     H221180   8.601   2.060   4.094
 6980WAT      O21181   8.405   8.282   5.899
 6980WAT     H121182   8.378   8.256   5.807
 6980WAT     H221183   8.328   8.324   5.946
 6981WAT      O21184   9.298   0.237   8.053
 6981WAT     H121185   9.199   0.231   8.066
 6981WAT     H221186   9.329   0.329   8.076
 6982WAT      O21187   6.117   0.720   4.324
 6982WAT     H121188   6.033   0.749   4.370
 6982WAT     H221189   6.168   0.801   4.294
 6983WAT      O21190   9.681   2.073   0.539
 6983WAT     H121191   9.596   2.032   0.505
 6983WAT     H221192   9.759   2.031   0.493
 6984WAT      O21193   8.812   4.591   3.500
 6984WAT     H121194   8.781   4.496   3.510
 6984WAT     H221195   8.747   4.642   3.443
 6985WAT      O21196   4.521   0.755   4.914
 6985WAT     H121197   4.508   0.668   4.865
 6985WAT     H221198   4.584   0.741   4.990
 6986WAT      O21199   2.474   4.896   9.095
 6986WAT     H121200   2.535   4.925   9.022
 6986WAT     H221201   2.461   4.797   9.090
 6987WAT      O21202   6.788   1.712   8.703
 6987WAT     H121203   6.709   1.773   8.704
 6987WAT     H221204   6.763   1.625   8.747
 6988WAT      O21205   6.542   4.961   3.432
 6988WAT     H121206   6.591   4.974   3.518
 6988WAT     H221207   6.448   4.992   3.443
 6989WAT      O21208   0.518   0.477   4.160
 6989WAT     H121209   0.539   0.482   4.258
 6989WAT     H221210   0.422   0.453   4.148
 6990WAT      O21211   5.750   6.508   2.540
 6990WAT     H121212   5.661   6.483   2.579
 6990WAT     H221213   5.782   6.593   2.583
 6991WAT      O21214   9.376   6.261   4.751
 6991WAT     H121215   9.385   6.193   4.678
 6991WAT     H221216   9.333   6.218   4.831
 6992WAT      O21217   4.216   7.357   4.789
 6992WAT     H121218   4.282   7.286   4.763
 6992WAT     H221219   4.258   7.447   4.780
 6993WAT      O21220   4.498   7.047   4.167
 6993WAT     H121221   4.482   7.033   4.265
 6993WAT     H221222   4.564   7.121   4.154
 6994WAT      O21223   3.201   3.923   7.278
 6994WAT     H121224   3.278   3.874   7.320
 6994WAT     H221225   3.179   3.881   7.190
 6995WAT      O21226   6.879   5.539   6.650
 6995WAT     H121227   6.870   5.457   6.706
 6995WAT     H221228   6.961   5.533   6.594
 6996WAT      O21229   6.363   3.973   8.580
 6996WAT     H121230   6.272   3.980   8.540
 6996WAT     H221231   6.428   3.943   8.510
 6997WAT      O21232   1.518   8.610   2.254
 6997WAT     H121233   1.535   8.512   2.255
 6997WAT     H221234   1.444   8.632   2.318
 6998WAT      O21235   5.164   3.096   9.460
 6998WAT     H121236   5.163   2.998   9.478
 6998WAT     H221237   5.221   3.142   9.528
 6999WAT      O21238   7.653   7.911   4.578
 6999WAT     H121239   7.604   7.826   4.597
 6999WAT     H221240   7.588   7.987   4.575
 7000WAT      O21241   1.795   7.521   6.485
 7000WAT     H121242   1.698   7.541   6.472
 7000WAT     H221243   1.830   7.472   6.405
 7001WAT      O21244   4.810   3.045   7.840
 7001WAT     H121245   4.720   3.002   7.838
 7001WAT     H221246   4.875   2.983   7.884
 7002WAT      O21247   6.765   4.114   2.581
 7002WAT     H121248   6.666   4.099   2.588
 7002WAT     H221249   6.793   4.183   2.648
 7003WAT      O21250   1.712   6.440   3.185
 7003WAT     H121251   1.747   6.411   3.274
 7003WAT     H221252   1.680   6.360   3.134
 7004WAT      O21253   3.877   3.843   0.310
 7004WAT     H121254   3.953   3.893   0.267
 7004WAT     H221255   3.792   3.893   0.294
 7005WAT      O21256   6.337   7.398   9.566
 7005WAT     H121257   6.289   7.345   9.636
 7005WAT     H221258   6.362   7.487   9.603
 7006WAT      O21259   2.087   7.301   9.398
 7006WAT     H121260   2.075   7.223   9.460
 7006WAT     H221261   2.082   7.269   9.303
 7007WAT      O21262   7.529   6.066   5.253
 7007WAT     H121263   7.563   6.038   5.163
 7007WAT     H221264   7.438   6.026   5.268
 7008WAT      O21265   7.788   8.619   4.613
 7008WAT     H121266   7.804   8.611   4.712
 7008WAT     H221267   7.757   8.531   4.577
 7009WAT      O21268   3.984   6.980   1.230
 7009WAT     H121269   3.940   6.904   1.182
 7009WAT     H221270   4.074   6.951   1.262
 7010WAT      O21271   4.120   8.322   3.830
 7010WAT     H121272   4.144   8.228   3.857
 7010WAT     H221273   4.201   8.367   3.794
 7011WAT      O21274   3.854   4.187   5.188
 7011WAT     H121275   3.789   4.263   5.180
 7011WAT     H221276   3.933   4.204   5.129
 7012WAT      O21277   9.268   3.969   3.868
 7012WAT     H121278   9.177   3.990   3.831
 7012WAT     H221279   9.261   3.950   3.965
 7013WAT      O21280   3.821   3.126   4.494
 7013WAT     H121281   3.818   3.155   4.589
 7013WAT     H221282   3.822   3.026   4.489
 7014WAT      O21283   7.959   1.505   8.982
 7014WAT     H121284   8.038   1.529   8.926
 7014WAT     H221285   7.897   1.447   8.929
 7015WAT      O21286   1.721   7.370   9.806
 7015WAT     H121287   1.645   7.392   9.867
 7015WAT     H221288   1.739   7.272   9.808
 7016WAT      O21289   5.821   6.823   2.027
 7016WAT     H121290   5.868   6.866   2.104
 7016WAT     H221291   5.767   6.891   1.978
 7017WAT      O21292   9.401   7.637   1.566
 7017WAT     H121293   9.316   7.612   1.612
 7017WAT     H221294   9.471   7.569   1.586
 7018WAT      O21295   8.899   8.545   9.423
 7018WAT     H121296   8.993   8.561   9.393
 7018WAT     H221297   8.839   8.542   9.343
 7019WAT      O21298   0.322   0.117   8.421
 7019WAT     H121299   0.383   0.184   8.464
 7019WAT     H221300   0.374   0.035   8.399
 7020WAT      O21301   3.515   2.122   3.919
 7020WAT     H121302   3.583   2.149   3.850
 7020WAT     H221303   3.443   2.191   3.923
 7021WAT      O21304   1.444   7.836   1.433
 7021WAT     H121305   1.502   7.917   1.420
 7021WAT     H221306   1.469   7.791   1.519
 7022WAT      O21307   5.403   1.617   1.375
 7022WAT     H121308   5.367   1.551   1.309
 7022WAT     H221309   5.476   1.671   1.332
 7023WAT      O21310   7.454   7.202   7.632
 7023WAT     H121311   7.410   7.290   7.614
 7023WAT     H221312   7.440   7.177   7.728
 7024WAT      O21313   8.465   0.518   8.549
 7024WAT     H121314   8.390   0.564   8.502
 7024WAT     H221315   8.552   0.544   8.506
 7025WAT      O21316   0.214   5.562   2.442
 7025WAT     H121317   0.232   5.535   2.348
 7025WAT     H221318   0.119   5.590   2.452
 7026WAT      O21319   9.103   2.599   5.584
 7026WAT     H121320   9.196   2.580   5.555
 7026WAT     H221321   9.063   2.670   5.526
 7027WAT      O21322   9.424   1.735   0.770
 7027WAT     H121323   9.477   1.671   0.714
 7027WAT     H221324   9.480   1.813   0.794
 7028WAT      O21325   6.935   2.148   0.665
 7028WAT     H121326   6.981   2.114   0.747
 7028WAT     H221327   7.000   2.197   0.607
 7029WAT      O21328   3.647   6.210   5.034
 7029WAT     H121329   3.606   6.260   5.111
 7029WAT     H221330   3.639   6.265   4.951
 7030WAT      O21331   2.340   9.437   3.667
 7030WAT     H121332   2.437   9.426   3.644
 7030WAT     H221333   2.318   9.534   3.673
 7031WAT      O21334   7.939   7.302   5.219
 7031WAT     H121335   7.864   7.247   5.257
 7031WAT     H221336   7.961   7.270   5.127
 7032WAT      O21337   2.550   5.886   8.239
 7032WAT     H121338   2.540   5.857   8.335
 7032WAT     H221339   2.594   5.975   8.236
 7033WAT      O21340   8.086   4.828   4.469
 7033WAT     H121341   8.097   4.865   4.377
 7033WAT     H221342   8.040   4.739   4.464
 7034WAT      O21343   2.646   2.669   4.166
 7034WAT     H121344   2.700   2.753   4.167
 7034WAT     H221345   2.572   2.677   4.100
 7035WAT      O21346   8.154   1.837   0.633
 7035WAT     H121347   8.233   1.814   0.576
 7035WAT     H221348   8.093   1.758   0.641
 7036WAT      O21349   5.507   7.929   9.077
 7036WAT     H121350   5.425   7.874   9.090
 7036WAT     H221351   5.580   7.873   9.038
 7037WAT      O21352   2.123   5.725   1.941
 7037WAT     H121353   2.056   5.784   1.986
 7037WAT     H221354   2.075   5.649   1.897
 7038WAT      O21355   0.004   9.532   9.184
 7038WAT     H121356  -0.062   9.502   9.116
 7038WAT     H221357   0.025   9.629   9.171
 7039WAT      O21358   1.535   0.302   3.027
 7039WAT     H121359   1.437   0.306   3.050
 7039WAT     H221360   1.571   0.212   3.052
 7040WAT      O21361   2.154   2.661   0.938
 7040WAT     H121362   2.244   2.704   0.941
 7040WAT     H221363   2.097   2.697   1.012
 7041WAT      O21364   8.201   0.312   6.429
 7041WAT     H121365   8.218   0.253   6.350
 7041WAT     H221366   8.252   0.398   6.418
 7042WAT      O21367   8.601   5.609   2.256
 7042WAT     H121368   8.563   5.613   2.164
 7042WAT     H221369   8.527   5.602   2.323
 7043WAT      O21370   7.750   3.220   9.650
 7043WAT     H121371   7.789   3.303   9.690
 7043WAT     H221372   7.806   3.141   9.675
 7044WAT      O21373   0.962   1.770   0.433
 7044WAT     H121374   0.898   1.837   0.470
 7044WAT     H221375   0.912   1.687   0.410
 7045WAT      O21376   4.911   9.690   3.923
 7045WAT     H121377   4.935   9.601   3.884
 7045WAT     H221378   4.841   9.678   3.993
 7046WAT      O21379   6.395   2.629   9.579
 7046WAT     H121380   6.411   2.688   9.659
 7046WAT     H221381   6.371   2.686   9.500
 7047WAT      O21382   7.125   6.174   0.614
 7047WAT     H121383   7.104   6.116   0.536
 7047WAT     H221384   7.166   6.260   0.583
 7048WAT      O21385   8.497   6.929   7.680
 7048WAT     H121386   8.444   6.915   7.764
 7048WAT     H221387   8.463   6.867   7.609
 7049WAT      O21388   2.601   2.499   5.633
 7049WAT     H121389   2.683   2.545   5.598
 7049WAT     H221390   2.581   2.532   5.725
 7050WAT      O21391   0.215   9.766   4.195
 7050WAT     H121392   0.254   9.842   4.247
 7050WAT     H221393   0.151   9.715   4.253
 7051WAT      O21394   2.624   2.039   5.950
 7051WAT     H121395   2.546   2.043   6.013
 7051WAT     H221396   2.602   2.090   5.867
 7052WAT      O21397   2.847   2.268   5.242
 7052WAT     H121398   2.835   2.307   5.150
 7052WAT     H221399   2.871   2.171   5.234
 7053WAT      O21400   8.091   9.543   0.197
 7053WAT     H121401   8.052   9.607   0.263
 7053WAT     H221402   8.019   9.507   0.138
 7054WAT      O21403   1.260   8.080   8.674
 7054WAT     H121404   1.358   8.095   8.685
 7054WAT     H221405   1.243   8.034   8.587
 7055WAT      O21406   2.153   4.443   1.561
 7055WAT     H121407   2.103   4.357   1.573
 7055WAT     H221408   2.244   4.434   1.599
 7056WAT      O21409   9.315   9.360   5.826
 7056WAT     H121410   9.260   9.338   5.907
 7056WAT     H221411   9.412   9.358   5.850
 7057WAT      O21412   6.511   1.478   5.068
 7057WAT     H121413   6.575   1.547   5.100
 7057WAT     H221414   6.425   1.521   5.042
 7058WAT      O21415   4.002   2.970   3.139
 7058WAT     H121416   4.085   3.017   3.110
 7058WAT     H221417   4.023   2.876   3.165
 7059WAT      O21418   4.097   6.645   5.528
 7059WAT     H121419   4.092   6.745   5.535
 7059WAT     H221420   4.084   6.605   5.618
 7060WAT      O21421   8.668   4.184   1.842
 7060WAT     H121422   8.767   4.173   1.836
 7060WAT     H221423   8.630   4.111   1.899
 7061WAT      O21424   5.226   0.850   5.625
 7061WAT     H121425   5.189   0.935   5.589
 7061WAT     H221426   5.195   0.837   5.720
 7062WAT      O21427   6.486   0.721   2.490
 7062WAT     H121428   6.545   0.770   2.426
 7062WAT     H221429   6.536   0.701   2.574
 7063WAT      O21430   3.890   1.255   2.444
 7063WAT     H121431   3.854   1.176   2.394
 7063WAT     H221432   3.988   1.264   2.427
 7064WAT      O21433   1.312   2.338   6.597
 7064WAT     H121434   1.293   2.385   6.511
 7064WAT     H221435   1.259   2.381   6.670
 7065WAT      O21436   7.213   5.187   5.365
 7065WAT     H121437   7.187   5.131   5.444
 7065WAT     H221438   7.158   5.162   5.286
 7066WAT      O21439   4.044   0.614   8.398
 7066WAT     H121440   4.113   0.628   8.469
 7066WAT     H221441   4.089   0.595   8.311
 7067WAT      O21442   3.673   6.718   4.658
 7067WAT     H121443   3.602   6.762   4.714
 7067WAT     H221444   3.741   6.786   4.631
 7068WAT      O21445   2.470   1.565   4.855
 7068WAT     H121446   2.458   1.466   4.862
 7068WAT     H221447   2.387   1.607   4.820
 7069WAT      O21448   0.908   9.123   3.148
 7069WAT     H121449   0.849   9.166   3.080
 7069WAT     H221450   0.987   9.083   3.102
 7070WAT      O21451   6.381   7.494   4.595
 7070WAT     H121452   6.402   7.440   4.676
 7070WAT     H221453   6.446   7.472   4.522
 7071WAT      O21454   8.486   2.728   0.700
 7071WAT     H121455   8.410   2.753   0.761
 7071WAT     H221456   8.460   2.745   0.605
 7072WAT      O21457   4.432   7.297   5.927
 7072WAT     H121458   4.484   7.232   5.982
 7072WAT     H221459   4.495   7.348   5.868
 7073WAT      O21460   3.706   1.890   8.752
 7073WAT     H121461   3.628   1.945   8.721
 7073WAT     H221462   3.678   1.833   8.829
 7074WAT      O21463   7.761   1.211   3.289
 7074WAT     H121464   7.748   1.143   3.216
 7074WAT     H221465   7.761   1.165   3.378
 7075WAT      O21466   4.111   3.006   2.195
 7075WAT     H121467   4.190   2.979   2.249
 7075WAT     H221468   4.116   2.964   2.104
 7076WAT      O21469   1.555   4.857   5.453
 7076WAT     H121470   1.547   4.868   5.552
 7076WAT     H221471   1.521   4.766   5.427
 7077WAT      O21472   6.916   8.704   7.445
 7077WAT     H121473   6.968   8.741   7.521
 7077WAT     H221474   6.943   8.750   7.360
 7078WAT      O21475   6.168   3.782   5.703
 7078WAT     H121476   6.103   3.846   5.661
 7078WAT     H221477   6.206   3.823   5.786
 7079WAT      O21478   5.906   8.872   8.102
 7079WAT     H121479   6.001   8.866   8.072
 7079WAT     H221480   5.902   8.870   8.202
 7080WAT      O21481   4.967   4.759   8.739
 7080WAT     H121482   4.870   4.761   8.762
 7080WAT     H221483   4.981   4.698   8.661
 7081WAT      O21484   1.264   7.625   7.168
 7081WAT     H121485   1.235   7.570   7.089
 7081WAT     H221486   1.249   7.573   7.252
 7082WAT      O21487   2.704   9.034   9.766
 7082WAT     H121488   2.647   8.956   9.792
 7082WAT     H221489   2.719   9.093   9.846
 7083WAT      O21490   1.553   9.794   2.241
 7083WAT     H121491   1.625   9.734   2.208
 7083WAT     H221492   1.471   9.783   2.184
 7084WAT      O21493   4.568   2.822   1.863
 7084WAT     H121494   4.539   2.805   1.957
 7084WAT     H221495   4.561   2.737   1.810
 7085WAT      O21496   4.740   2.068   8.826
 7085WAT     H121497   4.745   2.068   8.926
 7085WAT     H221498   4.664   2.012   8.795
 7086WAT      O21499   1.406   7.935   9.074
 7086WAT     H121500   1.426   7.839   9.090
 7086WAT     H221501   1.323   7.944   9.020
 7087WAT      O21502   1.132   8.157   3.695
 7087WAT     H121503   1.106   8.094   3.621
 7087WAT     H221504   1.231   8.152   3.708
 7088WAT      O21505   8.405   8.848   8.042
 7088WAT     H121506   8.443   8.862   8.134
 7088WAT     H221507   8.343   8.924   8.020
 7089WAT      O21508   1.320   1.456   0.250
 7089WAT     H121509   1.283   1.530   0.306
 7089WAT     H221510   1.395   1.491   0.193
 7090WAT      O21511   7.074   6.817   1.999
 7090WAT     H121512   7.148   6.860   2.051
 7090WAT     H221513   7.045   6.733   2.045
 7091WAT      O21514   6.082   4.378   3.932
 7091WAT     H121515   6.122   4.324   4.007
 7091WAT     H221516   6.143   4.453   3.908
 7092WAT      O21517   5.026   3.715   6.263
 7092WAT     H121518   5.051   3.805   6.300
 7092WAT     H221519   5.020   3.649   6.338
 7093WAT      O21520   8.295   9.454   5.628
 7093WAT     H121521   8.302   9.444   5.727
 7093WAT     H221522   8.311   9.366   5.584
 7094WAT      O21523   0.033   4.413   4.507
 7094WAT     H121524   0.090   4.488   4.541
 7094WAT     H221525   0.055   4.329   4.556
 7095WAT      O21526   4.732   2.073   3.539
 7095WAT     H121527   4.671   2.149   3.562
 7095WAT     H221528   4.729   2.056   3.440
 7096WAT      O21529   3.947   0.522   3.286
 7096WAT     H121530   3.989   0.493   3.371
 7096WAT     H221531   3.858   0.477   3.276
 7097WAT      O21532   6.539   1.235   5.309
 7097WAT     H121533   6.572   1.311   5.365
 7097WAT     H221534   6.594   1.228   5.226
 7098WAT      O21535   6.458   8.397   6.712
 7098WAT     H121536   6.524   8.323   6.700
 7098WAT     H221537   6.443   8.414   6.809
 7099WAT      O21538   6.360   7.994   1.589
 7099WAT     H121539   6.457   7.976   1.608
 7099WAT     H221540   6.308   7.983   1.674
 7100WAT      O21541   2.023   1.693   8.141
 7100WAT     H121542   2.056   1.615   8.193
 7100WAT     H221543   1.939   1.728   8.183
 7101WAT      O21544   2.311   3.515   0.595
 7101WAT     H121545   2.405   3.482   0.604
 7101WAT     H221546   2.312   3.610   0.565
 7102WAT      O21547   1.607   0.055   3.122
 7102WAT     H121548   1.673   0.018   3.058
 7102WAT     H221549   1.549  -0.018   3.157
 7103WAT      O21550   1.425   2.200   5.716
 7103WAT     H121551   1.356   2.144   5.671
 7103WAT     H221552   1.486   2.239   5.647
 7104WAT      O21553   9.020   8.649   5.729
 7104WAT     H121554   8.982   8.674   5.818
 7104WAT     H221555   8.964   8.577   5.687
 7105WAT      O21556   4.853   2.361   2.097
 7105WAT     H121557   4.935   2.416   2.097
 7105WAT     H221558   4.780   2.407   2.046
 7106WAT      O21559   5.016   6.081   1.539
 7106WAT     H121560   5.028   5.983   1.550
 7106WAT     H221561   4.919   6.105   1.549
 7107WAT      O21562   0.380   3.265   2.835
 7107WAT     H121563   0.450   3.327   2.799
 7107WAT     H221564   0.291   3.310   2.830
 7108WAT      O21565   0.837   5.825   4.289
 7108WAT     H121566   0.865   5.874   4.372
 7108WAT     H221567   0.805   5.890   4.221
 7109WAT      O21568   1.512   8.466   0.441
 7109WAT     H121569   1.577   8.391   0.431
 7109WAT     H221570   1.419   8.429   0.445
 7110WAT      O21571   7.146   3.701   5.708
 7110WAT     H121572   7.075   3.653   5.657
 7110WAT     H221573   7.192   3.766   5.647
 7111WAT      O21574   0.903   3.663   6.770
 7111WAT     H121575   0.805   3.644   6.784
 7111WAT     H221576   0.941   3.595   6.706
 7112WAT      O21577   2.059   5.084   3.439
 7112WAT     H121578   2.022   5.056   3.528
 7112WAT     H221579   2.043   5.181   3.425
 7113WAT      O21580   5.767   1.503   5.282
 7113WAT     H121581   5.668   1.492   5.286
 7113WAT     H221582   5.790   1.591   5.241
 7114WAT      O21583   9.061   2.994   7.592
 7114WAT     H121584   9.158   2.979   7.611
 7114WAT     H221585   9.050   3.073   7.532
 7115WAT      O21586   4.474   1.446   6.193
 7115WAT     H121587   4.516   1.449   6.102
 7115WAT     H221588   4.502   1.363   6.240
 7116WAT      O21589   6.036   2.777   7.682
 7116WAT     H121590   5.970   2.706   7.659
 7116WAT     H221591   6.008   2.864   7.640
 7117WAT      O21592   6.881   0.891   4.896
 7117WAT     H121593   6.845   0.838   4.973
 7117WAT     H221594   6.979   0.875   4.886
 7118WAT      O21595   1.151   7.428   2.609
 7118WAT     H121596   1.113   7.466   2.694
 7118WAT     H221597   1.190   7.338   2.628
 7119WAT      O21598   7.976   3.045   0.421
 7119WAT     H121599   8.036   2.971   0.453
 7119WAT     H221600   7.887   3.006   0.397
 7120WAT      O21601   2.670   7.888   8.673
 7120WAT     H121602   2.725   7.927   8.747
 7120WAT     H221603   2.656   7.790   8.689
 7121WAT      O21604   4.574   3.332   8.602
 7121WAT     H121605   4.560   3.348   8.505
 7121WAT     H221606   4.625   3.246   8.615
 7122WAT      O21607   0.959   3.915   9.593
 7122WAT     H121608   0.996   3.823   9.580
 7122WAT     H221609   0.869   3.921   9.551
 7123WAT      O21610   4.484   8.887   9.512
 7123WAT     H121611   4.463   8.945   9.591
 7123WAT     H221612   4.427   8.915   9.435
 7124WAT      O21613   5.616   3.048   3.971
 7124WAT     H121614   5.612   2.958   4.013
 7124WAT     H221615   5.614   3.039   3.872
 7125WAT      O21616   2.287   3.517   4.860
 7125WAT     H121617   2.251   3.431   4.898
 7125WAT     H221618   2.386   3.521   4.875
 7126WAT      O21619   8.093   6.443   7.877
 7126WAT     H121620   7.993   6.439   7.870
 7126WAT     H221621   8.133   6.435   7.786
 7127WAT      O21622   1.555   7.326   4.592
 7127WAT     H121623   1.574   7.410   4.542
 7127WAT     H221624   1.623   7.256   4.569
 7128WAT      O21625   7.594   3.280   6.600
 7128WAT     H121626   7.623   3.350   6.666
 7128WAT     H221627   7.650   3.198   6.613
 7129WAT      O21628   5.100   7.556   7.208
 7129WAT     H121629   5.127   7.509   7.124
 7129WAT     H221630   5.026   7.620   7.189
 7130WAT      O21631   8.387   2.289   1.552
 7130WAT     H121632   8.335   2.252   1.475
 7130WAT     H221633   8.475   2.242   1.559
 7131WAT      O21634   7.139   8.260   8.168
 7131WAT     H121635   7.188   8.189   8.117
 7131WAT     H221636   7.043   8.259   8.142
 7132WAT      O21637   8.814   4.283   1.175
 7132WAT     H121638   8.744   4.260   1.108
 7132WAT     H221639   8.883   4.343   1.134
 7133WAT      O21640   5.719   8.972   0.945
 7133WAT     H121641   5.773   8.911   1.002
 7133WAT     H221642   5.729   9.066   0.977
 7134WAT      O21643   8.317   0.440   2.450
 7134WAT     H121644   8.414   0.425   2.467
 7134WAT     H221645   8.304   0.524   2.398
 7135WAT      O21646   8.919   1.339   8.111
 7135WAT     H121647   8.967   1.261   8.072
 7135WAT     H221648   8.865   1.310   8.190
 7136WAT      O21649   4.894   2.208   4.788
 7136WAT     H121650   4.922   2.198   4.693
 7136WAT     H221651   4.937   2.136   4.843
 7137WAT      O21652   4.326   7.501   1.401
 7137WAT     H121653   4.360   7.468   1.313
 7137WAT     H221654   4.269   7.582   1.386
 7138WAT      O21655   1.342   5.967   6.416
 7138WAT     H121656   1.384   5.917   6.340
 7138WAT     H221657   1.302   6.052   6.381
 7139WAT      O21658   2.879   0.615   2.596
 7139WAT     H121659   2.786   0.646   2.611
 7139WAT     H221660   2.937   0.644   2.672
 7140WAT      O21661   6.942   9.276   4.566
 7140WAT     H121662   6.986   9.238   4.485
 7140WAT     H221663   6.988   9.361   4.592
 7141WAT      O21664   8.757   1.656   0.418
 7141WAT     H121665   8.854   1.678   0.420
 7141WAT     H221666   8.739   1.585   0.350
 7142WAT      O21667   3.560   5.080   1.327
 7142WAT     H121668   3.635   5.125   1.277
 7142WAT     H221669   3.569   4.981   1.317
 7143WAT      O21670   6.500   0.756   6.236
 7143WAT     H121671   6.581   0.789   6.188
 7143WAT     H221672   6.506   0.657   6.249
 7144WAT      O21673   7.543   7.388   8.295
 7144WAT     H121674   7.466   7.439   8.333
 7144WAT     H221675   7.545   7.296   8.334
 7145WAT      O21676   5.569   4.469   0.323
 7145WAT     H121677   5.595   4.553   0.274
 7145WAT     H221678   5.606   4.390   0.275
 7146WAT      O21679   4.672   8.923   4.478
 7146WAT     H121680   4.700   9.016   4.455
 7146WAT     H221681   4.688   8.907   4.576
 7147WAT      O21682   3.724   7.505   2.874
 7147WAT     H121683   3.742   7.518   2.776
 7147WAT     H221684   3.697   7.593   2.914
 7148WAT      O21685   7.546   0.007   3.724
 7148WAT     H121686   7.565   0.086   3.666
 7148WAT     H221687   7.615   0.002   3.796
 7149WAT      O21688   7.935   3.518   7.106
 7149WAT     H121689   7.957   3.614   7.088
 7149WAT     H221690   7.860   3.489   7.047
 7150WAT      O21691   4.585   1.232   9.163
 7150WAT     H121692   4.503   1.260   9.112
 7150WAT     H221693   4.614   1.141   9.131
 7151WAT      O21694   8.998   2.373   2.040
 7151WAT     H121695   9.051   2.457   2.045
 7151WAT     H221696   9.033   2.307   2.107
 7152WAT      O21697   6.693   6.118   6.901
 7152WAT     H121698   6.615   6.172   6.932
 7152WAT     H221699   6.702   6.126   6.802
 7153WAT      O21700   1.435   7.735   4.532
 7153WAT     H121701   1.357   7.797   4.528
 7153WAT     H221702   1.490   7.757   4.613
 7154WAT      O21703   8.562   9.063   1.176
 7154WAT     H121704   8.646   9.117   1.181
 7154WAT     H221705   8.505   9.083   1.256
 7155WAT      O21706   9.299   7.813   4.707
 7155WAT     H121707   9.308   7.769   4.618
 7155WAT     H221708   9.355   7.765   4.774
 7156WAT      O21709   3.354   5.676   7.089
 7156WAT     H121710   3.440   5.626   7.078
 7156WAT     H221711   3.277   5.617   7.065
 7157WAT      O21712   4.390   3.946   1.485
 7157WAT     H121713   4.373   3.929   1.387
 7157WAT     H221714   4.469   3.893   1.515
 7158WAT      O21715   1.969   6.248   2.268
 7158WAT     H121716   1.908   6.328   2.268
 7158WAT     H221717   1.922   6.171   2.311
 7159WAT      O21718   6.381   2.327   1.927
 7159WAT     H121719   6.338   2.339   2.016
 7159WAT     H221720   6.310   2.324   1.856
 7160WAT      O21721   6.502   9.706   2.691
 7160WAT     H121722   6.539   9.793   2.723
 7160WAT     H221723   6.461   9.719   2.601
 7161WAT      O21724   7.061   1.310   9.063
 7161WAT     H121725   7.150   1.344   9.091
 7161WAT     H221726   7.018   1.375   9.000
 7162WAT      O21727   6.046   4.510   5.953
 7162WAT     H121728   5.971   4.571   5.927
 7162WAT     H221729   6.063   4.518   6.051
 7163WAT      O21730   1.615   7.048   9.189
 7163WAT     H121731   1.699   6.998   9.207
 7163WAT     H221732   1.637   7.136   9.146
 7164WAT      O21733   1.916   6.236   0.445
 7164WAT     H121734   1.987   6.304   0.425
 7164WAT     H221735   1.934   6.195   0.535
 7165WAT      O21736   0.306   4.627   2.439
 7165WAT     H121737   0.343   4.608   2.530
 7165WAT     H221738   0.323   4.550   2.378
 7166WAT      O21739   4.801   4.759   2.005
 7166WAT     H121740   4.850   4.825   2.062
 7166WAT     H221741   4.808   4.668   2.047
 7167WAT      O21742   4.213   9.352   1.277
 7167WAT     H121743   4.249   9.325   1.366
 7167WAT     H221744   4.120   9.318   1.267
 7168WAT      O21745   6.243   8.304   1.229
 7168WAT     H121746   6.226   8.372   1.300
 7168WAT     H221747   6.331   8.323   1.185
 7169WAT      O21748   7.310   1.448   3.681
 7169WAT     H121749   7.380   1.431   3.612
 7169WAT     H221750   7.226   1.399   3.656
 7170WAT      O21751   3.268   2.465   5.706
 7170WAT     H121752   3.290   2.437   5.799
 7170WAT     H221753   3.234   2.559   5.706
 7171WAT      O21754   3.672   7.639   8.869
 7171WAT     H121755   3.722   7.578   8.930
 7171WAT     H221756   3.722   7.726   8.861
 7172WAT      O21757   7.323   7.778   7.765
 7172WAT     H121758   7.271   7.705   7.811
 7172WAT     H221759   7.260   7.846   7.729
 7173WAT      O21760   5.024   8.900   2.641
 7173WAT     H121761   5.070   8.822   2.598
 7173WAT     H221762   5.091   8.960   2.684
 7174WAT      O21763   4.315   9.578   0.158
 7174WAT     H121764   4.317   9.673   0.190
 7174WAT     H221765   4.221   9.553   0.134
 7175WAT      O21766   5.680   6.934   5.750
 7175WAT     H121767   5.620   6.886   5.813
 7175WAT     H221768   5.774   6.901   5.760
 7176WAT      O21769   5.393   9.624   7.785
 7176WAT     H121770   5.432   9.604   7.695
 7176WAT     H221771   5.335   9.548   7.814
 7177WAT      O21772   3.553   3.428   7.987
 7177WAT     H121773   3.461   3.453   8.019
 7177WAT     H221774   3.610   3.510   7.983
 7178WAT      O21775   1.065   6.009   9.741
 7178WAT     H121776   0.984   6.046   9.787
 7178WAT     H221777   1.038   5.935   9.680
 7179WAT      O21778   7.107   5.604   7.055
 7179WAT     H121779   7.112   5.662   6.973
 7179WAT     H221780   7.124   5.660   7.136
 7180WAT      O21781   4.061   5.522   2.270
 7180WAT     H121782   4.139   5.522   2.332
 7180WAT     H221783   4.038   5.615   2.244
 7181WAT      O21784   9.498   8.763   4.887
 7181WAT     H121785   9.585   8.742   4.931
 7181WAT     H221786   9.475   8.859   4.902
 7182WAT      O21787   2.796   5.488   2.436
 7182WAT     H121788   2.798   5.586   2.412
 7182WAT     H221789   2.721   5.444   2.386
 7183WAT      O21790   4.489   5.289   1.037
 7183WAT     H121791   4.448   5.217   0.981
 7183WAT     H221792   4.431   5.371   1.033
 7184WAT      O21793   7.886   7.010   0.096
 7184WAT     H121794   7.819   7.080   0.122
 7184WAT     H221795   7.976   7.034   0.132
 7185WAT      O21796   7.772   7.441   3.849
 7185WAT     H121797   7.741   7.480   3.936
 7185WAT     H221798   7.792   7.344   3.862
 7186WAT      O21799   8.949   4.483   9.356
 7186WAT     H121800   8.928   4.484   9.258
 7186WAT     H221801   8.924   4.394   9.394
 7187WAT      O21802   6.992   0.636   5.953
 7187WAT     H121803   7.039   0.667   6.035
 7187WAT     H221804   6.992   0.709   5.885
 7188WAT      O21805   7.264   3.836   3.377
 7188WAT     H121806   7.294   3.741   3.362
 7188WAT     H221807   7.331   3.898   3.336
 7189WAT      O21808   3.389   2.552   7.368
 7189WAT     H121809   3.328   2.630   7.380
 7189WAT     H221810   3.406   2.537   7.271
 7190WAT      O21811   5.681   1.829   7.220
 7190WAT     H121812   5.765   1.876   7.245
 7190WAT     H221813   5.611   1.895   7.194
 7191WAT      O21814   8.886   1.209   2.021
 7191WAT     H121815   8.976   1.208   1.977
 7191WAT     H221816   8.887   1.150   2.101
 7192WAT      O21817   2.880   0.656   3.009
 7192WAT     H121818   2.804   0.678   2.947
 7192WAT     H221819   2.862   0.568   3.053
 7193WAT      O21820   0.021   0.701   6.248
 7193WAT     H121821  -0.021   0.656   6.327
 7193WAT     H221822   0.117   0.675   6.241
 7194WAT      O21823   0.468   5.770   2.531
 7194WAT     H121824   0.521   5.752   2.614
 7194WAT     H221825   0.370   5.762   2.552
 7195WAT      O21826   5.500   4.330   1.995
 7195WAT     H121827   5.530   4.390   1.920
 7195WAT     H221828   5.555   4.350   2.076
 7196WAT      O21829   3.425   8.744   8.728
 7196WAT     H121830   3.436   8.839   8.759
 7196WAT     H221831   3.468   8.733   8.639
 7197WAT      O21832   4.902   7.186   2.594
 7197WAT     H121833   4.994   7.162   2.626
 7197WAT     H221834   4.892   7.285   2.592
 7198WAT      O21835   4.839   8.780   7.392
 7198WAT     H121836   4.791   8.743   7.473
 7198WAT     H221837   4.866   8.874   7.410
 7199WAT      O21838   1.697   8.160   9.408
 7199WAT     H121839   1.629   8.202   9.348
 7199WAT     H221840   1.726   8.227   9.477
 7200WAT      O21841   3.155   7.228   7.265
 7200WAT     H121842   3.078   7.193   7.318
 7200WAT     H221843   3.129   7.234   7.169
 7201WAT      O21844   0.427   0.640   6.794
 7201WAT     H121845   0.405   0.709   6.863
 7201WAT     H221846   0.434   0.550   6.838
 7202WAT      O21847   1.673   7.268   3.520
 7202WAT     H121848   1.693   7.342   3.456
 7202WAT     H221849   1.694   7.180   3.477
 7203WAT      O21850   8.567   3.453   9.411
 7203WAT     H121851   8.493   3.387   9.398
 7203WAT     H221852   8.652   3.417   9.372
 7204WAT      O21853   3.764   5.767   9.860
 7204WAT     H121854   3.712   5.851   9.875
 7204WAT     H221855   3.773   5.751   9.762
 7205WAT      O21856   8.223   8.540   7.767
 7205WAT     H121857   8.300   8.477   7.770
 7205WAT     H221858   8.146   8.497   7.720
 7206WAT      O21859   4.743   1.266   0.527
 7206WAT     H121860   4.796   1.182   0.513
 7206WAT     H221861   4.782   1.317   0.604
 7207WAT      O21862   8.800   8.426   6.735
 7207WAT     H121863   8.828   8.484   6.812
 7207WAT     H221864   8.702   8.410   6.740
 7208WAT      O21865   8.798   6.969   8.239
 7208WAT     H121866   8.831   6.982   8.333
 7208WAT     H221867   8.861   6.908   8.191
 7209WAT      O21868   8.232   1.971   1.708
 7209WAT     H121869   8.154   1.984   1.645
 7209WAT     H221870   8.317   1.969   1.655
 7210WAT      O21871   1.304   2.712   4.494
 7210WAT     H121872   1.353   2.648   4.435
 7210WAT     H221873   1.336   2.703   4.588
 7211WAT      O21874   6.035   7.219   6.502
 7211WAT     H121875   6.129   7.246   6.522
 7211WAT     H221876   5.977   7.300   6.495
 7212WAT      O21877   8.446   9.357   3.982
 7212WAT     H121878   8.421   9.265   4.010
 7212WAT     H221879   8.539   9.357   3.946
 7213WAT      O21880   5.878   2.705   2.490
 7213WAT     H121881   5.922   2.740   2.572
 7213WAT     H221882   5.823   2.777   2.447
 7214WAT      O21883   3.605   5.618   0.972
 7214WAT     H121884   3.704   5.612   0.971
 7214WAT     H221885   3.565   5.526   0.978
 7215WAT      O21886   7.782   4.410   5.796
 7215WAT     H121887   7.756   4.498   5.756
 7215WAT     H221888   7.857   4.424   5.861
 7216WAT      O21889   5.956   3.282   7.440
 7216WAT     H121890   5.901   3.316   7.516
 7216WAT     H221891   5.998   3.358   7.391
 7217WAT      O21892   6.550   2.118   0.060
 7217WAT     H121893   6.488   2.050   0.100
 7217WAT     H221894   6.498   2.200   0.038
 7218WAT      O21895   4.181   1.450   6.143
 7218WAT     H121896   4.183   1.359   6.101
 7218WAT     H221897   4.274   1.476   6.168
 7219WAT      O21898   3.515   1.234   1.275
 7219WAT     H121899   3.519   1.297   1.197
 7219WAT     H221900   3.580   1.160   1.261
 7220WAT      O21901   1.845   2.931   9.337
 7220WAT     H121902   1.792   3.013   9.315
 7220WAT     H221903   1.791   2.850   9.315
 7221WAT      O21904   9.113   5.010   3.259
 7221WAT     H121905   9.057   5.091   3.240
 7221WAT     H221906   9.059   4.928   3.239
 7222WAT      O21907   0.776   6.467   2.342
 7222WAT     H121908   0.704   6.455   2.273
 7222WAT     H221909   0.847   6.527   2.306
 7223WAT      O21910   1.036   4.731   9.481
 7223WAT     H121911   1.108   4.797   9.503
 7223WAT     H221912   1.009   4.742   9.385
 7224WAT      O21913   4.271   0.045   8.556
 7224WAT     H121914   4.213   0.032   8.475
 7224WAT     H221915   4.347   0.106   8.534
 7225WAT      O21916   1.680   8.621   4.111
 7225WAT     H121917   1.612   8.669   4.166
 7225WAT     H221918   1.695   8.529   4.148
 7226WAT      O21919   3.225   5.766   9.304
 7226WAT     H121920   3.128   5.741   9.301
 7226WAT     H221921   3.281   5.686   9.282
 7227WAT      O21922   8.153   6.241   5.966
 7227WAT     H121923   8.187   6.256   5.873
 7227WAT     H221924   8.079   6.305   5.985
 7228WAT      O21925   9.463   3.849   6.265
 7228WAT     H121926   9.404   3.929   6.271
 7228WAT     H221927   9.518   3.854   6.182
 7229WAT      O21928   7.174   2.558   4.031
 7229WAT     H121929   7.186   2.468   3.990
 7229WAT     H221930   7.091   2.600   3.993
 7230WAT      O21931   9.308   8.237   3.992
 7230WAT     H121932   9.344   8.152   3.955
 7230WAT     H221933   9.277   8.296   3.917
 7231WAT      O21934   3.445   3.171   2.399
 7231WAT     H121935   3.461   3.099   2.331
 7231WAT     H221936   3.441   3.131   2.490
 7232WAT      O21937   3.418   5.095   3.390
 7232WAT     H121938   3.463   5.009   3.415
 7232WAT     H221939   3.430   5.162   3.464
 7233WAT      O21940   2.812   5.691   4.338
 7233WAT     H121941   2.803   5.600   4.297
 7233WAT     H221942   2.735   5.707   4.400
 7234WAT      O21943   7.652   2.797   7.875
 7234WAT     H121944   7.594   2.857   7.820
 7234WAT     H221945   7.619   2.703   7.866
 7235WAT      O21946   7.837   0.572   6.416
 7235WAT     H121947   7.833   0.667   6.445
 7235WAT     H221948   7.764   0.554   6.350
 7236WAT      O21949   9.013   6.836   7.871
 7236WAT     H121950   8.919   6.833   7.834
 7236WAT     H221951   9.077   6.849   7.796
 7237WAT      O21952   4.276   4.234   4.895
 7237WAT     H121953   4.286   4.299   4.971
 7237WAT     H221954   4.367   4.206   4.864
 7238WAT      O21955   3.051   4.370   8.551
 7238WAT     H121956   2.987   4.400   8.621
 7238WAT     H221957   3.056   4.270   8.550
 7239WAT      O21958   0.271   2.125   0.711
 7239WAT     H121959   0.298   2.126   0.614
 7239WAT     H221960   0.324   2.195   0.760
 7240WAT      O21961   5.842   5.852   2.941
 7240WAT     H121962   5.938   5.844   2.914
 7240WAT     H221963   5.818   5.776   3.001
 7241WAT      O21964   0.368   8.931   8.218
 7241WAT     H121965   0.433   8.986   8.271
 7241WAT     H221966   0.418   8.870   8.156
 7242WAT      O21967   6.809   4.367   5.750
 7242WAT     H121968   6.742   4.370   5.825
 7242WAT     H221969   6.849   4.276   5.745
 7243WAT      O21970   7.855   9.148   1.753
 7243WAT     H121971   7.849   9.050   1.735
 7243WAT     H221972   7.949   9.178   1.740
 7244WAT      O21973   8.067   6.485   2.834
 7244WAT     H121974   8.004   6.495   2.911
 7244WAT     H221975   8.071   6.389   2.807
 7245WAT      O21976   1.681   6.224   1.400
 7245WAT     H121977   1.711   6.300   1.342
 7245WAT     H221978   1.654   6.147   1.343
 7246WAT      O21979   1.560   6.506   4.557
 7246WAT     H121980   1.585   6.545   4.469
 7246WAT     H221981   1.605   6.557   4.631
 7247WAT      O21982   4.750   7.946   8.947
 7247WAT     H121983   4.756   7.940   8.847
 7247WAT     H221984   4.815   8.014   8.980
 7248WAT      O21985   3.474   9.671   0.526
 7248WAT     H121986   3.516   9.637   0.611
 7248WAT     H221987   3.395   9.728   0.548
 7249WAT      O21988   2.225   2.295   7.011
 7249WAT     H121989   2.215   2.272   6.914
 7249WAT     H221990   2.279   2.224   7.056
 7250WAT      O21991   0.527   8.530   2.466
 7250WAT     H121992   0.600   8.512   2.401
 7250WAT     H221993   0.565   8.575   2.547
 7251WAT      O21994   2.100   1.296   8.992
 7251WAT     H121995   2.073   1.305   9.088
 7251WAT     H221996   2.109   1.199   8.970
 7252WAT      O21997   7.669   4.542   4.914
 7252WAT     H121998   7.581   4.569   4.875
 7252WAT     H221999   7.695   4.451   4.880
 7253WAT      O22000   1.461   6.201   6.162
 7253WAT     H122001   1.364   6.185   6.177
 7253WAT     H222002   1.489   6.285   6.209
 7254WAT      O22003   8.158   6.076   9.467
 7254WAT     H122004   8.241   6.024   9.485
 7254WAT     H222005   8.128   6.121   9.551
 7255WAT      O22006   8.389   2.404   4.001
 7255WAT     H122007   8.464   2.466   3.980
 7255WAT     H222008   8.326   2.399   3.924
 7256WAT      O22009   2.644   2.846   6.797
 7256WAT     H122010   2.705   2.788   6.744
 7256WAT     H222011   2.693   2.927   6.828
 7257WAT      O22012   6.908   0.503   3.672
 7257WAT     H122013   6.906   0.434   3.599
 7257WAT     H222014   6.976   0.573   3.650
 7258WAT      O22015   4.474   8.498   8.399
 7258WAT     H122016   4.461   8.588   8.357
 7258WAT     H222017   4.390   8.471   8.446
 7259WAT      O22018   8.895   1.485   7.472
 7259WAT     H122019   8.937   1.416   7.412
 7259WAT     H222020   8.796   1.469   7.476
 7260WAT      O22021   8.480   1.529   8.200
 7260WAT     H122022   8.571   1.536   8.158
 7260WAT     H222023   8.447   1.435   8.192
 7261WAT      O22024   2.270   1.609   8.326
 7261WAT     H122025   2.311   1.599   8.235
 7261WAT     H222026   2.279   1.523   8.377
 7262WAT      O22027   1.510   2.957   8.703
 7262WAT     H122028   1.478   2.881   8.759
 7262WAT     H222029   1.438   3.025   8.694
 7263WAT      O22030   6.274   1.588   9.049
 7263WAT     H122031   6.257   1.511   8.988
 7263WAT     H222032   6.203   1.591   9.119
 7264WAT      O22033   8.070   5.725   2.961
 7264WAT     H122034   8.050   5.723   2.863
 7264WAT     H222035   8.155   5.776   2.977
 7265WAT      O22036   5.177   8.728   5.087
 7265WAT     H122037   5.151   8.782   5.006
 7265WAT     H222038   5.227   8.646   5.058
 7266WAT      O22039   3.475   0.636   2.941
 7266WAT     H122040   3.572   0.624   2.964
 7266WAT     H222041   3.465   0.706   2.870
 7267WAT      O22042   7.560   3.953   5.194
 7267WAT     H122043   7.632   3.885   5.182
 7267WAT     H222044   7.589   4.040   5.154
 7268WAT      O22045   3.763   7.500   2.593
 7268WAT     H122046   3.710   7.528   2.512
 7268WAT     H222047   3.860   7.490   2.568
 7269WAT      O22048   3.073   3.591   6.678
 7269WAT     H122049   3.033   3.679   6.703
 7269WAT     H222050   3.151   3.571   6.736
 7270WAT      O22051   7.882   1.004   5.167
 7270WAT     H122052   7.872   0.923   5.224
 7270WAT     H222053   7.941   1.071   5.213
 7271WAT      O22054   0.270   1.900   6.017
 7271WAT     H122055   0.345   1.845   6.053
 7271WAT     H222056   0.272   1.991   6.058
 7272WAT      O22057   1.602   2.537   5.801
 7272WAT     H122058   1.695   2.572   5.815
 7272WAT     H222059   1.601   2.478   5.720
 7273WAT      O22060   5.259   4.564   9.380
 7273WAT     H122061   5.219   4.589   9.291
 7273WAT     H222062   5.313   4.480   9.369
 7274WAT      O22063   2.607   7.330   1.404
 7274WAT     H122064   2.580   7.303   1.311
 7274WAT     H222065   2.552   7.280   1.470
 7275WAT      O22066   7.068   3.540   1.847
 7275WAT     H122067   7.079   3.492   1.934
 7275WAT     H222068   6.986   3.505   1.800
 7276WAT      O22069   0.601   6.182   8.389
 7276WAT     H122070   0.691   6.191   8.346
 7276WAT     H222071   0.530   6.184   8.319
 7277WAT      O22072   5.925   0.532   8.254
 7277WAT     H122073   5.986   0.603   8.289
 7277WAT     H222074   5.935   0.525   8.155
 7278WAT      O22075   8.091   7.236   4.006
 7278WAT     H122076   8.150   7.303   3.961
 7278WAT     H222077   8.010   7.220   3.949
 7279WAT      O22078   7.758   4.730   0.684
 7279WAT     H122079   7.734   4.797   0.614
 7279WAT     H222080   7.842   4.682   0.657
 7280WAT      O22081   7.927   8.833   2.371
 7280WAT     H122082   7.862   8.862   2.301
 7280WAT     H222083   8.007   8.893   2.369
 7281WAT      O22084   6.621   2.645   9.299
 7281WAT     H122085   6.649   2.639   9.203
 7281WAT     H222086   6.699   2.625   9.358
 7282WAT      O22087   8.968   3.910   0.759
 7282WAT     H122088   9.046   3.858   0.724
 7282WAT     H222089   8.975   3.916   0.859
 7283WAT      O22090   9.556   3.021   2.394
 7283WAT     H122091   9.512   2.932   2.389
 7283WAT     H222092   9.648   3.011   2.431
 7284WAT      O22093   6.563   6.392   7.746
 7284WAT     H122094   6.650   6.358   7.781
 7284WAT     H222095   6.529   6.465   7.806
 7285WAT      O22096   6.799   4.068   1.810
 7285WAT     H122097   6.738   4.090   1.734
 7285WAT     H222098   6.757   3.997   1.867
 7286WAT      O22099   2.291   9.139   8.014
 7286WAT     H122100   2.330   9.172   8.100
 7286WAT     H222101   2.192   9.131   8.024
 7287WAT      O22102   0.063   2.333   0.807
 7287WAT     H122103  -0.034   2.316   0.788
 7287WAT     H222104   0.119   2.269   0.755
 7288WAT      O22105   9.864   5.079   2.572
 7288WAT     H122106   9.898   5.170   2.550
 7288WAT     H222107   9.933   5.010   2.552
 7289WAT      O22108   2.711   4.007   5.546
 7289WAT     H122109   2.621   4.049   5.558
 7289WAT     H222110   2.703   3.908   5.553
 7290WAT      O22111   2.555   2.316   4.623
 7290WAT     H122112   2.485   2.347   4.687
 7290WAT     H222113   2.640   2.365   4.641
 7291WAT      O22114   3.332   1.457   7.821
 7291WAT     H122115   3.379   1.369   7.811
 7291WAT     H222116   3.340   1.489   7.915
 7292WAT      O22117   1.848   6.092   5.312
 7292WAT     H122118   1.928   6.150   5.325
 7292WAT     H222119   1.834   6.036   5.393
 7293WAT      O22120   9.196   8.731   4.319
 7293WAT     H122121   9.239   8.747   4.407
 7293WAT     H222122   9.265   8.703   4.252
 7294WAT      O22123   8.854   3.493   0.833
 7294WAT     H122124   8.852   3.433   0.913
 7294WAT     H222125   8.818   3.583   0.858
 7295WAT      O22126   7.888   8.011   9.311
 7295WAT     H122127   7.865   8.103   9.279
 7295WAT     H222128   7.974   7.982   9.269
 7296WAT      O22129   7.450   3.604   8.425
 7296WAT     H122130   7.392   3.664   8.370
 7296WAT     H222131   7.485   3.654   8.504
 7297WAT      O22132   9.465   0.186   9.161
 7297WAT     H122133   9.556   0.183   9.201
 7297WAT     H222134   9.415   0.103   9.184
 7298WAT      O22135   1.480   6.341   4.775
 7298WAT     H122136   1.516   6.403   4.705
 7298WAT     H222137   1.526   6.359   4.862
 7299WAT      O22138   8.136   8.557   8.402
 7299WAT     H122139   8.218   8.535   8.455
 7299WAT     H222140   8.143   8.651   8.368
 7300WAT      O22141   9.270   3.239   9.276
 7300WAT     H122142   9.320   3.183   9.210
 7300WAT     H222143   9.324   3.320   9.299
 7301WAT      O22144   7.052   7.742   4.281
 7301WAT     H122145   7.085   7.816   4.338
 7301WAT     H222146   7.113   7.729   4.203
 7302WAT      O22147   9.543   6.719   2.445
 7302WAT     H122148   9.604   6.779   2.393
 7302WAT     H222149   9.575   6.624   2.436
 7303WAT      O22150   6.898   6.274   5.867
 7303WAT     H122151   6.941   6.208   5.805
 7303WAT     H222152   6.969   6.322   5.919
 7304WAT      O22153   8.808   1.610   8.384
 7304WAT     H122154   8.773   1.569   8.468
 7304WAT     H222155   8.774   1.560   8.305
 7305WAT      O22156   4.333   3.871   2.924
 7305WAT     H122157   4.394   3.949   2.938
 7305WAT     H222158   4.388   3.788   2.914
 7306WAT      O22159   3.445   6.831   8.681
 7306WAT     H122160   3.440   6.777   8.765
 7306WAT     H222161   3.538   6.828   8.645
 7307WAT      O22162   4.875   4.207   0.429
 7307WAT     H122163   4.940   4.208   0.505
 7307WAT     H222164   4.902   4.138   0.362
 7308WAT      O22165   9.387   5.894   9.002
 7308WAT     H122166   9.449   5.921   8.928
 7308WAT     H222167   9.333   5.815   8.972
 7309WAT      O22168   3.759   7.883   0.413
 7309WAT     H122169   3.684   7.857   0.353
 7309WAT     H222170   3.784   7.979   0.396
 7310WAT      O22171   6.894   5.712   4.696
 7310WAT     H122172   6.808   5.662   4.689
 7310WAT     H222173   6.966   5.664   4.646
 7311WAT      O22174   1.158   9.758   8.368
 7311WAT     H122175   1.166   9.838   8.308
 7311WAT     H222176   1.064   9.723   8.366
 7312WAT      O22177   6.345   0.984   9.506
 7312WAT     H122178   6.248   1.001   9.518
 7312WAT     H222179   6.362   0.885   9.510
 7313WAT      O22180   1.393   7.277   1.086
 7313WAT     H122181   1.391   7.196   1.028
 7313WAT     H222182   1.409   7.249   1.181
 7314WAT      O22183   7.554   2.188   1.121
 7314WAT     H122184   7.470   2.213   1.074
 7314WAT     H222185   7.625   2.167   1.054
 7315WAT      O22186   4.022   2.935   9.331
 7315WAT     H122187   3.971   2.971   9.253
 7315WAT     H222188   4.088   3.003   9.362
 7316WAT      O22189   6.818   3.494   1.780
 7316WAT     H122190   6.735   3.440   1.770
 7316WAT     H222191   6.795   3.588   1.802
 7317WAT      O22192   3.421   1.477   7.029
 7317WAT     H122193   3.343   1.518   7.077
 7317WAT     H222194   3.482   1.550   6.998
 7318WAT      O22195   4.072   8.381   8.963
 7318WAT     H122196   4.107   8.398   9.055
 7318WAT     H222197   4.016   8.298   8.964
 7319WAT      O22198   5.373   7.905   7.828
 7319WAT     H122199   5.302   7.971   7.853
 7319WAT     H222200   5.337   7.840   7.761
 7320WAT      O22201   7.970   8.825   2.011
 7320WAT     H122202   8.044   8.889   1.990
 7320WAT     H222203   8.008   8.746   2.059
 7321WAT      O22204   7.780   3.501   1.356
 7321WAT     H122205   7.872   3.464   1.364
 7321WAT     H222206   7.718   3.431   1.319
 7322WAT      O22207   2.867   9.405   6.505
 7322WAT     H122208   2.835   9.320   6.463
 7322WAT     H222209   2.841   9.482   6.447
 7323WAT      O22210   3.122   3.063   7.023
 7323WAT     H122211   3.204   3.052   7.080
 7323WAT     H222212   3.096   3.159   7.021
 7324WAT      O22213   6.763   6.953   0.449
 7324WAT     H122214   6.804   6.887   0.512
 7324WAT     H222215   6.786   6.929   0.355
 7325WAT      O22216   7.376   5.072   6.251
 7325WAT     H122217   7.283   5.109   6.258
 7325WAT     H222218   7.441   5.140   6.283
 7326WAT      O22219   6.179   2.803   2.922
 7326WAT     H122220   6.189   2.898   2.892
 7326WAT     H222221   6.094   2.793   2.974
 7327WAT      O22222   7.987   7.501   4.411
 7327WAT     H122223   8.025   7.414   4.382
 7327WAT     H222224   7.983   7.564   4.333
 7328WAT      O22225   7.502   9.455   5.758
 7328WAT     H122226   7.525   9.475   5.663
 7328WAT     H222227   7.531   9.362   5.782
 7329WAT      O22228   0.076   7.107   6.386
 7329WAT     H122229   0.095   7.174   6.314
 7329WAT     H222230   0.135   7.027   6.374
 7330WAT      O22231   3.084   3.948   7.952
 7330WAT     H122232   3.169   3.898   7.971
 7330WAT     H222233   3.100   4.015   7.880
 7331WAT      O22234   7.333   8.045   0.773
 7331WAT     H122235   7.325   8.075   0.868
 7331WAT     H222236   7.400   7.971   0.767
 7332WAT      O22237   8.848   9.635   9.572
 7332WAT     H122238   8.838   9.607   9.476
 7332WAT     H222239   8.945   9.636   9.596
 7333WAT      O22240   2.013   3.172   3.413
 7333WAT     H122241   1.922   3.132   3.403
 7333WAT     H222242   2.076   3.125   3.351
 7334WAT      O22243   6.442   0.458   2.435
 7334WAT     H122244   6.414   0.416   2.521
 7334WAT     H222245   6.454   0.556   2.448
 7335WAT      O22246   1.620   8.246   0.645
 7335WAT     H122247   1.587   8.261   0.738
 7335WAT     H222248   1.684   8.318   0.619
 7336WAT      O22249   3.337   4.481   7.466
 7336WAT     H122250   3.308   4.440   7.379
 7336WAT     H222251   3.264   4.538   7.503
 7337WAT      O22252   3.646   2.780   8.256
 7337WAT     H122253   3.683   2.763   8.165
 7337WAT     H222254   3.721   2.806   8.317
 7338WAT      O22255   2.245   1.535   6.911
 7338WAT     H122256   2.320   1.590   6.874
 7338WAT     H222257   2.232   1.557   7.008
 7339WAT      O22258   8.169   4.263   7.961
 7339WAT     H122259   8.151   4.174   7.918
 7339WAT     H222260   8.172   4.253   8.060
 7340WAT      O22261   2.985   8.674   1.423
 7340WAT     H122262   2.937   8.595   1.386
 7340WAT     H222263   3.075   8.682   1.381
 7341WAT      O22264   9.575   3.765   3.795
 7341WAT     H122265   9.492   3.709   3.789
 7341WAT     H222266   9.552   3.856   3.829
 7342WAT      O22267   9.871   2.362   2.674
 7342WAT     H122268   9.894   2.404   2.762
 7342WAT     H222269   9.894   2.265   2.676
 7343WAT      O22270   6.453   1.398   1.444
 7343WAT     H122271   6.365   1.351   1.435
 7343WAT     H222272   6.507   1.353   1.515
 7344WAT      O22273   3.916   8.992   5.648
 7344WAT     H122274   3.925   9.091   5.658
 7344WAT     H222275   3.836   8.971   5.592
 7345WAT      O22276   5.691   2.746   3.768
 7345WAT     H122277   5.635   2.664   3.777
 7345WAT     H222278   5.754   2.752   3.845
 7346WAT      O22279   1.708   4.129   2.967
 7346WAT     H122280   1.725   4.106   2.871
 7346WAT     H222281   1.612   4.152   2.979
 7347WAT      O22282   8.170   3.903   3.029
 7347WAT     H122283   8.212   3.903   3.120
 7347WAT     H222284   8.217   3.969   2.971
 7348WAT      O22285   6.698   0.447   7.206
 7348WAT     H122286   6.690   0.469   7.108
 7348WAT     H222287   6.634   0.505   7.257
 7349WAT      O22288   0.798   1.237   1.520
 7349WAT     H122289   0.778   1.241   1.422
 7349WAT     H222290   0.885   1.283   1.538
 7350WAT      O22291   6.789   5.648   9.816
 7350WAT     H122292   6.810   5.739   9.849
 7350WAT     H222293   6.690   5.640   9.801
 7351WAT      O22294   7.407   1.523   7.962
 7351WAT     H122295   7.467   1.477   8.028
 7351WAT     H222296   7.379   1.457   7.892
 7352WAT      O22297   9.485   9.268   5.629
 7352WAT     H122298   9.523   9.188   5.677
 7352WAT     H222299   9.417   9.313   5.686
 7353WAT      O22300   5.176   8.691   2.556
 7353WAT     H122301   5.243   8.742   2.611
 7353WAT     H222302   5.224   8.638   2.486
 7354WAT      O22303   2.723   0.206   9.152
 7354WAT     H122304   2.753   0.123   9.199
 7354WAT     H222305   2.733   0.194   9.053
 7355WAT      O22306   5.290   0.327   2.276
 7355WAT     H122307   5.266   0.247   2.222
 7355WAT     H222308   5.217   0.348   2.341
 7356WAT      O22309   6.556   2.960   4.176
 7356WAT     H122310   6.464   2.947   4.140
 7356WAT     H222311   6.595   3.043   4.137
 7357WAT      O22312   6.832   5.824   1.807
 7357WAT     H122313   6.838   5.727   1.833
 7357WAT     H222314   6.803   5.878   1.886
 7358WAT      O22315   6.296   7.185   2.161
 7358WAT     H122316   6.354   7.223   2.233
 7358WAT     H222317   6.245   7.107   2.197
 7359WAT      O22318   8.896   6.659   0.177
 7359WAT     H122319   8.996   6.653   0.181
 7359WAT     H222320   8.869   6.729   0.111
 7360WAT      O22321   7.411   9.824   5.599
 7360WAT     H122322   7.345   9.898   5.608
 7360WAT     H222323   7.445   9.820   5.505
 7361WAT      O22324   3.692   6.434   1.156
 7361WAT     H122325   3.743   6.422   1.071
 7361WAT     H222326   3.741   6.496   1.217
 7362WAT      O22327   4.002   3.791   1.777
 7362WAT     H122328   4.051   3.827   1.856
 7362WAT     H222329   3.935   3.857   1.745
 7363WAT      O22330   4.769   2.386   6.026
 7363WAT     H122331   4.751   2.316   5.957
 7363WAT     H222332   4.705   2.462   6.013
 7364WAT      O22333   4.710   4.703   3.335
 7364WAT     H122334   4.752   4.790   3.359
 7364WAT     H222335   4.772   4.651   3.276
 7365WAT      O22336   6.220   4.969   5.196
 7365WAT     H122337   6.152   5.031   5.155
 7365WAT     H222338   6.310   5.011   5.190
 7366WAT      O22339   6.022   7.759   9.705
 7366WAT     H122340   5.946   7.727   9.649
 7366WAT     H222341   5.999   7.748   9.802
 7367WAT      O22342   7.054   2.569   8.509
 7367WAT     H122343   7.003   2.485   8.495
 7367WAT     H222344   7.138   2.567   8.455
 7368WAT      O22345   6.598   1.851   3.149
 7368WAT     H122346   6.638   1.892   3.232
 7368WAT     H222347   6.552   1.766   3.173
 7369WAT      O22348   4.656   7.728   9.080
 7369WAT     H122349   4.736   7.684   9.122
 7369WAT     H222350   4.687   7.806   9.024
 7370WAT      O22351   7.675   1.711   8.142
 7370WAT     H122352   7.620   1.792   8.164
 7370WAT     H222353   7.636   1.631   8.187
 7371WAT      O22354   6.078   2.562   8.935
 7371WAT     H122355   6.137   2.499   8.985
 7371WAT     H222356   6.057   2.524   8.845
 7372WAT      O22357   4.330   9.130   3.083
 7372WAT     H122358   4.243   9.126   3.132
 7372WAT     H222359   4.402   9.163   3.144
 7373WAT      O22360   8.883   7.666   3.586
 7373WAT     H122361   8.841   7.627   3.669
 7373WAT     H222362   8.836   7.631   3.506
 7374WAT      O22363   6.744   0.491   3.892
 7374WAT     H122364   6.803   0.485   3.812
 7374WAT     H222365   6.791   0.452   3.971
 7375WAT      O22366   4.713   6.463   2.364
 7375WAT     H122367   4.633   6.406   2.343
 7375WAT     H222368   4.721   6.535   2.295
 7376WAT      O22369   7.133   8.391   5.669
 7376WAT     H122370   7.068   8.378   5.594
 7376WAT     H222371   7.100   8.464   5.729
 7377WAT      O22372   7.541   9.630   5.384
 7377WAT     H122373   7.625   9.653   5.433
 7377WAT     H222374   7.546   9.666   5.290
 7378WAT      O22375   7.818   4.818   7.921
 7378WAT     H122376   7.832   4.794   8.017
 7378WAT     H222377   7.817   4.734   7.866
 7379WAT      O22378   9.219   5.014   3.629
 7379WAT     H122379   9.291   5.046   3.567
 7379WAT     H222380   9.209   4.915   3.621
 7380WAT      O22381   2.858   9.832   4.192
 7380WAT     H122382   2.822   9.805   4.103
 7380WAT     H222383   2.783   9.859   4.252
 7381WAT      O22384   0.168   9.589   0.307
 7381WAT     H122385   0.109   9.637   0.371
 7381WAT     H222386   0.155   9.626   0.215
 7382WAT      O22387   8.415   1.829   1.204
 7382WAT     H122388   8.348   1.825   1.129
 7382WAT     H222389   8.501   1.790   1.173
 7383WAT      O22390   3.275   8.008   6.200
 7383WAT     H122391   3.329   8.010   6.284
 7383WAT     H222392   3.302   7.929   6.145
 7384WAT      O22393   0.355   6.346   6.498
 7384WAT     H122394   0.332   6.401   6.579
 7384WAT     H222395   0.271   6.305   6.462
 7385WAT      O22396   0.015   0.840   2.875
 7385WAT     H122397   0.100   0.861   2.825
 7385WAT     H222398  -0.017   0.749   2.850
 7386WAT      O22399   1.605   6.708   0.968
 7386WAT     H122400   1.604   6.708   1.068
 7386WAT     H222401   1.524   6.662   0.933
 7387WAT      O22402   5.378   1.865   5.560
 7387WAT     H122403   5.416   1.953   5.588
 7387WAT     H222404   5.313   1.834   5.629
 7388WAT      O22405   5.117   9.703   0.652
 7388WAT     H122406   5.071   9.700   0.741
 7388WAT     H222407   5.051   9.731   0.582
 7389WAT      O22408   5.029   0.389   9.439
 7389WAT     H122409   4.987   0.429   9.521
 7389WAT     H222410   5.106   0.331   9.467
 7390WAT      O22411   3.821   8.007   5.009
 7390WAT     H122412   3.763   8.075   5.054
 7390WAT     H222413   3.794   7.998   4.913
 7391WAT      O22414   0.962   6.771   5.911
 7391WAT     H122415   0.930   6.676   5.918
 7391WAT     H222416   0.964   6.798   5.814
 7392WAT      O22417   8.896   1.815   3.031
 7392WAT     H122418   8.932   1.792   2.941
 7392WAT     H222419   8.804   1.853   3.022
 7393WAT      O22420   5.734   9.247   1.016
 7393WAT     H122421   5.662   9.202   1.070
 7393WAT     H222422   5.695   9.325   0.967
 7394WAT      O22423   2.141   4.841   2.767
 7394WAT     H122424   2.239   4.856   2.755
 7394WAT     H222425   2.101   4.920   2.813
 7395WAT      O22426   4.157   2.769   6.866
 7395WAT     H122427   4.183   2.866   6.869
 7395WAT     H222428   4.220   2.720   6.806
 7396WAT      O22429   1.542   2.693   3.462
 7396WAT     H122430   1.585   2.763   3.404
 7396WAT     H222431   1.443   2.707   3.461
 7397WAT      O22432   1.927   7.250   3.167
 7397WAT     H122433   1.990   7.214   3.099
 7397WAT     H222434   1.856   7.304   3.121
 7398WAT      O22435   7.067   4.200   5.577
 7398WAT     H122436   6.993   4.157   5.628
 7398WAT     H222437   7.117   4.263   5.637
 7399WAT      O22438   0.566   1.482   2.266
 7399WAT     H122439   0.654   1.515   2.233
 7399WAT     H222440   0.517   1.558   2.310
 7400WAT      O22441   9.762   2.794   2.204
 7400WAT     H122442   9.765   2.824   2.299
 7400WAT     H222443   9.742   2.873   2.145
 7401WAT      O22444   7.711   2.836   0.747
 7401WAT     H122445   7.631   2.891   0.721
 7401WAT     H222446   7.727   2.766   0.678
 7402WAT      O22447   4.824   1.062   1.017
 7402WAT     H122448   4.859   1.150   1.050
 7402WAT     H222449   4.877   0.988   1.057
 7403WAT      O22450   5.164   4.349   2.723
 7403WAT     H122451   5.229   4.414   2.683
 7403WAT     H222452   5.211   4.263   2.742
 7404WAT      O22453   8.325   4.631   8.459
 7404WAT     H122454   8.415   4.615   8.419
 7404WAT     H222455   8.281   4.708   8.413
 7405WAT      O22456   7.791   3.995   0.806
 7405WAT     H122457   7.702   3.982   0.761
 7405WAT     H222458   7.778   4.049   0.890
 7406WAT      O22459   9.169   4.816   4.368
 7406WAT     H122460   9.117   4.751   4.423
 7406WAT     H222461   9.133   4.817   4.275
 7407WAT      O22462   8.873   4.601   0.145
 7407WAT     H122463   8.864   4.533   0.072
 7407WAT     H222464   8.955   4.657   0.129
 7408WAT      O22465   9.340   2.705   7.431
 7408WAT     H122466   9.383   2.795   7.444
 7408WAT     H222467   9.374   2.664   7.346
 7409WAT      O22468   2.438   2.081   4.126
 7409WAT     H122469   2.388   2.143   4.187
 7409WAT     H222470   2.507   2.032   4.178
 7410WAT      O22471   6.445   3.743   7.762
 7410WAT     H122472   6.401   3.698   7.839
 7410WAT     H222473   6.392   3.727   7.679
 7411WAT      O22474   1.324   5.481   7.072
 7411WAT     H122475   1.267   5.515   6.998
 7411WAT     H222476   1.396   5.422   7.034
 7412WAT      O22477   6.795   2.850   7.189
 7412WAT     H122478   6.704   2.867   7.152
 7412WAT     H222479   6.787   2.813   7.282
 7413WAT      O22480   2.113   2.499   8.274
 7413WAT     H122481   2.197   2.509   8.220
 7413WAT     H222482   2.067   2.414   8.247
 7414WAT      O22483   8.188   7.659   6.222
 7414WAT     H122484   8.229   7.746   6.195
 7414WAT     H222485   8.112   7.675   6.284
 7415WAT      O22486   4.068   5.975   2.002
 7415WAT     H122487   4.112   6.061   1.977
 7415WAT     H222488   4.079   5.909   1.927
 7416WAT      O22489   9.616   2.748   0.148
 7416WAT     H122490   9.644   2.809   0.223
 7416WAT     H222491   9.524   2.772   0.118
 7417WAT      O22492   9.194   2.596   0.325
 7417WAT     H122493   9.245   2.545   0.256
 7417WAT     H222494   9.111   2.545   0.349
 7418WAT      O22495   3.480   4.265   2.419
 7418WAT     H122496   3.568   4.289   2.458
 7418WAT     H222497   3.460   4.326   2.342
 7419WAT      O22498   4.468   3.215   1.479
 7419WAT     H122499   4.564   3.189   1.484
 7419WAT     H222500   4.436   3.207   1.385
 7420WAT      O22501   0.093   3.241   6.327
 7420WAT     H122502   0.085   3.145   6.353
 7420WAT     H222503   0.177   3.254   6.273
 7421WAT      O22504   9.590   9.580   0.696
 7421WAT     H122505   9.610   9.495   0.648
 7421WAT     H222506   9.598   9.657   0.632
 7422WAT      O22507   8.144   1.420   1.237
 7422WAT     H122508   8.050   1.410   1.204
 7422WAT     H222509   8.158   1.513   1.269
 7423WAT      O22510   5.403   3.036   8.314
 7423WAT     H122511   5.417   2.951   8.264
 7423WAT     H222512   5.382   3.017   8.410
 7424WAT      O22513   9.569   2.602   3.855
 7424WAT     H122514   9.580   2.699   3.837
 7424WAT     H222515   9.575   2.551   3.770
 7425WAT      O22516   2.402   8.573   6.885
 7425WAT     H122517   2.497   8.545   6.869
 7425WAT     H222518   2.364   8.519   6.961
 7426WAT      O22519   5.920   9.079   0.401
 7426WAT     H122520   5.995   9.071   0.467
 7426WAT     H222521   5.856   9.149   0.433
 7427WAT      O22522   0.513   0.724   3.632
 7427WAT     H122523   0.483   0.791   3.565
 7427WAT     H222524   0.511   0.632   3.592
 7428WAT      O22525   0.956   1.886   4.150
 7428WAT     H122526   1.040   1.856   4.105
 7428WAT     H222527   0.972   1.975   4.192
 7429WAT      O22528   6.909   1.899   9.005
 7429WAT     H122529   6.821   1.867   9.039
 7429WAT     H222530   6.967   1.821   8.982
 7430WAT      O22531   7.138   0.563   7.464
 7430WAT     H122532   7.048   0.523   7.442
 7430WAT     H222533   7.138   0.660   7.441
 7431WAT      O22534   2.723   6.511   3.145
 7431WAT     H122535   2.794   6.449   3.177
 7431WAT     H222536   2.635   6.463   3.142
 7432WAT      O22537   4.998   2.767   2.016
 7432WAT     H122538   4.976   2.860   2.046
 7432WAT     H222539   5.025   2.712   2.095
 7433WAT      O22540   2.655   1.893   8.057
 7433WAT     H122541   2.733   1.949   8.086
 7433WAT     H222542   2.576   1.952   8.043
 7434WAT      O22543   3.120   8.519   3.120
 7434WAT     H122544   3.150   8.455   3.049
 7434WAT     H222545   3.033   8.488   3.159
 7435WAT      O22546   0.800   7.943   8.915
 7435WAT     H122547   0.874   7.877   8.906
 7435WAT     H222548   0.823   8.026   8.864
 7436WAT      O22549   7.292   1.309   6.712
 7436WAT     H122550   7.390   1.292   6.718
 7436WAT     H222551   7.245   1.223   6.692
 7437WAT      O22552   8.502   7.646   8.264
 7437WAT     H122553   8.567   7.685   8.199
 7437WAT     H222554   8.408   7.662   8.231
 7438WAT      O22555   8.728   9.433   9.033
 7438WAT     H122556   8.824   9.416   9.054
 7438WAT     H222557   8.722   9.490   8.951
 7439WAT      O22558   7.766   3.568   9.358
 7439WAT     H122559   7.769   3.666   9.336
 7439WAT     H222560   7.855   3.539   9.393
 7440WAT      O22561   6.588   1.965   8.389
 7440WAT     H122562   6.627   2.030   8.324
 7440WAT     H222563   6.642   1.881   8.388
 7441WAT      O22564   1.607   5.466   9.447
 7441WAT     H122565   1.556   5.475   9.361
 7441WAT     H222566   1.617   5.557   9.489
 7442WAT      O22567   0.527   5.878   5.228
 7442WAT     H122568   0.509   5.959   5.172
 7442WAT     H222569   0.543   5.799   5.169
 7443WAT      O22570   6.336   8.470   1.457
 7443WAT     H122571   6.415   8.529   1.440
 7443WAT     H222572   6.344   8.430   1.548
 7444WAT      O22573   5.936   8.591   9.229
 7444WAT     H122574   5.851   8.542   9.208
 7444WAT     H222575   5.919   8.659   9.300
 7445WAT      O22576   9.692   3.593   5.982
 7445WAT     H122577   9.677   3.511   6.038
 7445WAT     H222578   9.612   3.609   5.924
 7446WAT      O22579   1.756   2.098   9.394
 7446WAT     H122580   1.673   2.123   9.344
 7446WAT     H222581   1.754   2.001   9.417
 7447WAT      O22582   2.655   5.802   2.162
 7447WAT     H122583   2.623   5.726   2.104
 7447WAT     H222584   2.729   5.771   2.220
 7448WAT      O22585   8.007   7.859   9.540
 7448WAT     H122586   8.009   7.761   9.518
 7448WAT     H222587   7.942   7.905   9.480
 7449WAT      O22588   8.950   2.443   4.138
 7449WAT     H122589   9.029   2.499   4.112
 7449WAT     H222590   8.910   2.402   4.057
 7450WAT      O22591   4.967   7.076   7.358
 7450WAT     H122592   4.978   7.170   7.326
 7450WAT     H222593   4.963   7.075   7.458
 7451WAT      O22594   4.867   6.163   7.435
 7451WAT     H122595   4.780   6.203   7.404
 7451WAT     H222596   4.942   6.221   7.405
 7452WAT      O22597   7.580   4.248   8.345
 7452WAT     H122598   7.521   4.234   8.424
 7452WAT     H222599   7.667   4.201   8.360
 7453WAT      O22600   7.581   0.473   7.422
 7453WAT     H122601   7.585   0.375   7.402
 7453WAT     H222602   7.635   0.523   7.354
 7454WAT      O22603   9.319   3.845   7.961
 7454WAT     H122604   9.258   3.801   7.895
 7454WAT     H222605   9.265   3.907   8.019
 7455WAT      O22606   1.244   5.012   8.540
 7455WAT     H122607   1.186   5.019   8.460
 7455WAT     H222608   1.200   4.952   8.608
 7456WAT      O22609   8.460   7.509   3.544
 7456WAT     H122610   8.389   7.456   3.499
 7456WAT     H222611   8.423   7.551   3.627
 7457WAT      O22612   1.448   6.437   8.983
 7457WAT     H122613   1.510   6.483   9.047
 7457WAT     H222614   1.373   6.395   9.035
 7458WAT      O22615   1.734   4.097   7.781
 7458WAT     H122616   1.702   4.008   7.812
 7458WAT     H222617   1.774   4.088   7.689
 7459WAT      O22618   7.615   9.419   0.392
 7459WAT     H122619   7.615   9.439   0.490
 7459WAT     H222620   7.692   9.359   0.370
 7460WAT      O22621   8.547   8.228   7.294
 7460WAT     H122622   8.490   8.152   7.261
 7460WAT     H222623   8.516   8.313   7.252
 7461WAT      O22624   7.643   8.830   4.685
 7461WAT     H122625   7.688   8.748   4.650
 7461WAT     H222626   7.711   8.891   4.725
 7462WAT      O22627   1.083   3.698   7.976
 7462WAT     H122628   1.056   3.682   8.071
 7462WAT     H222629   1.025   3.770   7.937
 7463WAT      O22630   9.409   3.222   7.624
 7463WAT     H122631   9.495   3.230   7.675
 7463WAT     H222632   9.337   3.188   7.685
 7464WAT      O22633   0.565   5.709   8.216
 7464WAT     H122634   0.583   5.737   8.310
 7464WAT     H222635   0.475   5.665   8.211
 7465WAT      O22636   6.568   5.831   4.790
 7465WAT     H122637   6.659   5.832   4.830
 7465WAT     H222638   6.528   5.740   4.802
 7466WAT      O22639   7.339   3.682   9.405
 7466WAT     H122640   7.347   3.766   9.459
 7466WAT     H222641   7.342   3.603   9.467
 7467WAT      O22642   8.403   8.054   0.889
 7467WAT     H122643   8.384   8.145   0.851
 7467WAT     H222644   8.375   8.051   0.985
 7468WAT      O22645   3.133   8.219   8.542
 7468WAT     H122646   3.098   8.197   8.633
 7468WAT     H222647   3.088   8.161   8.474
 7469WAT      O22648   9.392   1.477   4.285
 7469WAT     H122649   9.324   1.507   4.352
 7469WAT     H222650   9.406   1.379   4.294
 7470WAT      O22651   8.215   6.429   7.642
 7470WAT     H122652   8.139   6.428   7.577
 7470WAT     H222653   8.239   6.335   7.667
 7471WAT      O22654   7.025   8.356   3.775
 7471WAT     H122655   7.102   8.292   3.775
 7471WAT     H222656   7.024   8.407   3.689
 7472WAT      O22657   5.487   7.112   9.053
 7472WAT     H122658   5.469   7.033   9.112
 7472WAT     H222659   5.533   7.082   8.970
 7473WAT      O22660   9.543   0.259   6.804
 7473WAT     H122661   9.521   0.355   6.787
 7473WAT     H222662   9.469   0.216   6.856
 7474WAT      O22663   1.904   7.829   8.213
 7474WAT     H122664   1.975   7.880   8.262
 7474WAT     H222665   1.908   7.732   8.241
 7475WAT      O22666   3.419   1.497   8.879
 7475WAT     H122667   3.475   1.432   8.930
 7475WAT     H222668   3.412   1.582   8.931
 7476WAT      O22669   7.866   4.191   7.632
 7476WAT     H122670   7.856   4.225   7.726
 7476WAT     H222671   7.913   4.102   7.634
 7477WAT      O22672   9.707   7.759   9.815
 7477WAT     H122673   9.672   7.840   9.768
 7477WAT     H222674   9.806   7.755   9.806
 7478WAT      O22675   2.231   5.686   6.078
 7478WAT     H122676   2.303   5.618   6.090
 7478WAT     H222677   2.270   5.778   6.087
 7479WAT      O22678   6.376   6.332   6.417
 7479WAT     H122679   6.295   6.291   6.375
 7479WAT     H222680   6.457   6.308   6.363
 7480WAT      O22681   0.350   5.067   3.827
 7480WAT     H122682   0.345   5.136   3.900
 7480WAT     H222683   0.360   4.976   3.868
 7481WAT      O22684   4.138   8.185   7.517
 7481WAT     H122685   4.117   8.142   7.429
 7481WAT     H222686   4.118   8.283   7.512
 7482WAT      O22687   5.867   0.143   7.661
 7482WAT     H122688   5.864   0.150   7.561
 7482WAT     H222689   5.781   0.107   7.695
 7483WAT      O22690   5.494   7.654   1.786
 7483WAT     H122691   5.550   7.636   1.705
 7483WAT     H222692   5.399   7.627   1.767
 7484WAT      O22693   9.865   1.261   7.721
 7484WAT     H122694   9.817   1.326   7.780
 7484WAT     H222695   9.901   1.186   7.776
 7485WAT      O22696   0.846   7.235   0.957
 7485WAT     H122697   0.795   7.286   0.889
 7485WAT     H222698   0.941   7.225   0.927
 7486WAT      O22699   7.449   3.988   2.192
 7486WAT     H122700   7.435   3.923   2.117
 7486WAT     H222701   7.486   3.939   2.271
 7487WAT      O22702   6.303   4.087   5.747
 7487WAT     H122703   6.258   4.174   5.770
 7487WAT     H222704   6.290   4.022   5.821
 7488WAT      O22705   3.194   7.636   2.455
 7488WAT     H122706   3.179   7.636   2.554
 7488WAT     H222707   3.281   7.592   2.434
 7489WAT      O22708   3.616   1.485   2.132
 7489WAT     H122709   3.526   1.521   2.156
 7489WAT     H222710   3.687   1.545   2.169
 7490WAT      O22711   9.784   1.576   4.024
 7490WAT     H122712   9.833   1.543   4.105
 7490WAT     H222713   9.851   1.603   3.954
 7491WAT      O22714   7.295   4.583   1.703
 7491WAT     H122715   7.281   4.636   1.620
 7491WAT     H222716   7.294   4.645   1.782
 7492WAT      O22717   5.993   3.695   2.310
 7492WAT     H122718   6.084   3.734   2.322
 7492WAT     H222719   5.979   3.623   2.377
 7493WAT      O22720   0.415   0.289   9.121
 7493WAT     H122721   0.494   0.233   9.143
 7493WAT     H222722   0.410   0.302   9.022
 7494WAT      O22723   9.735   6.332   3.047
 7494WAT     H122724   9.751   6.239   3.015
 7494WAT     H222725   9.709   6.330   3.144
 7495WAT      O22726   9.024   1.474   7.755
 7495WAT     H122727   8.928   1.479   7.784
 7495WAT     H222728   9.035   1.528   7.671
 7496WAT      O22729   6.987   2.814   0.178
 7496WAT     H122730   6.896   2.788   0.145
 7496WAT     H222731   7.006   2.767   0.264
 7497WAT      O22732   0.538   7.845   6.162
 7497WAT     H122733   0.611   7.817   6.224
 7497WAT     H222734   0.561   7.934   6.122
 7498WAT      O22735   3.542   2.014   2.688
 7498WAT     H122736   3.622   2.028   2.746
 7498WAT     H222737   3.516   1.917   2.692
 7499WAT      O22738   1.536   7.439   6.670
 7499WAT     H122739   1.505   7.529   6.641
 7499WAT     H222740   1.460   7.373   6.661
 7500WAT      O22741   8.296   6.545   0.970
 7500WAT     H122742   8.208   6.498   0.974
 7500WAT     H222743   8.288   6.634   1.016
 7501WAT      O22744   7.011   5.123   5.171
 7501WAT     H122745   6.952   5.042   5.177
 7501WAT     H222746   6.955   5.206   5.172
 7502WAT      O22747   2.258   3.970   9.834
 7502WAT     H122748   2.307   4.046   9.792
 7502WAT     H222749   2.319   3.890   9.839
 7503WAT      O22750   2.584   7.084   6.701
 7503WAT     H122751   2.663   7.098   6.760
 7503WAT     H222752   2.541   6.996   6.723
 7504WAT      O22753   0.588   2.760   3.777
 7504WAT     H122754   0.500   2.714   3.784
 7504WAT     H222755   0.631   2.763   3.868
 7505WAT      O22756   6.584   0.187   2.515
 7505WAT     H122757   6.541   0.262   2.565
 7505WAT     H222758   6.682   0.203   2.507
 7506WAT      O22759   1.002   3.933   2.659
 7506WAT     H122760   1.006   3.857   2.724
 7506WAT     H222761   1.005   4.019   2.708
 7507WAT      O22762   1.054   0.331   5.745
 7507WAT     H122763   0.961   0.365   5.756
 7507WAT     H222764   1.058   0.267   5.669
 7508WAT      O22765   0.597   6.465   2.141
 7508WAT     H122766   0.575   6.481   2.044
 7508WAT     H222767   0.596   6.552   2.190
 7509WAT      O22768   7.348   0.678   5.976
 7509WAT     H122769   7.443   0.685   6.006
 7509WAT     H222770   7.288   0.727   6.040
 7510WAT      O22771   8.573   9.168   5.816
 7510WAT     H122772   8.483   9.154   5.857
 7510WAT     H222773   8.595   9.266   5.816
 7511WAT      O22774   9.521   6.507   0.337
 7511WAT     H122775   9.493   6.483   0.244
 7511WAT     H222776   9.475   6.591   0.365
 7512WAT      O22777   4.926   3.772   1.265
 7512WAT     H122778   5.008   3.809   1.308
 7512WAT     H222779   4.862   3.847   1.247
 7513WAT      O22780   8.259   0.173   2.941
 7513WAT     H122781   8.250   0.129   2.852
 7513WAT     H222782   8.253   0.104   3.013
 7514WAT      O22783   3.921   9.381   3.856
 7514WAT     H122784   3.955   9.308   3.797
 7514WAT     H222785   3.845   9.429   3.811
 7515WAT      O22786   2.396   8.902   3.113
 7515WAT     H122787   2.390   8.995   3.077
 7515WAT     H222788   2.315   8.883   3.169
 7516WAT      O22789   1.405   0.304   0.448
 7516WAT     H122790   1.316   0.269   0.478
 7516WAT     H222791   1.418   0.282   0.352
 7517WAT      O22792   7.352   2.343   6.942
 7517WAT     H122793   7.364   2.274   6.870
 7517WAT     H222794   7.289   2.413   6.911
 7518WAT      O22795   4.192   3.982   0.874
 7518WAT     H122796   4.213   4.059   0.935
 7518WAT     H222797   4.191   3.897   0.927
 7519WAT      O22798   0.856   8.730   6.733
 7519WAT     H122799   0.827   8.690   6.646
 7519WAT     H222800   0.908   8.813   6.715
 7520WAT      O22801   4.686   4.648   6.510
 7520WAT     H122802   4.651   4.656   6.416
 7520WAT     H222803   4.731   4.560   6.522
 7521WAT      O22804   2.918   8.691   5.101
 7521WAT     H122805   2.877   8.767   5.052
 7521WAT     H222806   3.008   8.672   5.064
 7522WAT      O22807   9.194   2.108   4.629
 7522WAT     H122808   9.158   2.153   4.710
 7522WAT     H222809   9.227   2.177   4.564
 7523WAT      O22810   1.547   6.133   7.450
 7523WAT     H122811   1.517   6.073   7.376
 7523WAT     H222812   1.645   6.125   7.463
 7524WAT      O22813   8.225   5.372   1.045
 7524WAT     H122814   8.150   5.326   0.998
 7524WAT     H222815   8.306   5.374   0.987
 7525WAT      O22816   0.541   6.306   2.800
 7525WAT     H122817   0.501   6.268   2.716
 7525WAT     H222818   0.635   6.272   2.810
 7526WAT      O22819   3.723   6.565   5.189
 7526WAT     H122820   3.681   6.476   5.208
 7526WAT     H222821   3.818   6.564   5.219
 7527WAT      O22822   9.179   1.716   3.394
 7527WAT     H122823   9.122   1.673   3.324
 7527WAT     H222824   9.125   1.784   3.444
 7528WAT      O22825   2.191   1.856   7.142
 7528WAT     H122826   2.187   1.758   7.128
 7528WAT     H222827   2.115   1.886   7.199
 7529WAT      O22828   3.303   0.672   3.258
 7529WAT     H122829   3.344   0.753   3.217
 7529WAT     H222830   3.203   0.677   3.248
 7530WAT      O22831   0.521   0.324   3.682
 7530WAT     H122832   0.559   0.372   3.761
 7530WAT     H222833   0.534   0.380   3.600
 7531WAT      O22834   1.703   6.041   0.043
 7531WAT     H122835   1.632   6.081   0.100
 7531WAT     H222836   1.792   6.055   0.086
 7532WAT      O22837   9.222   2.746   5.117
 7532WAT     H122838   9.281   2.754   5.198
 7532WAT     H222839   9.232   2.828   5.061
 7533WAT      O22840   0.045   0.669   4.555
 7533WAT     H122841  -0.047   0.706   4.547
 7533WAT     H222842   0.055   0.590   4.496
 7534WAT      O22843   1.338   2.245   7.320
 7534WAT     H122844   1.240   2.242   7.340
 7534WAT     H222845   1.351   2.268   7.223
 7535WAT      O22846   9.764   6.209   9.448
 7535WAT     H122847   9.770   6.125   9.395
 7535WAT     H222848   9.668   6.234   9.462
 7536WAT      O22849   0.332   5.493   6.103
 7536WAT     H122850   0.421   5.448   6.090
 7536WAT     H222851   0.346   5.589   6.126
 7537WAT      O22852   1.253   2.752   3.110
 7537WAT     H122853   1.288   2.668   3.067
 7537WAT     H222854   1.269   2.830   3.049
 7538WAT      O22855   4.885   8.357   9.302
 7538WAT     H122856   4.874   8.405   9.215
 7538WAT     H222857   4.919   8.265   9.285
 7539WAT      O22858   0.008   9.249   3.351
 7539WAT     H122859  -0.085   9.286   3.353
 7539WAT     H222860   0.068   9.311   3.301
 7540WAT      O22861   6.800   9.208   4.922
 7540WAT     H122862   6.749   9.276   4.974
 7540WAT     H222863   6.778   9.217   4.825
 7541WAT      O22864   3.260   5.965   0.057
 7541WAT     H122865   3.274   5.868   0.075
 7541WAT     H222866   3.167   5.980   0.023
 7542WAT      O22867   9.439   6.606   6.782
 7542WAT     H122868   9.480   6.617   6.691
 7542WAT     H222869   9.363   6.671   6.792
 7543WAT      O22870   2.062   0.105   1.135
 7543WAT     H122871   2.017   0.064   1.214
 7543WAT     H222872   2.146   0.055   1.114
 7544WAT      O22873   4.897   1.898   7.189
 7544WAT     H122874   4.960   1.825   7.216
 7544WAT     H222875   4.825   1.860   7.132
 7545WAT      O22876   8.708   5.997   8.509
 7545WAT     H122877   8.679   5.930   8.578
 7545WAT     H222878   8.786   6.049   8.544
 7546WAT      O22879   3.929   5.333   0.209
 7546WAT     H122880   3.837   5.363   0.233
 7546WAT     H222881   3.935   5.320   0.110
 7547WAT      O22882   4.742   1.209   2.170
 7547WAT     H122883   4.675   1.227   2.097
 7547WAT     H222884   4.788   1.295   2.195
 7548WAT      O22885   1.078   1.927   6.229
 7548WAT     H122886   1.144   1.974   6.288
 7548WAT     H222887   1.112   1.835   6.209
 7549WAT      O22888   9.237   6.080   4.970
 7549WAT     H122889   9.238   5.985   4.939
 7549WAT     H222890   9.146   6.119   4.954
 7550WAT      O22891   4.359   4.603   1.295
 7550WAT     H122892   4.396   4.676   1.237
 7550WAT     H222893   4.265   4.625   1.320
 7551WAT      O22894   6.610   1.471   4.542
 7551WAT     H122895   6.647   1.486   4.634
 7551WAT     H222896   6.608   1.373   4.523
 7552WAT      O22897   7.638   4.546   0.859
 7552WAT     H122898   7.631   4.595   0.773
 7552WAT     H222899   7.660   4.450   0.841
 7553WAT      O22900   3.170   5.494   1.343
 7553WAT     H122901   3.218   5.515   1.258
 7553WAT     H222902   3.233   5.449   1.407
 7554WAT      O22903   2.675   6.542   4.013
 7554WAT     H122904   2.640   6.580   3.927
 7554WAT     H222905   2.606   6.483   4.054
 7555WAT      O22906   5.345   1.387   1.187
 7555WAT     H122907   5.410   1.324   1.229
 7555WAT     H222908   5.255   1.376   1.229
 7556WAT      O22909   1.193   4.233   3.874
 7556WAT     H122910   1.265   4.196   3.934
 7556WAT     H222911   1.230   4.247   3.783
 7557WAT      O22912   6.815   4.657   9.440
 7557WAT     H122913   6.800   4.564   9.474
 7557WAT     H222914   6.762   4.672   9.357
 7558WAT      O22915   7.887   9.336   8.762
 7558WAT     H122916   7.859   9.247   8.726
 7558WAT     H222917   7.882   9.404   8.689
 7559WAT      O22918   7.790   2.163   6.723
 7559WAT     H122919   7.829   2.217   6.798
 7559WAT     H222920   7.719   2.103   6.760
 7560WAT      O22921   3.794   6.370   5.913
 7560WAT     H122922   3.759   6.305   5.845
 7560WAT     H222923   3.894   6.372   5.909
 7561WAT      O22924   1.142   4.103   0.149
 7561WAT     H122925   1.190   4.190   0.138
 7561WAT     H222926   1.129   4.061   0.059
 7562WAT      O22927   8.827   1.840   2.668
 7562WAT     H122928   8.796   1.934   2.677
 7562WAT     H222929   8.836   1.817   2.571
 7563WAT      O22930   7.327   3.650   2.796
 7563WAT     H122931   7.250   3.679   2.853
 7563WAT     H222932   7.296   3.582   2.730
 7564WAT      O22933   0.390   4.260   2.873
 7564WAT     H122934   0.432   4.342   2.913
 7564WAT     H222935   0.381   4.190   2.944
 7565WAT      O22936   1.331   6.595   5.157
 7565WAT     H122937   1.421   6.636   5.139
 7565WAT     H222938   1.259   6.660   5.134
 7566WAT      O22939   4.011   2.541   4.961
 7566WAT     H122940   4.064   2.583   4.887
 7566WAT     H222941   3.931   2.495   4.922
 7567WAT      O22942   1.900   9.158   5.691
 7567WAT     H122943   1.984   9.111   5.719
 7567WAT     H222944   1.821   9.113   5.732
 7568WAT      O22945   6.627   3.476   7.958
 7568WAT     H122946   6.725   3.456   7.964
 7568WAT     H222947   6.605   3.548   8.023
 7569WAT      O22948   9.743   9.810   0.568
 7569WAT     H122949   9.794   9.757   0.635
 7569WAT     H222950   9.769   9.782   0.475
 7570WAT      O22951   5.575   8.849   9.822
 7570WAT     H122952   5.663   8.890   9.845
 7570WAT     H222953   5.538   8.802   9.903
 7571WAT      O22954   3.501   8.495   5.003
 7571WAT     H122955   3.509   8.594   5.005
 7571WAT     H222956   3.591   8.454   5.021
 7572WAT      O22957   2.905   0.562   3.858
 7572WAT     H122958   2.864   0.650   3.879
 7572WAT     H222959   2.905   0.547   3.759
 7573WAT      O22960   8.312   1.521   5.795
 7573WAT     H122961   8.214   1.510   5.778
 7573WAT     H222962   8.354   1.431   5.810
 7574WAT      O22963   5.333   1.039   6.040
 7574WAT     H122964   5.349   0.997   6.130
 7574WAT     H222965   5.415   1.090   6.013
 7575WAT      O22966   8.387   2.153   6.463
 7575WAT     H122967   8.355   2.063   6.434
 7575WAT     H222968   8.447   2.191   6.394
 7576WAT      O22969   1.670   6.000   1.931
 7576WAT     H122970   1.719   5.940   1.994
 7576WAT     H222971   1.603   6.054   1.982
 7577WAT      O22972   4.523   8.409   9.082
 7577WAT     H122973   4.424   8.397   9.073
 7577WAT     H222974   4.551   8.384   9.175
 7578WAT      O22975   2.525   0.663   5.874
 7578WAT     H122976   2.565   0.728   5.939
 7578WAT     H222977   2.595   0.598   5.845
 7579WAT      O22978   6.663   7.795   8.954
 7579WAT     H122979   6.716   7.810   9.038
 7579WAT     H222980   6.716   7.825   8.875
 7580WAT      O22981   1.710   3.044   1.059
 7580WAT     H122982   1.744   3.111   0.993
 7580WAT     H222983   1.768   2.963   1.057
 7581WAT      O22984   5.159   2.575   9.065
 7581WAT     H122985   5.229   2.647   9.071
 7581WAT     H222986   5.095   2.584   9.141
 7582WAT      O22987   3.888   3.413   8.269
 7582WAT     H122988   3.984   3.394   8.287
 7582WAT     H222989   3.859   3.368   8.185
 7583WAT      O22990   3.289   7.835   1.548
 7583WAT     H122991   3.250   7.903   1.486
 7583WAT     H222992   3.270   7.860   1.643
 7584WAT      O22993   1.324   9.494   5.490
 7584WAT     H122994   1.293   9.402   5.466
 7584WAT     H222995   1.382   9.530   5.418
 7585WAT      O22996   6.419   0.273   5.050
 7585WAT     H122997   6.334   0.222   5.063
 7585WAT     H222998   6.404   0.370   5.068
 7586WAT      O22999   0.612   1.824   7.001
 7586WAT     H123000   0.613   1.724   6.993
 7586WAT     H223001   0.518   1.855   7.012
 7587WAT      O23002   5.837   4.012   8.751
 7587WAT     H123003   5.893   4.086   8.715
 7587WAT     H223004   5.756   3.999   8.694
 7588WAT      O23005   9.138   1.778   7.730
 7588WAT     H123006   9.213   1.715   7.708
 7588WAT     H223007   9.066   1.768   7.662
 7589WAT      O23008   8.081   3.523   2.624
 7589WAT     H123009   8.022   3.443   2.634
 7589WAT     H223010   8.098   3.564   2.714
 7590WAT      O23011   7.910   8.690   6.755
 7590WAT     H123012   7.818   8.693   6.794
 7590WAT     H223013   7.913   8.746   6.672
 7591WAT      O23014   7.596   9.063   3.052
 7591WAT     H123015   7.669   9.017   3.001
 7591WAT     H223016   7.533   8.994   3.088
 7592WAT      O23017   7.351   2.326   7.244
 7592WAT     H123018   7.373   2.228   7.247
 7592WAT     H223019   7.351   2.357   7.149
 7593WAT      O23020   6.560   8.396   2.929
 7593WAT     H123021   6.573   8.489   2.895
 7593WAT     H223022   6.599   8.389   3.021
 7594WAT      O23023   6.457   7.948   3.280
 7594WAT     H123024   6.530   7.890   3.245
 7594WAT     H223025   6.368   7.905   3.262
 7595WAT      O23026   8.707   3.720   2.939
 7595WAT     H123027   8.678   3.625   2.951
 7595WAT     H223028   8.628   3.777   2.919
 7596WAT      O23029   0.260   8.041   2.752
 7596WAT     H123030   0.267   8.008   2.846
 7596WAT     H223031   0.351   8.040   2.710
 7597WAT      O23032   5.251   6.993   7.065
 7597WAT     H123033   5.310   7.020   6.989
 7597WAT     H223034   5.162   6.965   7.029
 7598WAT      O23035   8.170   6.555   9.626
 7598WAT     H123036   8.103   6.482   9.612
 7598WAT     H223037   8.198   6.592   9.538
 7599WAT      O23038   0.454   7.094   0.851
 7599WAT     H123039   0.544   7.073   0.813
 7599WAT     H223040   0.406   7.010   0.873
 7600WAT      O23041   7.942   3.034   9.684
 7600WAT     H123042   8.011   2.989   9.740
 7600WAT     H223043   7.928   2.982   9.600
 7601WAT      O23044   5.343   9.480   6.614
 7601WAT     H123045   5.277   9.470   6.540
 7601WAT     H223046   5.302   9.531   6.689
 7602WAT      O23047   7.473   7.526   2.697
 7602WAT     H123048   7.441   7.615   2.729
 7602WAT     H223049   7.573   7.523   2.702
 7603WAT      O23050   8.806   3.521   5.860
 7603WAT     H123051   8.792   3.618   5.839
 7603WAT     H223052   8.835   3.512   5.955
 7604WAT      O23053   3.750   5.725   1.400
 7604WAT     H123054   3.655   5.739   1.372
 7604WAT     H223055   3.760   5.750   1.496
 7605WAT      O23056   1.630   3.521   0.972
 7605WAT     H123057   1.682   3.517   0.886
 7605WAT     H223058   1.603   3.429   0.999
 7606WAT      O23059   7.004   7.744   3.340
 7606WAT     H123060   7.103   7.752   3.344
 7606WAT     H223061   6.975   7.726   3.246
 7607WAT      O23062   3.146   0.081   6.744
 7607WAT     H123063   3.228   0.025   6.733
 7607WAT     H223064   3.077   0.054   6.677
 7608WAT      O23065   0.542   3.145   0.357
 7608WAT     H123066   0.449   3.127   0.323
 7608WAT     H223067   0.606   3.081   0.313
 7609WAT      O23068   9.311   6.646   9.351
 7609WAT     H123069   9.240   6.584   9.318
 7609WAT     H223070   9.286   6.682   9.441
 7610WAT      O23071   3.720   6.966   4.088
 7610WAT     H123072   3.663   6.993   4.165
 7610WAT     H223073   3.776   7.044   4.058
 7611WAT      O23074   4.765   3.341   4.828
 7611WAT     H123075   4.832   3.322   4.756
 7611WAT     H223076   4.810   3.390   4.903
 7612WAT      O23077   2.234   5.278   0.449
 7612WAT     H123078   2.218   5.304   0.544
 7612WAT     H223079   2.329   5.297   0.425
 7613WAT      O23080   9.048   7.451   3.545
 7613WAT     H123081   9.005   7.537   3.572
 7613WAT     H223082   8.978   7.387   3.512
 7614WAT      O23083   7.957   0.599   4.020
 7614WAT     H123084   7.891   0.543   4.071
 7614WAT     H223085   8.001   0.664   4.083
 7615WAT      O23086   3.161   1.228   1.474
 7615WAT     H123087   3.088   1.164   1.450
 7615WAT     H223088   3.247   1.179   1.484
 7616WAT      O23089   3.054   1.766   3.216
 7616WAT     H123090   3.135   1.822   3.237
 7616WAT     H223091   2.980   1.825   3.184
 7617WAT      O23092   0.413   0.205   0.274
 7617WAT     H123093   0.360   0.198   0.359
 7617WAT     H223094   0.464   0.120   0.261
 7618WAT      O23095   1.858   9.712   4.417
 7618WAT     H123096   1.860   9.762   4.504
 7618WAT     H223097   1.952   9.695   4.387
 7619WAT      O23098   1.560   4.119   4.910
 7619WAT     H123099   1.646   4.156   4.945
 7619WAT     H223100   1.562   4.019   4.915
 7620WAT      O23101   8.789   9.610   1.563
 7620WAT     H123102   8.877   9.603   1.516
 7620WAT     H223103   8.805   9.647   1.655
 7621WAT      O23104   7.241   3.465   1.631
 7621WAT     H123105   7.252   3.366   1.622
 7621WAT     H223106   7.187   3.484   1.713
 7622WAT      O23107   2.048   9.628   0.119
 7622WAT     H123108   2.123   9.660   0.061
 7622WAT     H223109   2.056   9.669   0.210
 7623WAT      O23110   3.041   7.260   8.572
 7623WAT     H123111   2.956   7.239   8.620
 7623WAT     H223112   3.118   7.214   8.618
 7624WAT      O23113   7.307   1.010   2.375
 7624WAT     H123114   7.399   1.042   2.352
 7624WAT     H223115   7.239   1.065   2.326
 7625WAT      O23116   4.236   8.429   8.488
 7625WAT     H123117   4.233   8.372   8.570
 7625WAT     H223118   4.151   8.480   8.480
 7626WAT      O23119   5.876   4.469   5.583
 7626WAT     H123120   5.901   4.377   5.552
 7626WAT     H223121   5.784   4.492   5.551
 7627WAT      O23122   8.862   6.281   0.707
 7627WAT     H123123   8.923   6.272   0.785
 7627WAT     H223124   8.784   6.338   0.731
 7628WAT      O23125   4.131   2.704   5.821
 7628WAT     H123126   4.064   2.677   5.752
 7628WAT     H223127   4.201   2.634   5.828
 7629WAT      O23128   5.722   4.137   1.974
 7629WAT     H123129   5.787   4.167   2.044
 7629WAT     H223130   5.636   4.187   1.985
 7630WAT      O23131   4.531   2.715   1.559
 7630WAT     H123132   4.622   2.675   1.546
 7630WAT     H223133   4.527   2.804   1.513
 7631WAT      O23134   6.242   0.857   2.410
 7631WAT     H123135   6.205   0.893   2.496
 7631WAT     H223136   6.332   0.818   2.427
 7632WAT      O23137   2.900   5.777   1.037
 7632WAT     H123138   2.903   5.868   0.996
 7632WAT     H223139   2.806   5.757   1.067
 7633WAT      O23140   6.626   8.073   8.800
 7633WAT     H123141   6.601   8.020   8.880
 7633WAT     H223142   6.679   8.015   8.737
 7634WAT      O23143   9.794   4.652   2.627
 7634WAT     H123144   9.879   4.704   2.618
 7634WAT     H223145   9.795   4.601   2.713
 7635WAT      O23146   1.920   3.776   7.680
 7635WAT     H123147   1.839   3.722   7.656
 7635WAT     H223148   1.899   3.873   7.671
 7636WAT      O23149   0.369   9.704   7.447
 7636WAT     H123150   0.277   9.714   7.409
 7636WAT     H223151   0.428   9.657   7.382
 7637WAT      O23152   9.836   9.200   5.821
 7637WAT     H123153   9.756   9.231   5.872
 7637WAT     H223154   9.844   9.100   5.829
 7638WAT      O23155   8.221   8.129   9.594
 7638WAT     H123156   8.194   8.041   9.554
 7638WAT     H223157   8.318   8.145   9.575
 7639WAT      O23158   1.572   8.492   9.403
 7639WAT     H123159   1.630   8.470   9.482
 7639WAT     H223160   1.536   8.408   9.364
 7640WAT      O23161   2.923   6.902   0.705
 7640WAT     H123162   2.967   6.826   0.753
 7640WAT     H223163   2.895   6.872   0.613
 7641WAT      O23164   9.233   6.772   2.678
 7641WAT     H123165   9.189   6.707   2.740
 7641WAT     H223166   9.188   6.769   2.589
 7642WAT      O23167   2.117   1.042   8.204
 7642WAT     H123168   2.116   1.066   8.301
 7642WAT     H223169   2.026   1.007   8.178
 7643WAT      O23170   9.249   9.590   6.656
 7643WAT     H123171   9.255   9.492   6.673
 7643WAT     H223172   9.264   9.608   6.558
 7644WAT      O23173   0.998   1.420   3.249
 7644WAT     H123174   1.046   1.337   3.280
 7644WAT     H223175   1.002   1.489   3.321
 7645WAT      O23176   7.592   7.777   1.098
 7645WAT     H123177   7.560   7.865   1.062
 7645WAT     H223178   7.635   7.792   1.187
 7646WAT      O23179   1.381   7.803   6.828
 7646WAT     H123180   1.420   7.821   6.918
 7646WAT     H223181   1.446   7.831   6.757
 7647WAT      O23182   2.640   5.632   5.795
 7647WAT     H123183   2.729   5.656   5.833
 7647WAT     H223184   2.594   5.715   5.763
 7648WAT      O23185   0.240   1.967   1.045
 7648WAT     H123186   0.292   1.889   1.011
 7648WAT     H223187   0.279   1.998   1.133
 7649WAT      O23188   7.288   6.664   5.221
 7649WAT     H123189   7.212   6.624   5.170
 7649WAT     H223190   7.257   6.749   5.265
 7650WAT      O23191   0.114   5.175   2.247
 7650WAT     H123192   0.188   5.176   2.315
 7650WAT     H223193   0.037   5.228   2.281
 7651WAT      O23194   2.104   6.340   3.270
 7651WAT     H123195   2.143   6.255   3.304
 7651WAT     H223196   2.177   6.408   3.259
 7652WAT      O23197   6.251   1.426   5.289
 7652WAT     H123198   6.269   1.509   5.342
 7652WAT     H223199   6.331   1.403   5.234
 7653WAT      O23200   5.193   0.643   6.587
 7653WAT     H123201   5.216   0.731   6.544
 7653WAT     H223202   5.202   0.570   6.520
 7654WAT      O23203   9.086   1.774   4.783
 7654WAT     H123204   9.060   1.678   4.785
 7654WAT     H223205   9.028   1.824   4.718
 7655WAT      O23206   2.382   7.522   5.538
 7655WAT     H123207   2.300   7.580   5.540
 7655WAT     H223208   2.463   7.580   5.529
 7656WAT      O23209   2.882   1.524   3.421
 7656WAT     H123210   2.787   1.555   3.431
 7656WAT     H223211   2.891   1.473   3.335
 7657WAT      O23212   8.921   7.009   0.475
 7657WAT     H123213   8.929   6.920   0.430
 7657WAT     H223214   8.839   7.056   0.444
 7658WAT      O23215   3.553   3.597   1.187
 7658WAT     H123216   3.559   3.502   1.154
 7658WAT     H223217   3.561   3.659   1.109
 7659WAT      O23218   3.157   8.567   4.365
 7659WAT     H123219   3.068   8.525   4.379
 7659WAT     H223220   3.157   8.660   4.404
 7660WAT      O23221   4.482   6.226   7.030
 7660WAT     H123222   4.568   6.245   7.077
 7660WAT     H223223   4.467   6.295   6.959
 7661WAT      O23224   5.134   5.985   6.996
 7661WAT     H123225   5.198   6.062   7.004
 7661WAT     H223226   5.063   5.994   7.066
 7662WAT      O23227   4.014   5.381   6.863
 7662WAT     H123228   3.984   5.446   6.933
 7662WAT     H223229   4.104   5.408   6.830
 7663WAT      O23230   2.676   3.740   0.357
 7663WAT     H123231   2.761   3.780   0.390
 7663WAT     H223232   2.695   3.683   0.277
 7664WAT      O23233   6.444   6.372   9.302
 7664WAT     H123234   6.496   6.318   9.236
 7664WAT     H223235   6.367   6.416   9.257
 7665WAT      O23236   4.056   9.591   4.240
 7665WAT     H123237   4.090   9.642   4.319
 7665WAT     H223238   3.976   9.639   4.202
 7666WAT      O23239   9.750   2.856   1.652
 7666WAT     H123240   9.759   2.840   1.750
 7666WAT     H223241   9.656   2.836   1.623
 7667WAT      O23242   9.273   0.691   7.447
 7667WAT     H123243   9.367   0.666   7.473
 7667WAT     H223244   9.267   0.790   7.435
 7668WAT      O23245   4.984   1.629   7.188
 7668WAT     H123246   4.960   1.553   7.127
 7668WAT     H223247   5.075   1.613   7.227
 7669WAT      O23248   8.288   6.687   9.405
 7669WAT     H123249   8.384   6.696   9.434
 7669WAT     H223250   8.241   6.773   9.422
 7670WAT      O23251   5.625   4.701   0.204
 7670WAT     H123252   5.584   4.792   0.215
 7670WAT     H223253   5.658   4.691   0.110
 7671WAT      O23254   1.115   2.321   2.849
 7671WAT     H123255   1.018   2.334   2.869
 7671WAT     H223256   1.147   2.394   2.789
 7672WAT      O23257   7.212   9.622   0.620
 7672WAT     H123258   7.138   9.685   0.642
 7672WAT     H223259   7.209   9.598   0.523
 7673WAT      O23260   3.056   6.468   4.161
 7673WAT     H123261   3.098   6.532   4.096
 7673WAT     H223262   3.032   6.383   4.113
 7674WAT      O23263   3.570   6.034   6.371
 7674WAT     H123264   3.614   6.036   6.281
 7674WAT     H223265   3.573   6.126   6.411
 7675WAT      O23266   8.611   5.759   6.879
 7675WAT     H123267   8.623   5.664   6.849
 7675WAT     H223268   8.578   5.760   6.973
 7676WAT      O23269   0.723   4.119   9.081
 7676WAT     H123270   0.805   4.109   9.025
 7676WAT     H223271   0.748   4.147   9.173
 7677WAT      O23272   4.465   6.540   3.973
 7677WAT     H123273   4.381   6.594   3.964
 7677WAT     H223274   4.544   6.601   3.975
 7678WAT      O23275   0.522   7.866   0.842
 7678WAT     H123276   0.571   7.915   0.915
 7678WAT     H223277   0.439   7.916   0.819
 7679WAT      O23278   8.996   2.611   5.843
 7679WAT     H123279   8.982   2.513   5.858
 7679WAT     H223280   9.053   2.624   5.762
 7680WAT      O23281   5.658   6.988   8.520
 7680WAT     H123282   5.756   6.982   8.501
 7680WAT     H223283   5.623   6.898   8.544
 7681WAT      O23284   5.569   3.469   0.793
 7681WAT     H123285   5.629   3.533   0.746
 7681WAT     H223286   5.485   3.457   0.741
 7682WAT      O23287   9.055   3.102   3.234
 7682WAT     H123288   9.148   3.097   3.198
 7682WAT     H223289   9.014   3.010   3.232
 7683WAT      O23290   4.250   7.178   3.251
 7683WAT     H123291   4.173   7.238   3.235
 7683WAT     H223292   4.276   7.132   3.166
 7684WAT      O23293   1.038   1.029   8.884
 7684WAT     H123294   1.079   0.962   8.823
 7684WAT     H223295   1.108   1.066   8.946
 7685WAT      O23296   2.150   6.071   9.822
 7685WAT     H123297   2.114   5.987   9.782
 7685WAT     H223298   2.212   6.049   9.897
 7686WAT      O23299   0.277   2.788   4.264
 7686WAT     H123300   0.276   2.835   4.352
 7686WAT     H223301   0.361   2.735   4.256
 7687WAT      O23302   5.136   7.071   8.273
 7687WAT     H123303   5.049   7.030   8.302
 7687WAT     H223304   5.209   7.003   8.282
 7688WAT      O23305   9.044   5.267   2.176
 7688WAT     H123306   8.998   5.350   2.208
 7688WAT     H223307   9.140   5.269   2.203
 7689WAT      O23308   9.037   1.368   3.636
 7689WAT     H123309   9.095   1.293   3.669
 7689WAT     H223310   8.951   1.331   3.602
 7690WAT      O23311   9.135   1.907   6.282
 7690WAT     H123312   9.180   1.966   6.349
 7690WAT     H223313   9.173   1.925   6.191
 7691WAT      O23314   7.378   7.498   0.886
 7691WAT     H123315   7.349   7.439   0.961
 7691WAT     H223316   7.340   7.464   0.800
 7692WAT      O23317   7.803   5.940   1.262
 7692WAT     H123318   7.722   5.997   1.275
 7692WAT     H223319   7.885   5.995   1.276
 7693WAT      O23320   2.441   4.393   7.765
 7693WAT     H123321   2.504   4.321   7.795
 7693WAT     H223322   2.348   4.371   7.795
 7694WAT      O23323   0.763   6.025   7.972
 7694WAT     H123324   0.791   6.101   8.030
 7694WAT     H223325   0.840   5.995   7.916
 7695WAT      O23326   8.693   7.459   1.547
 7695WAT     H123327   8.693   7.536   1.611
 7695WAT     H223328   8.786   7.441   1.516
 7696WAT      O23329   7.920   3.612   0.598
 7696WAT     H123330   7.967   3.694   0.630
 7696WAT     H223331   7.915   3.614   0.498
 7697WAT      O23332   7.515   6.106   3.828
 7697WAT     H123333   7.605   6.114   3.787
 7697WAT     H223334   7.446   6.143   3.766
 7698WAT      O23335   4.980   9.743   7.860
 7698WAT     H123336   4.920   9.758   7.781
 7698WAT     H223337   4.955   9.656   7.904
 7699WAT      O23338   1.230   1.593   5.661
 7699WAT     H123339   1.245   1.638   5.572
 7699WAT     H223340   1.314   1.547   5.690
 7700WAT      O23341   0.662   0.285   3.087
 7700WAT     H123342   0.692   0.274   2.993
 7700WAT     H223343   0.667   0.197   3.134
 7701WAT      O23344   6.473   7.342   4.861
 7701WAT     H123345   6.399   7.276   4.875
 7701WAT     H223346   6.532   7.311   4.786
 7702WAT      O23347   5.798   5.783   3.720
 7702WAT     H123348   5.789   5.851   3.648
 7702WAT     H223349   5.863   5.817   3.789
 7703WAT      O23350   8.329   8.852   5.389
 7703WAT     H123351   8.234   8.879   5.376
 7703WAT     H223352   8.365   8.897   5.471
 7704WAT      O23353   0.298   1.382   5.943
 7704WAT     H123354   0.378   1.389   6.003
 7704WAT     H223355   0.246   1.299   5.966
 7705WAT      O23356   9.750   8.646   5.403
 7705WAT     H123357   9.813   8.722   5.392
 7705WAT     H223358   9.799   8.567   5.440
 7706WAT      O23359   6.921   8.921   3.301
 7706WAT     H123360   6.837   8.972   3.288
 7706WAT     H223361   6.922   8.842   3.240
 7707WAT      O23362   7.599   0.687   6.064
 7707WAT     H123363   7.653   0.767   6.092
 7707WAT     H223364   7.612   0.613   6.130
 7708WAT      O23365   0.672   7.405   5.549
 7708WAT     H123366   0.747   7.342   5.569
 7708WAT     H223367   0.664   7.416   5.450
 7709WAT      O23368   2.536   5.388   2.422
 7709WAT     H123369   2.465   5.459   2.426
 7709WAT     H223370   2.512   5.313   2.483
 7710WAT      O23371   8.428   7.970   5.889
 7710WAT     H123372   8.452   8.066   5.901
 7710WAT     H223373   8.464   7.917   5.966
 7711WAT      O23374   2.089   2.006   1.403
 7711WAT     H123375   2.109   1.951   1.484
 7711WAT     H223376   2.026   1.956   1.343
 7712WAT      O23377   6.700   5.227   2.725
 7712WAT     H123378   6.746   5.142   2.699
 7712WAT     H223379   6.750   5.305   2.687
 7713WAT      O23380   5.297   9.048   3.019
 7713WAT     H123381   5.220   9.060   3.082
 7713WAT     H223382   5.361   8.982   3.057
 7714WAT      O23383   9.212   3.794   0.674
 7714WAT     H123384   9.296   3.791   0.728
 7714WAT     H223385   9.234   3.776   0.578
 7715WAT      O23386   7.223   6.759   0.751
 7715WAT     H123387   7.314   6.717   0.745
 7715WAT     H223388   7.157   6.692   0.782
 7716WAT      O23389   0.047   8.542   9.132
 7716WAT     H123390   0.067   8.444   9.136
 7716WAT     H223391   0.089   8.581   9.050
 7717WAT      O23392   9.043   4.597   4.487
 7717WAT     H123393   8.979   4.526   4.517
 7717WAT     H223394   9.085   4.640   4.568
 7718WAT      O23395   1.973   1.738   7.539
 7718WAT     H123396   1.912   1.661   7.524
 7718WAT     H223397   2.065   1.705   7.560
 7719WAT      O23398   2.555   3.591   5.378
 7719WAT     H123399   2.614   3.663   5.415
 7719WAT     H223400   2.541   3.605   5.280
 7720WAT      O23401   1.082   0.923   2.464
 7720WAT     H123402   1.010   0.991   2.476
 7720WAT     H223403   1.144   0.925   2.542
 7721WAT      O23404   0.039   2.309   6.671
 7721WAT     H123405   0.130   2.276   6.648
 7721WAT     H223406   0.021   2.291   6.768
 7722WAT      O23407   9.095   1.491   8.489
 7722WAT     H123408   9.028   1.539   8.433
 7722WAT     H223409   9.186   1.503   8.448
 7723WAT      O23410   6.152   3.057   5.278
 7723WAT     H123411   6.121   3.144   5.315
 7723WAT     H223412   6.250   3.046   5.294
 7724WAT      O23413   0.368   3.114   1.427
 7724WAT     H123414   0.396   3.027   1.467
 7724WAT     H223415   0.398   3.120   1.332
 7725WAT      O23416   4.617   2.090   1.606
 7725WAT     H123417   4.636   2.003   1.562
 7725WAT     H223418   4.572   2.152   1.542
 7726WAT      O23419   7.057   7.201   2.358
 7726WAT     H123420   7.114   7.120   2.373
 7726WAT     H223421   7.068   7.232   2.264
 7727WAT      O23422   7.743   5.551   8.498
 7727WAT     H123423   7.803   5.581   8.572
 7727WAT     H223424   7.667   5.615   8.489
 7728WAT      O23425   3.747   1.250   4.963
 7728WAT     H123426   3.831   1.204   4.989
 7728WAT     H223427   3.673   1.183   4.956
 7729WAT      O23428   3.656   8.274   0.051
 7729WAT     H123429   3.747   8.234   0.048
 7729WAT     H223430   3.617   8.277  -0.041
 7730WAT      O23431   9.793   7.494   1.079
 7730WAT     H123432   9.836   7.533   1.160
 7730WAT     H223433   9.783   7.564   1.009
 7731WAT      O23434   3.746   0.636   6.957
 7731WAT     H123435   3.752   0.735   6.967
 7731WAT     H223436   3.724   0.613   6.862
 7732WAT      O23437   6.677   6.398   5.794
 7732WAT     H123438   6.760   6.350   5.826
 7732WAT     H223439   6.699   6.494   5.777
 7733WAT      O23440   3.830   7.819   1.420
 7733WAT     H123441   3.871   7.790   1.333
 7733WAT     H223442   3.754   7.882   1.401
 7734WAT      O23443   4.123   5.981   7.639
 7734WAT     H123444   4.199   5.919   7.658
 7734WAT     H223445   4.081   6.010   7.725
 7735WAT      O23446   9.056   7.986   7.955
 7735WAT     H123447   9.036   7.955   7.862
 7735WAT     H223448   8.971   7.999   8.006
 7736WAT      O23449   5.527   2.739   6.776
 7736WAT     H123450   5.563   2.776   6.862
 7736WAT     H223451   5.579   2.657   6.752
 7737WAT      O23452   7.645   2.650   2.647
 7737WAT     H123453   7.668   2.629   2.742
 7737WAT     H223454   7.646   2.567   2.593
 7738WAT      O23455   1.788   4.307   6.802
 7738WAT     H123456   1.772   4.229   6.741
 7738WAT     H223457   1.736   4.386   6.770
 7739WAT      O23458   4.397   3.684   8.972
 7739WAT     H123459   4.324   3.746   9.000
 7739WAT     H223460   4.486   3.724   8.995
 7740WAT      O23461   3.386   6.700   1.205
 7740WAT     H123462   3.411   6.757   1.284
 7740WAT     H223463   3.413   6.606   1.222
 7741WAT      O23464   6.753   8.238   4.926
 7741WAT     H123465   6.798   8.293   4.855
 7741WAT     H223466   6.764   8.141   4.905
 7742WAT      O23467   6.444   4.052   4.561
 7742WAT     H123468   6.389   3.969   4.561
 7742WAT     H223469   6.395   4.124   4.610
 7743WAT      O23470   5.267   5.386   8.416
 7743WAT     H123471   5.215   5.465   8.383
 7743WAT     H223472   5.212   5.303   8.408
 7744WAT      O23473   6.280   2.195   3.955
 7744WAT     H123474   6.182   2.215   3.946
 7744WAT     H223475   6.299   2.106   3.915
 7745WAT      O23476   4.685   6.534   1.760
 7745WAT     H123477   4.766   6.476   1.766
 7745WAT     H223478   4.702   6.619   1.810
 7746WAT      O23479   3.636   8.916   6.667
 7746WAT     H123480   3.606   8.882   6.756
 7746WAT     H223481   3.733   8.898   6.655
 7747WAT      O23482   0.518   9.005   3.005
 7747WAT     H123483   0.489   9.026   3.099
 7747WAT     H223484   0.467   9.061   2.941
 7748WAT      O23485   9.207   6.712   1.154
 7748WAT     H123486   9.261   6.672   1.080
 7748WAT     H223487   9.110   6.704   1.133
 7749WAT      O23488   9.232   7.636   7.222
 7749WAT     H123489   9.316   7.617   7.272
 7749WAT     H223490   9.244   7.716   7.164
 7750WAT      O23491   5.687   3.741   8.270
 7750WAT     H123492   5.645   3.735   8.180
 7750WAT     H223493   5.709   3.649   8.303
 7751WAT      O23494   4.884   9.532   6.429
 7751WAT     H123495   4.983   9.530   6.417
 7751WAT     H223496   4.840   9.516   6.340
 7752WAT      O23497   6.387   7.079   4.118
 7752WAT     H123498   6.302   7.030   4.101
 7752WAT     H223499   6.366   7.170   4.156
 7753WAT      O23500   5.209   7.016   8.705
 7753WAT     H123501   5.258   7.096   8.670
 7753WAT     H223502   5.265   6.970   8.774
 7754WAT      O23503   8.852   7.444   4.128
 7754WAT     H123504   8.817   7.481   4.214
 7754WAT     H223505   8.789   7.466   4.054
 7755WAT      O23506   7.270   0.200   5.606
 7755WAT     H123507   7.254   0.257   5.526
 7755WAT     H223508   7.194   0.212   5.671
 7756WAT      O23509   8.498   0.490   1.942
 7756WAT     H123510   8.432   0.428   1.985
 7756WAT     H223511   8.453   0.538   1.867
 7757WAT      O23512   6.047   5.242   8.466
 7757WAT     H123513   6.024   5.326   8.516
 7757WAT     H223514   6.027   5.255   8.369
 7758WAT      O23515   6.871   0.730   3.936
 7758WAT     H123516   6.816   0.647   3.926
 7758WAT     H223517   6.956   0.708   3.984
 7759WAT      O23518   5.194   2.875   7.003
 7759WAT     H123519   5.229   2.968   7.016
 7759WAT     H223520   5.155   2.841   7.088
 7760WAT      O23521   2.607   8.682   8.218
 7760WAT     H123522   2.546   8.609   8.189
 7760WAT     H223523   2.669   8.705   8.143
 7761WAT      O23524   9.248   6.094   9.454
 7761WAT     H123525   9.227   6.167   9.520
 7761WAT     H223526   9.169   6.081   9.393
 7762WAT      O23527   3.791   7.829   6.466
 7762WAT     H123528   3.865   7.895   6.455
 7762WAT     H223529   3.808   7.773   6.547
 7763WAT      O23530   8.347   7.917   4.175
 7763WAT     H123531   8.313   7.993   4.118
 7763WAT     H223532   8.282   7.899   4.248
 7764WAT      O23533   0.226   1.087   7.819
 7764WAT     H123534   0.257   1.148   7.746
 7764WAT     H223535   0.250   1.126   7.908
 7765WAT      O23536   1.029   8.485   5.519
 7765WAT     H123537   0.945   8.466   5.569
 7765WAT     H223538   1.007   8.506   5.423
 7766WAT      O23539   5.258   7.838   9.040
 7766WAT     H123540   5.259   7.775   8.963
 7766WAT     H223541   5.210   7.922   9.015
 7767WAT      O23542   8.682   5.859   3.298
 7767WAT     H123543   8.765   5.831   3.250
 7767WAT     H223544   8.707   5.913   3.378
 7768WAT      O23545   4.658   9.695   9.826
 7768WAT     H123546   4.575   9.743   9.798
 7768WAT     H223547   4.663   9.606   9.780
 7769WAT      O23548   1.331   0.709   2.635
 7769WAT     H123549   1.378   0.630   2.674
 7769WAT     H223550   1.234   0.687   2.621
 7770WAT      O23551   3.790   8.475   8.099
 7770WAT     H123552   3.770   8.433   8.011
 7770WAT     H223553   3.758   8.415   8.173
 7771WAT      O23554   3.030   0.707   3.291
 7771WAT     H123555   2.981   0.634   3.242
 7771WAT     H223556   2.964   0.761   3.343
 7772WAT      O23557   6.556   4.111   9.275
 7772WAT     H123558   6.633   4.048   9.263
 7772WAT     H223559   6.470   4.061   9.267
 7773WAT      O23560   2.292   3.962   7.102
 7773WAT     H123561   2.214   4.006   7.058
 7773WAT     H223562   2.344   4.030   7.153
 7774WAT      O23563   6.850   8.244   2.162
 7774WAT     H123564   6.896   8.300   2.092
 7774WAT     H223565   6.773   8.295   2.200
 7775WAT      O23566   6.293   5.244   6.267
 7775WAT     H123567   6.324   5.170   6.208
 7775WAT     H223568   6.297   5.330   6.217
 7776WAT      O23569   3.374   6.760   3.491
 7776WAT     H123570   3.280   6.725   3.488
 7776WAT     H223571   3.372   6.859   3.508
 7777WAT      O23572   6.029   9.041   2.601
 7777WAT     H123573   6.076   8.975   2.542
 7777WAT     H223574   5.987   8.993   2.678
 7778WAT      O23575   4.975   8.499   3.167
 7778WAT     H123576   5.009   8.553   3.244
 7778WAT     H223577   4.890   8.538   3.133
 7779WAT      O23578   6.396   5.299   6.694
 7779WAT     H123579   6.427   5.328   6.785
 7779WAT     H223580   6.453   5.223   6.662
 7780WAT      O23581   4.574   0.810   0.788
 7780WAT     H123582   4.513   0.792   0.711
 7780WAT     H223583   4.605   0.723   0.827
 7781WAT      O23584   0.598   2.730   6.070
 7781WAT     H123585   0.598   2.720   5.970
 7781WAT     H223586   0.513   2.773   6.099
 7782WAT      O23587   7.917   8.445   3.263
 7782WAT     H123588   7.878   8.464   3.353
 7782WAT     H223589   7.857   8.482   3.192
 7783WAT      O23590   0.841   0.725   0.183
 7783WAT     H123591   0.890   0.734   0.096
 7783WAT     H223592   0.745   0.705   0.165
 7784WAT      O23593   8.929   7.443   3.009
 7784WAT     H123594   8.974   7.434   2.920
 7784WAT     H223595   8.875   7.361   3.027
 7785WAT      O23596   6.791   5.432   3.313
 7785WAT     H123597   6.889   5.446   3.300
 7785WAT     H223598   6.775   5.390   3.403
 7786WAT      O23599   7.596   9.821   0.285
 7786WAT     H123600   7.579   9.723   0.281
 7786WAT     H223601   7.525   9.869   0.233
 7787WAT      O23602   3.764   9.532   9.232
 7787WAT     H123603   3.763   9.583   9.146
 7787WAT     H223604   3.858   9.528   9.266
 7788WAT      O23605   5.551   8.917   1.623
 7788WAT     H123606   5.523   8.845   1.686
 7788WAT     H223607   5.573   9.000   1.674
 7789WAT      O23608   9.729   9.409   8.970
 7789WAT     H123609   9.791   9.352   8.917
 7789WAT     H223610   9.670   9.350   9.027
 7790WAT      O23611   2.567   1.463   3.219
 7790WAT     H123612   2.565   1.388   3.153
 7790WAT     H223613   2.597   1.547   3.173
 7791WAT      O23614   5.679   0.312   7.115
 7791WAT     H123615   5.585   0.316   7.147
 7791WAT     H223616   5.740   0.354   7.182
 7792WAT      O23617   3.950   4.619   1.215
 7792WAT     H123618   3.914   4.698   1.167
 7792WAT     H223619   3.886   4.543   1.207
 7793WAT      O23620   8.365   1.892   1.979
 7793WAT     H123621   8.352   1.991   1.978
 7793WAT     H223622   8.299   1.850   1.916
 7794WAT      O23623   2.047   5.834   9.716
 7794WAT     H123624   2.113   5.766   9.685
 7794WAT     H223625   2.008   5.805   9.803
 7795WAT      O23626   3.723   2.210   8.985
 7795WAT     H123627   3.756   2.139   9.046
 7795WAT     H223628   3.767   2.297   9.007
 7796WAT      O23629   2.285   0.141   7.830
 7796WAT     H123630   2.367   0.197   7.840
 7796WAT     H223631   2.279   0.075   7.904
 7797WAT      O23632   6.896   2.208   5.892
 7797WAT     H123633   6.797   2.225   5.900
 7797WAT     H223634   6.915   2.113   5.917
 7798WAT      O23635   0.002   6.658   8.399
 7798WAT     H123636   0.071   6.723   8.367
 7798WAT     H223637   0.047   6.584   8.449
 7799WAT      O23638   8.446   8.072   8.159
 7799WAT     H123639   8.407   8.012   8.088
 7799WAT     H223640   8.477   8.016   8.236
 7800WAT      O23641   9.417   3.473   6.556
 7800WAT     H123642   9.500   3.422   6.578
 7800WAT     H223643   9.436   3.571   6.559
 7801WAT      O23644   8.206   1.771   6.321
 7801WAT     H123645   8.143   1.698   6.295
 7801WAT     H223646   8.159   1.859   6.312
 7802WAT      O23647   8.066   5.597   0.567
 7802WAT     H123648   8.125   5.675   0.548
 7802WAT     H223649   8.017   5.611   0.653
 7803WAT      O23650   3.750   0.253   5.772
 7803WAT     H123651   3.758   0.198   5.856
 7803WAT     H223652   3.758   0.350   5.795
 7804WAT      O23653   5.902   4.391   0.532
 7804WAT     H123654   5.999   4.398   0.510
 7804WAT     H223655   5.881   4.452   0.608
 7805WAT      O23656   3.808   2.842   6.872
 7805WAT     H123657   3.906   2.846   6.891
 7805WAT     H223658   3.763   2.924   6.909
 7806WAT      O23659   2.472   8.372   0.564
 7806WAT     H123660   2.392   8.364   0.623
 7806WAT     H223661   2.482   8.289   0.509
 7807WAT      O23662   0.354   4.259   1.768
 7807WAT     H123663   0.270   4.313   1.773
 7807WAT     H223664   0.423   4.309   1.715
 7808WAT      O23665   9.176   9.211   2.377
 7808WAT     H123666   9.219   9.131   2.417
 7808WAT     H223667   9.129   9.263   2.449
 7809WAT      O23668   0.173   9.485   1.911
 7809WAT     H123669   0.233   9.458   1.836
 7809WAT     H223670   0.103   9.415   1.925
 7810WAT      O23671   4.803   3.694   7.598
 7810WAT     H123672   4.714   3.651   7.617
 7810WAT     H223673   4.866   3.626   7.562
 7811WAT      O23674   1.704   8.835   8.084
 7811WAT     H123675   1.680   8.818   7.988
 7811WAT     H223676   1.629   8.885   8.129
 7812WAT      O23677   5.428   3.640   9.488
 7812WAT     H123678   5.408   3.704   9.414
 7812WAT     H223679   5.426   3.546   9.453
 7813WAT      O23680   7.784   2.474   3.915
 7813WAT     H123681   7.766   2.571   3.899
 7813WAT     H223682   7.700   2.431   3.950
 7814WAT      O23683   4.355   5.206   7.452
 7814WAT     H123684   4.290   5.275   7.420
 7814WAT     H223685   4.398   5.161   7.374
 7815WAT      O23686   7.164   2.982   7.419
 7815WAT     H123687   7.101   2.981   7.342
 7815WAT     H223688   7.178   3.076   7.450
 7816WAT      O23689   5.093   6.471   2.612
 7816WAT     H123690   5.128   6.446   2.522
 7816WAT     H223691   5.125   6.405   2.680
 7817WAT      O23692   4.151   9.716   2.631
 7817WAT     H123693   4.246   9.713   2.660
 7817WAT     H223694   4.140   9.660   2.548
 7818WAT      O23695   2.291   3.697   1.816
 7818WAT     H123696   2.372   3.744   1.851
 7818WAT     H223697   2.307   3.598   1.819
 7819WAT      O23698   1.515   6.393   6.332
 7819WAT     H123699   1.545   6.489   6.328
 7819WAT     H223700   1.463   6.378   6.416
 7820WAT      O23701   4.092   5.743   0.377
 7820WAT     H123702   4.189   5.728   0.357
 7820WAT     H223703   4.051   5.657   0.408
 7821WAT      O23704   2.057   8.981   4.589
 7821WAT     H123705   1.989   8.976   4.515
 7821WAT     H223706   2.070   9.076   4.616
 7822WAT      O23707   2.514   7.863   3.165
 7822WAT     H123708   2.580   7.831   3.097
 7822WAT     H223709   2.499   7.961   3.154
 7823WAT      O23710   8.021   4.574   1.611
 7823WAT     H123711   8.060   4.573   1.703
 7823WAT     H223712   8.082   4.525   1.548
 7824WAT      O23713   8.756   9.083   5.399
 7824WAT     H123714   8.691   9.159   5.408
 7824WAT     H223715   8.752   9.025   5.479
 7825WAT      O23716   7.016   4.838   4.649
 7825WAT     H123717   6.969   4.800   4.729
 7825WAT     H223718   6.960   4.911   4.609
 7826WAT      O23719   6.704   1.097   8.673
 7826WAT     H123720   6.784   1.098   8.733
 7826WAT     H223721   6.704   1.013   8.619
 7827WAT      O23722   9.849   5.864   0.958
 7827WAT     H123723   9.869   5.935   1.025
 7827WAT     H223724   9.766   5.888   0.908
 7828WAT      O23725   1.273   6.484   5.381
 7828WAT     H123726   1.295   6.545   5.305
 7828WAT     H223727   1.331   6.402   5.375
 7829WAT      O23728   8.864   9.455   2.960
 7829WAT     H123729   8.775   9.502   2.963
 7829WAT     H223730   8.904   9.469   2.869
 7830WAT      O23731   5.454   1.910   2.364
 7830WAT     H123732   5.520   1.835   2.367
 7830WAT     H223733   5.502   1.997   2.349
 7831WAT      O23734   9.860   2.819   6.206
 7831WAT     H123735   9.942   2.762   6.209
 7831WAT     H223736   9.862   2.877   6.125
 7832WAT      O23737   7.339   6.006   1.412
 7832WAT     H123738   7.307   6.065   1.338
 7832WAT     H223739   7.387   6.062   1.481
 7833WAT      O23740   9.605   9.278   7.566
 7833WAT     H123741   9.571   9.208   7.629
 7833WAT     H223742   9.530   9.310   7.509
 7834WAT      O23743   1.664   5.690   7.065
 7834WAT     H123744   1.669   5.601   7.110
 7834WAT     H223745   1.665   5.676   6.966
 7835WAT      O23746   4.542   9.515   3.782
 7835WAT     H123747   4.459   9.568   3.767
 7835WAT     H223748   4.614   9.548   3.720
 7836WAT      O23749   3.009   4.036   9.236
 7836WAT     H123750   2.968   4.025   9.326
 7836WAT     H223751   3.055   3.951   9.209
 7837WAT      O23752   9.518   6.841   2.682
 7837WAT     H123753   9.536   6.808   2.589
 7837WAT     H223754   9.428   6.811   2.711
 7838WAT      O23755   0.774   7.326   6.335
 7838WAT     H123756   0.710   7.307   6.409
 7838WAT     H223757   0.739   7.400   6.278
 7839WAT      O23758   6.539   3.949   2.620
 7839WAT     H123759   6.589   3.867   2.593
 7839WAT     H223760   6.486   3.930   2.703
 7840WAT      O23761   0.313   1.667   0.830
 7840WAT     H123762   0.369   1.609   0.889
 7840WAT     H223763   0.225   1.623   0.812
 7841WAT      O23764   6.175   6.961   1.347
 7841WAT     H123765   6.255   7.014   1.375
 7841WAT     H223766   6.202   6.899   1.273
 7842WAT      O23767   4.999   6.937   6.978
 7842WAT     H123768   4.965   6.866   6.916
 7842WAT     H223769   4.926   6.963   7.041
 7843WAT      O23770   9.784   2.797   9.816
 7843WAT     H123771   9.718   2.805   9.891
 7843WAT     H223772   9.750   2.732   9.748
 7844WAT      O23773   4.727   9.236   6.217
 7844WAT     H123774   4.744   9.332   6.193
 7844WAT     H223775   4.633   9.226   6.251
 7845WAT      O23776   0.163   3.639   7.320
 7845WAT     H123777   0.131   3.696   7.396
 7845WAT     H223778   0.213   3.560   7.356
 7846WAT      O23779   2.970   3.965   5.472
 7846WAT     H123780   2.996   4.043   5.415
 7846WAT     H223781   2.872   3.969   5.492
 7847WAT      O23782   7.417   7.687   4.835
 7847WAT     H123783   7.512   7.702   4.808
 7847WAT     H223784   7.401   7.589   4.847
 7848WAT      O23785   0.444   3.476   6.016
 7848WAT     H123786   0.515   3.412   5.985
 7848WAT     H223787   0.484   3.567   6.027
 7849WAT      O23788   0.962   0.367   9.663
 7849WAT     H123789   1.055   0.370   9.698
 7849WAT     H223790   0.950   0.436   9.591
 7850WAT      O23791   4.110   7.993   4.581
 7850WAT     H123792   4.078   8.067   4.640
 7850WAT     H223793   4.207   8.006   4.560
 7851WAT      O23794   2.709   7.395   0.973
 7851WAT     H123795   2.658   7.316   0.936
 7851WAT     H223796   2.644   7.467   0.998
 7852WAT      O23797   8.456   7.541   9.424
 7852WAT     H123798   8.378   7.563   9.482
 7852WAT     H223799   8.465   7.610   9.352
 7853WAT      O23800   3.201   9.615   0.393
 7853WAT     H123801   3.180   9.517   0.402
 7853WAT     H223802   3.214   9.654   0.484
 7854WAT      O23803   3.851   6.777   6.049
 7854WAT     H123804   3.791   6.735   5.981
 7854WAT     H223805   3.807   6.857   6.089
 7855WAT      O23806   9.381   8.770   0.725
 7855WAT     H123807   9.288   8.792   0.756
 7855WAT     H223808   9.381   8.759   0.626
 7856WAT      O23809   1.063   6.701   2.350
 7856WAT     H123810   1.140   6.640   2.369
 7856WAT     H223811   1.019   6.728   2.435
 7857WAT      O23812   4.987   7.455   0.569
 7857WAT     H123813   4.914   7.523   0.580
 7857WAT     H223814   4.951   7.365   0.593
 7858WAT      O23815   1.032   4.414   7.456
 7858WAT     H123816   1.111   4.352   7.454
 7858WAT     H223817   1.060   4.504   7.424
 7859WAT      O23818   2.273   1.535   8.674
 7859WAT     H123819   2.224   1.601   8.731
 7859WAT     H223820   2.367   1.568   8.660
 7860WAT      O23821   0.755   4.616   9.211
 7860WAT     H123822   0.824   4.687   9.227
 7860WAT     H223823   0.679   4.654   9.159
 7861WAT      O23824   5.234   6.656   8.639
 7861WAT     H123825   5.292   6.575   8.633
 7861WAT     H223826   5.282   6.729   8.688
 7862WAT      O23827   5.458   0.311   8.787
 7862WAT     H123828   5.365   0.347   8.789
 7862WAT     H223829   5.485   0.295   8.692
 7863WAT      O23830   1.795   8.905   7.031
 7863WAT     H123831   1.869   8.958   6.989
 7863WAT     H223832   1.772   8.828   6.972
 7864WAT      O23833   4.328   5.794   7.687
 7864WAT     H123834   4.331   5.733   7.765
 7864WAT     H223835   4.368   5.882   7.711
 7865WAT      O23836   8.602   6.847   6.858
 7865WAT     H123837   8.512   6.862   6.899
 7865WAT     H223838   8.623   6.749   6.858
 7866WAT      O23839   0.045   1.840   0.162
 7866WAT     H123840   0.067   1.762   0.220
 7866WAT     H223841  -0.013   1.810   0.086
 7867WAT      O23842   2.965   1.427   1.597
 7867WAT     H123843   3.040   1.367   1.623
 7867WAT     H223844   2.963   1.438   1.498
 7868WAT      O23845   1.738   9.072   2.963
 7868WAT     H123846   1.814   9.097   2.904
 7868WAT     H223847   1.768   9.001   3.027
 7869WAT      O23848   4.519   5.076   7.700
 7869WAT     H123849   4.472   5.140   7.640
 7869WAT     H223850   4.584   5.021   7.648
 7870WAT      O23851   9.827   6.517   4.382
 7870WAT     H123852   9.748   6.505   4.442
 7870WAT     H223853   9.910   6.519   4.438
 7871WAT      O23854   4.402   6.835   5.890
 7871WAT     H123855   4.332   6.903   5.912
 7871WAT     H223856   4.482   6.849   5.949
 7872WAT      O23857   2.219   6.251   0.521
 7872WAT     H123858   2.271   6.316   0.577
 7872WAT     H223859   2.152   6.204   0.577
 7873WAT      O23860   8.026   1.387   6.512
 7873WAT     H123861   7.953   1.430   6.460
 7873WAT     H223862   8.002   1.292   6.531
 7874WAT      O23863   0.984   9.598   7.315
 7874WAT     H123864   0.958   9.672   7.378
 7874WAT     H223865   0.971   9.630   7.221
 7875WAT      O23866   7.865   8.458   9.222
 7875WAT     H123867   7.958   8.458   9.259
 7875WAT     H223868   7.853   8.537   9.162
 7876WAT      O23869   2.153   0.180   4.513
 7876WAT     H123870   2.153   0.088   4.550
 7876WAT     H223871   2.116   0.179   4.420
 7877WAT      O23872   3.366   8.291   1.238
 7877WAT     H123873   3.392   8.247   1.324
 7877WAT     H223874   3.369   8.391   1.251
 7878WAT      O23875   8.466   6.193   3.003
 7878WAT     H123876   8.405   6.272   3.005
 7878WAT     H223877   8.434   6.128   2.933
 7879WAT      O23878   1.658   2.609   9.622
 7879WAT     H123879   1.706   2.560   9.548
 7879WAT     H223880   1.705   2.695   9.641
 7880WAT      O23881   8.704   5.164   7.314
 7880WAT     H123882   8.770   5.139   7.243
 7880WAT     H223883   8.641   5.233   7.279
 7881WAT      O23884   2.998   7.955   1.569
 7881WAT     H123885   3.050   7.947   1.484
 7881WAT     H223886   3.051   7.915   1.644
 7882WAT      O23887   7.685   6.751   8.653
 7882WAT     H123888   7.755   6.809   8.696
 7882WAT     H223889   7.595   6.788   8.673
 7883WAT      O23890   7.357   3.383   1.135
 7883WAT     H123891   7.283   3.381   1.201
 7883WAT     H223892   7.407   3.469   1.143
 7884WAT      O23893   6.908   7.216   4.548
 7884WAT     H123894   6.884   7.279   4.622
 7884WAT     H223895   7.007   7.204   4.545
 7885WAT      O23896   6.940   4.842   0.565
 7885WAT     H123897   6.906   4.911   0.502
 7885WAT     H223898   6.880   4.837   0.645
 7886WAT      O23899   3.338   7.721   8.416
 7886WAT     H123900   3.364   7.762   8.503
 7886WAT     H223901   3.375   7.776   8.341
 7887WAT      O23902   1.501   7.474   8.652
 7887WAT     H123903   1.442   7.455   8.574
 7887WAT     H223904   1.490   7.402   8.721
 7888WAT      O23905   4.205   2.965   3.446
 7888WAT     H123906   4.134   2.895   3.436
 7888WAT     H223907   4.174   3.049   3.402
 7889WAT      O23908   6.134   1.144   3.260
 7889WAT     H123909   6.211   1.095   3.219
 7889WAT     H223910   6.115   1.105   3.350
 7890WAT      O23911   9.671   9.658   8.143
 7890WAT     H123912   9.638   9.733   8.200
 7890WAT     H223913   9.595   9.622   8.089
 7891WAT      O23914   3.058   2.773   9.850
 7891WAT     H123915   2.978   2.754   9.792
 7891WAT     H223916   3.117   2.692   9.852
 7892WAT      O23917   2.193   7.593   0.396
 7892WAT     H123918   2.126   7.580   0.468
 7892WAT     H223919   2.160   7.662   0.331
 7893WAT      O23920   6.646   6.190   9.654
 7893WAT     H123921   6.608   6.134   9.580
 7893WAT     H223922   6.607   6.282   9.651
 7894WAT      O23923   7.139   9.064   8.466
 7894WAT     H123924   7.041   9.069   8.486
 7894WAT     H223925   7.153   9.075   8.367
 7895WAT      O23926   7.155   1.997   8.977
 7895WAT     H123927   7.155   2.064   8.902
 7895WAT     H223928   7.061   1.978   9.005
 7896WAT      O23929   1.752   1.388   1.780
 7896WAT     H123930   1.844   1.378   1.741
 7896WAT     H223931   1.755   1.454   1.855
 7897WAT      O23932   5.457   8.207   4.676
 7897WAT     H123933   5.369   8.166   4.699
 7897WAT     H223934   5.444   8.281   4.609
 7898WAT      O23935   6.916   6.754   9.169
 7898WAT     H123936   6.823   6.755   9.206
 7898WAT     H223937   6.973   6.820   9.219
 7899WAT      O23938   8.166   2.601   6.949
 7899WAT     H123939   8.150   2.658   7.030
 7899WAT     H223940   8.159   2.504   6.975
 7900WAT      O23941   6.741   9.644   1.497
 7900WAT     H123942   6.695   9.711   1.555
 7900WAT     H223943   6.837   9.671   1.485
 7901WAT      O23944   3.483   0.159   5.983
 7901WAT     H123945   3.506   0.120   5.893
 7901WAT     H223946   3.408   0.224   5.972
 7902WAT      O23947   3.508   1.076   2.208
 7902WAT     H123948   3.570   1.147   2.242
 7902WAT     H223949   3.446   1.116   2.140
 7903WAT      O23950   5.081   4.069   7.607
 7903WAT     H123951   5.083   3.970   7.626
 7903WAT     H223952   5.064   4.119   7.692
 7904WAT      O23953   2.902   3.597   2.270
 7904WAT     H123954   2.923   3.671   2.334
 7904WAT     H223955   2.986   3.568   2.224
 7905WAT      O23956   0.142   9.298   0.251
 7905WAT     H123957   0.141   9.397   0.261
 7905WAT     H223958   0.194   9.257   0.327
 7906WAT      O23959   0.992   4.521   6.269
 7906WAT     H123960   1.043   4.493   6.189
 7906WAT     H223961   1.050   4.579   6.327
 7907WAT      O23962   8.730   3.751   7.406
 7907WAT     H123963   8.643   3.702   7.402
 7907WAT     H223964   8.741   3.792   7.497
 7908WAT      O23965   9.284   2.365   1.844
 7908WAT     H123966   9.328   2.352   1.755
 7908WAT     H223967   9.188   2.389   1.831
 7909WAT      O23968   6.081   9.164   3.306
 7909WAT     H123969   6.147   9.104   3.261
 7909WAT     H223970   6.040   9.116   3.384
 7910WAT      O23971   1.925   0.720   0.303
 7910WAT     H123972   1.922   0.813   0.265
 7910WAT     H223973   1.913   0.723   0.402
 7911WAT      O23974   2.249   5.812   9.025
 7911WAT     H123975   2.250   5.782   9.120
 7911WAT     H223976   2.163   5.858   9.005
 7912WAT      O23977   5.204   5.730   6.906
 7912WAT     H123978   5.183   5.813   6.958
 7912WAT     H223979   5.205   5.751   6.808
 7913WAT      O23980   3.409   8.101   8.552
 7913WAT     H123981   3.492   8.142   8.514
 7913WAT     H223982   3.339   8.171   8.562
 7914WAT      O23983   3.575   2.653   7.580
 7914WAT     H123984   3.528   2.596   7.512
 7914WAT     H223985   3.520   2.658   7.663
 7915WAT      O23986   6.164   3.326   2.180
 7915WAT     H123987   6.179   3.412   2.229
 7915WAT     H223988   6.193   3.249   2.238
 7916WAT      O23989   0.709   7.230   2.932
 7916WAT     H123990   0.658   7.184   2.860
 7916WAT     H223991   0.731   7.323   2.903
 7917WAT      O23992   6.797   3.875   4.253
 7917WAT     H123993   6.773   3.778   4.257
 7917WAT     H223994   6.859   3.897   4.329
 7918WAT      O23995   0.470   1.648   1.410
 7918WAT     H123996   0.395   1.660   1.346
 7918WAT     H223997   0.437   1.660   1.504
 7919WAT      O23998   4.932   1.931   3.820
 7919WAT     H123999   5.030   1.945   3.837
 7919WAT     H224000   4.918   1.898   3.727
 7920WAT      O24001   5.774   9.245   2.876
 7920WAT     H124002   5.784   9.318   2.808
 7920WAT     H224003   5.676   9.228   2.893
 7921WAT      O24004   4.644   9.700   2.905
 7921WAT     H124005   4.669   9.796   2.912
 7921WAT     H224006   4.556   9.691   2.858
 7922WAT      O24007   6.351   3.510   1.655
 7922WAT     H124008   6.289   3.550   1.723
 7922WAT     H224009   6.303   3.498   1.569
 7923WAT      O24010   7.587   6.513   2.864
 7923WAT     H124011   7.595   6.610   2.838
 7923WAT     H224012   7.512   6.471   2.813
 7924WAT      O24013   9.187   1.782   5.235
 7924WAT     H124014   9.156   1.873   5.264
 7924WAT     H224015   9.279   1.765   5.270
 7925WAT      O24016   8.554   9.289   5.065
 7925WAT     H124017   8.534   9.385   5.086
 7925WAT     H224018   8.528   9.270   4.970
 7926WAT      O24019   4.758   6.094   1.787
 7926WAT     H124020   4.702   6.102   1.705
 7926WAT     H224021   4.808   6.008   1.786
 7927WAT      O24022   0.581   2.361   4.633
 7927WAT     H124023   0.672   2.319   4.636
 7927WAT     H224024   0.512   2.291   4.647
 7928WAT      O24025   5.448   1.531   7.060
 7928WAT     H124026   5.448   1.431   7.059
 7928WAT     H224027   5.541   1.565   7.045
 7929WAT      O24028  -0.001   6.302   7.573
 7929WAT     H124029   0.025   6.395   7.599
 7929WAT     H224030   0.074   6.239   7.594
 7930WAT      O24031   6.471   8.788   5.226
 7930WAT     H124032   6.560   8.775   5.269
 7930WAT     H224033   6.438   8.700   5.191
 7931WAT      O24034   1.636   1.903   5.176
 7931WAT     H124035   1.583   1.834   5.226
 7931WAT     H224036   1.732   1.874   5.172
 7932WAT      O24037   4.836   2.509   6.289
 7932WAT     H124038   4.811   2.474   6.199
 7932WAT     H224039   4.792   2.598   6.304
 7933WAT      O24040   9.510   3.256   0.508
 7933WAT     H124041   9.488   3.159   0.521
 7933WAT     H224042   9.582   3.265   0.438
 7934WAT      O24043   7.850   1.651   2.152
 7934WAT     H124044   7.905   1.584   2.101
 7934WAT     H224045   7.758   1.615   2.166
 7935WAT      O24046   4.014   1.153   3.058
 7935WAT     H124047   4.042   1.097   2.980
 7935WAT     H224048   4.082   1.145   3.131
 7936WAT      O24049   4.096   1.273   3.992
 7936WAT     H124050   4.098   1.174   4.002
 7936WAT     H224051   4.060   1.297   3.901
 7937WAT      O24052   4.293   5.846   0.682
 7937WAT     H124053   4.240   5.921   0.721
 7937WAT     H224054   4.390   5.858   0.705
 7938WAT      O24055   2.746   6.837   3.227
 7938WAT     H124056   2.697   6.761   3.269
 7938WAT     H224057   2.730   6.921   3.279
 7939WAT      O24058   0.292   7.321   4.629
 7939WAT     H124059   0.369   7.276   4.673
 7939WAT     H224060   0.218   7.255   4.613
 7940WAT      O24061   4.638   8.990   3.588
 7940WAT     H124062   4.558   8.937   3.614
 7940WAT     H224063   4.684   8.946   3.511
 7941WAT      O24064   9.853   5.374   9.089
 7941WAT     H124065   9.899   5.307   9.031
 7941WAT     H224066   9.790   5.429   9.033
 7942WAT      O24067   5.238   2.401   0.725
 7942WAT     H124068   5.161   2.436   0.671
 7942WAT     H224069   5.272   2.317   0.682
 7943WAT      O24070   6.236   5.945   7.144
 7943WAT     H124071   6.201   5.870   7.200
 7943WAT     H224072   6.293   5.907   7.070
 7944WAT      O24073   7.110   1.101   5.066
 7944WAT     H124074   7.108   1.105   4.966
 7944WAT     H224075   7.070   1.015   5.097
 7945WAT      O24076   0.404   4.903   5.555
 7945WAT     H124077   0.441   4.993   5.576
 7945WAT     H224078   0.304   4.909   5.546
 7946WAT      O24079   3.555   9.614   8.165
 7946WAT     H124080   3.621   9.607   8.240
 7946WAT     H224081   3.485   9.681   8.189
 7947WAT      O24082   1.452   6.600   8.223
 7947WAT     H124083   1.428   6.687   8.179
 7947WAT     H224084   1.478   6.533   8.154
 7948WAT      O24085   8.344   1.662   7.488
 7948WAT     H124086   8.322   1.750   7.531
 7948WAT     H224087   8.371   1.597   7.558
 7949WAT      O24088   5.772   5.086   5.745
 7949WAT     H124089   5.826   5.002   5.744
 7949WAT     H224090   5.815   5.154   5.686
 7950WAT      O24091   7.659   5.015   6.758
 7950WAT     H124092   7.653   5.035   6.856
 7950WAT     H224093   7.601   4.936   6.737
 7951WAT      O24094   2.936   9.568   1.130
 7951WAT     H124095   2.837   9.573   1.145
 7951WAT     H224096   2.971   9.483   1.168
 7952WAT      O24097   6.844   3.053   6.225
 7952WAT     H124098   6.758   3.088   6.264
 7952WAT     H224099   6.889   3.126   6.174
 7953WAT      O24100   0.324   6.613   6.970
 7953WAT     H124101   0.379   6.686   6.930
 7953WAT     H224102   0.306   6.633   7.066
 7954WAT      O24103   7.771   1.839   3.901
 7954WAT     H124104   7.827   1.859   3.982
 7954WAT     H224105   7.772   1.741   3.884
 7955WAT      O24106   6.484   8.245   5.518
 7955WAT     H124107   6.508   8.201   5.431
 7955WAT     H224108   6.395   8.211   5.550
 7956WAT      O24109   9.055   0.691   3.215
 7956WAT     H124110   9.005   0.655   3.294
 7956WAT     H224111   9.092   0.781   3.237
 7957WAT      O24112   9.074   2.140   3.367
 7957WAT     H124113   9.012   2.086   3.311
 7957WAT     H224114   9.120   2.209   3.309
 7958WAT      O24115   8.315   3.594   2.820
 7958WAT     H124116   8.243   3.662   2.836
 7958WAT     H224117   8.287   3.506   2.856
 7959WAT      O24118   9.858   9.378   7.916
 7959WAT     H124119   9.948   9.400   7.953
 7959WAT     H224120   9.868   9.312   7.841
 7960WAT      O24121   4.053   8.045   6.160
 7960WAT     H124122   3.962   8.069   6.129
 7960WAT     H224123   4.099   8.127   6.195
 7961WAT      O24124   9.778   8.622   6.099
 7961WAT     H124125   9.875   8.609   6.120
 7961WAT     H224126   9.761   8.591   6.005
 7962WAT      O24127   1.673   5.089   2.046
 7962WAT     H124128   1.684   5.175   2.095
 7962WAT     H224129   1.612   5.104   1.967
 7963WAT      O24130   7.159   8.213   0.139
 7963WAT     H124131   7.071   8.169   0.153
 7963WAT     H224132   7.149   8.313   0.145
 7964WAT      O24133   7.760   9.606   2.723
 7964WAT     H124134   7.822   9.628   2.648
 7964WAT     H224135   7.800   9.535   2.780
 7965WAT      O24136   7.832   6.015   4.335
 7965WAT     H124137   7.795   5.997   4.244
 7965WAT     H224138   7.807   6.107   4.364
 7966WAT      O24139   1.727   9.067   4.290
 7966WAT     H124140   1.651   9.028   4.343
 7966WAT     H224141   1.694   9.096   4.201
 7967WAT      O24142   3.563   0.396   0.512
 7967WAT     H124143   3.464   0.389   0.499
 7967WAT     H224144   3.610   0.350   0.436
 7968WAT      O24145   5.731   3.981   1.643
 7968WAT     H124146   5.688   3.961   1.731
 7968WAT     H224147   5.727   4.080   1.627
 7969WAT      O24148   4.252   8.898   8.558
 7969WAT     H124149   4.226   8.939   8.645
 7969WAT     H224150   4.319   8.825   8.574
 7970WAT      O24151   5.479   4.165   2.470
 7970WAT     H124152   5.431   4.229   2.411
 7970WAT     H224153   5.577   4.167   2.450
 7971WAT      O24154   4.180   5.483   4.107
 7971WAT     H124155   4.128   5.432   4.176
 7971WAT     H224156   4.277   5.484   4.132
 7972WAT      O24157   3.517   8.845   4.298
 7972WAT     H124158   3.574   8.925   4.318
 7972WAT     H224159   3.494   8.844   4.200
 7973WAT      O24160   1.892   1.896   5.279
 7973WAT     H124161   1.926   1.973   5.225
 7973WAT     H224162   1.914   1.911   5.375
 7974WAT      O24163   2.641   2.912   6.187
 7974WAT     H124164   2.666   2.993   6.239
 7974WAT     H224165   2.543   2.914   6.166
 7975WAT      O24166   9.193   2.834   3.537
 7975WAT     H124167   9.269   2.899   3.543
 7975WAT     H224168   9.183   2.804   3.442
 7976WAT      O24169   8.162   9.469   4.757
 7976WAT     H124170   8.238   9.523   4.793
 7976WAT     H224171   8.179   9.372   4.773
 7977WAT      O24172   2.953   7.463   8.404
 7977WAT     H124173   2.907   7.419   8.327
 7977WAT     H224174   2.994   7.392   8.463
 7978WAT      O24175   6.624   3.007   4.489
 7978WAT     H124176   6.652   3.000   4.393
 7978WAT     H224177   6.704   2.997   4.548
 7979WAT      O24178   4.016   2.306   7.773
 7979WAT     H124179   4.088   2.264   7.828
 7979WAT     H224180   3.926   2.283   7.811
 7980WAT      O24181   5.068   1.553   8.431
 7980WAT     H124182   5.168   1.550   8.439
 7980WAT     H224183   5.041   1.636   8.383
 7981WAT      O24184   5.197   4.389   9.011
 7981WAT     H124185   5.186   4.344   8.923
 7981WAT     H224186   5.291   4.424   9.019
 7982WAT      O24187   8.721   2.013   8.645
 7982WAT     H124188   8.673   1.942   8.593
 7982WAT     H224189   8.669   2.098   8.639
 7983WAT      O24190   0.301   3.007   0.273
 7983WAT     H124191   0.215   3.035   0.230
 7983WAT     H224192   0.282   2.944   0.348
 7984WAT      O24193   9.505   5.063   9.594
 7984WAT     H124194   9.481   5.006   9.673
 7984WAT     H224195   9.525   5.005   9.515
 7985WAT      O24196   0.986   2.735   7.222
 7985WAT     H124197   1.008   2.824   7.180
 7985WAT     H224198   0.952   2.673   7.152
 7986WAT      O24199   6.149   5.386   8.816
 7986WAT     H124200   6.106   5.413   8.902
 7986WAT     H224201   6.223   5.322   8.835
 7987WAT      O24202   7.055   0.627   2.698
 7987WAT     H124203   7.135   0.582   2.737
 7987WAT     H224204   7.084   0.713   2.655
 7988WAT      O24205   7.165   6.719   8.695
 7988WAT     H124206   7.175   6.686   8.789
 7988WAT     H224207   7.101   6.660   8.646
 7989WAT      O24208   0.222   5.001   8.660
 7989WAT     H124209   0.244   4.967   8.752
 7989WAT     H224210   0.137   5.053   8.664
 7990WAT      O24211   1.823   6.855   9.178
 7990WAT     H124212   1.759   6.800   9.123
 7990WAT     H224213   1.912   6.810   9.178
 7991WAT      O24214   4.637   2.258   5.289
 7991WAT     H124215   4.668   2.275   5.195
 7991WAT     H224216   4.554   2.310   5.307
 7992WAT      O24217   8.085   4.573   3.973
 7992WAT     H124218   8.163   4.524   4.010
 7992WAT     H224219   8.090   4.669   3.999
 7993WAT      O24220   7.149   6.976   4.655
 7993WAT     H124221   7.185   7.032   4.581
 7993WAT     H224222   7.221   6.960   4.723
 7994WAT      O24223   6.231   7.713   2.433
 7994WAT     H124224   6.244   7.648   2.358
 7994WAT     H224225   6.292   7.689   2.508
 7995WAT      O24226   3.461   6.218   0.913
 7995WAT     H124227   3.468   6.276   0.831
 7995WAT     H224228   3.376   6.238   0.961
 7996WAT      O24229   8.104   2.537   4.540
 7996WAT     H124230   8.184   2.478   4.528
 7996WAT     H224231   8.021   2.482   4.542
 7997WAT      O24232   9.350   0.361   0.038
 7997WAT     H124233   9.435   0.356  -0.014
 7997WAT     H224234   9.340   0.277   0.092
 7998WAT      O24235   2.323   1.149   9.148
 7998WAT     H124236   2.411   1.111   9.175
 7998WAT     H224237   2.337   1.235   9.098
 7999WAT      O24238   2.977   6.268   7.353
 7999WAT     H124239   3.042   6.259   7.429
 7999WAT     H224240   2.885   6.278   7.390
 8000WAT      O24241   4.190   5.513   3.839
 8000WAT     H124242   4.177   5.510   3.938
 8000WAT     H224243   4.173   5.423   3.800
 8001WAT      O24244   3.370   8.251   0.778
 8001WAT     H124245   3.340   8.344   0.803
 8001WAT     H224246   3.429   8.215   0.850
 8002WAT      O24247   4.117   4.506   8.599
 8002WAT     H124248   4.071   4.419   8.581
 8002WAT     H224249   4.215   4.495   8.584
 8003WAT      O24250   7.922   1.723   6.741
 8003WAT     H124251   7.919   1.809   6.690
 8003WAT     H224252   8.010   1.678   6.726
 8004WAT      O24253   6.887   9.226   1.086
 8004WAT     H124254   6.923   9.137   1.114
 8004WAT     H224255   6.787   9.223   1.082
 8005WAT      O24256   2.068   6.064   7.473
 8005WAT     H124257   2.104   6.157   7.468
 8005WAT     H224258   2.070   6.032   7.568
 8006WAT      O24259   1.543   6.154   4.539
 8006WAT     H124260   1.570   6.059   4.553
 8006WAT     H224261   1.507   6.192   4.624
 8007WAT      O24262   0.373   9.461   1.445
 8007WAT     H124263   0.448   9.398   1.427
 8007WAT     H224264   0.372   9.533   1.376
 8008WAT      O24265   9.675   8.050   5.877
 8008WAT     H124266   9.613   8.127   5.862
 8008WAT     H224267   9.659   7.981   5.806
 8009WAT      O24268   8.697   4.222   1.493
 8009WAT     H124269   8.672   4.294   1.427
 8009WAT     H224270   8.794   4.230   1.514
 8010WAT      O24271   0.669   2.497   2.801
 8010WAT     H124272   0.723   2.577   2.829
 8010WAT     H224273   0.643   2.505   2.705
 8011WAT      O24274   5.335   7.985   4.123
 8011WAT     H124275   5.342   7.911   4.057
 8011WAT     H224276   5.403   7.972   4.195
 8012WAT      O24277   0.192   0.545   5.385
 8012WAT     H124278   0.229   0.511   5.471
 8012WAT     H224279   0.241   0.628   5.359
 8013WAT      O24280   0.155   0.925   9.150
 8013WAT     H124281   0.101   0.899   9.070
 8013WAT     H224282   0.197   1.015   9.133
 8014WAT      O24283   1.630   4.604   3.478
 8014WAT     H124284   1.695   4.652   3.538
 8014WAT     H224285   1.651   4.506   3.477
 8015WAT      O24286   1.748   1.952   2.453
 8015WAT     H124287   1.807   1.882   2.493
 8015WAT     H224288   1.663   1.958   2.505
 8016WAT      O24289   2.169   7.531   4.039
 8016WAT     H124290   2.159   7.626   4.007
 8016WAT     H224291   2.221   7.479   3.972
 8017WAT      O24292   8.689   8.976   5.057
 8017WAT     H124293   8.756   8.916   5.101
 8017WAT     H224294   8.597   8.940   5.071
 8018WAT      O24295   1.513   0.951   3.341
 8018WAT     H124296   1.495   0.937   3.243
 8018WAT     H224297   1.483   1.042   3.368
 8019WAT      O24298   1.419   8.261   6.282
 8019WAT     H124299   1.480   8.181   6.288
 8019WAT     H224300   1.362   8.252   6.201
 8020WAT      O24301   1.800   6.240   4.816
 8020WAT     H124302   1.764   6.321   4.862
 8020WAT     H224303   1.742   6.161   4.838
 8021WAT      O24304   6.630   9.240   0.768
 8021WAT     H124305   6.716   9.287   0.750
 8021WAT     H224306   6.641   9.142   0.751
 8022WAT      O24307   4.247   7.210   6.954
 8022WAT     H124308   4.150   7.194   6.933
 8022WAT     H224309   4.256   7.242   7.048
 8023WAT      O24310   4.008   7.461   2.492
 8023WAT     H124311   4.089   7.410   2.464
 8023WAT     H224312   4.035   7.539   2.548
 8024WAT      O24313   6.144   6.489   6.093
 8024WAT     H124314   6.237   6.455   6.077
 8024WAT     H224315   6.148   6.573   6.146
 8025WAT      O24316   7.224   9.652   6.270
 8025WAT     H124317   7.149   9.607   6.318
 8025WAT     H224318   7.209   9.647   6.171
 8026WAT      O24319   5.899   3.560   1.909
 8026WAT     H124320   5.897   3.478   1.966
 8026WAT     H224321   5.849   3.542   1.824
 8027WAT      O24322   1.753   1.013   1.778
 8027WAT     H124323   1.674   0.953   1.765
 8027WAT     H224324   1.739   1.070   1.859
 8028WAT      O24325   7.096   8.768   3.611
 8028WAT     H124326   7.019   8.816   3.652
 8028WAT     H224327   7.093   8.778   3.511
 8029WAT      O24328   5.340   1.327   2.420
 8029WAT     H124329   5.325   1.419   2.456
 8029WAT     H224330   5.436   1.316   2.397
 8030WAT      O24331   5.340   2.008   3.620
 8030WAT     H124332   5.341   2.088   3.559
 8030WAT     H224333   5.382   1.930   3.573
 8031WAT      O24334   6.265   2.556   7.176
 8031WAT     H124335   6.257   2.621   7.253
 8031WAT     H224336   6.177   2.548   7.130
 8032WAT      O24337   0.786   9.080   6.015
 8032WAT     H124338   0.722   9.071   5.938
 8032WAT     H224339   0.734   9.088   6.100
 8033WAT      O24340   4.700   8.297   3.292
 8033WAT     H124341   4.764   8.337   3.226
 8033WAT     H224342   4.751   8.253   3.366
 8034WAT      O24343   3.639   2.234   5.618
 8034WAT     H124344   3.588   2.321   5.617
 8034WAT     H224345   3.697   2.229   5.537
 8035WAT      O24346   4.919   3.009   3.809
 8035WAT     H124347   4.992   3.077   3.803
 8035WAT     H224348   4.938   2.934   3.746
 8036WAT      O24349   0.426   8.067   1.416
 8036WAT     H124350   0.348   8.013   1.447
 8036WAT     H224351   0.402   8.164   1.418
 8037WAT      O24352   3.621   6.839   2.863
 8037WAT     H124353   3.678   6.760   2.885
 8037WAT     H224354   3.532   6.830   2.907
 8038WAT      O24355   5.284   8.747   6.369
 8038WAT     H124356   5.259   8.674   6.433
 8038WAT     H224357   5.383   8.760   6.371
 8039WAT      O24358   0.749   1.263   0.417
 8039WAT     H124359   0.803   1.210   0.351
 8039WAT     H224360   0.756   1.220   0.507
 8040WAT      O24361   5.029   5.794   5.401
 8040WAT     H124362   4.970   5.865   5.440
 8040WAT     H224363   5.109   5.836   5.359
 8041WAT      O24364   0.809   0.241   2.492
 8041WAT     H124365   0.892   0.280   2.533
 8041WAT     H224366   0.743   0.313   2.474
 8042WAT      O24367   9.717   4.049   6.248
 8042WAT     H124368   9.637   4.082   6.198
 8042WAT     H224369   9.757   3.971   6.199
 8043WAT      O24370   1.961   8.979   4.944
 8043WAT     H124371   1.866   8.957   4.967
 8043WAT     H224372   1.965   9.070   4.904
 8044WAT      O24373   7.506   8.502   1.771
 8044WAT     H124374   7.510   8.480   1.673
 8044WAT     H224375   7.596   8.488   1.812
 8045WAT      O24376   1.079   7.920   0.449
 8045WAT     H124377   1.153   7.923   0.517
 8045WAT     H224378   1.058   7.824   0.427
 8046WAT      O24379   9.308   5.189   2.232
 8046WAT     H124380   9.381   5.162   2.169
 8046WAT     H224381   9.255   5.108   2.258
 8047WAT      O24382   9.011   6.860   5.237
 8047WAT     H124383   9.042   6.904   5.153
 8047WAT     H224384   8.970   6.771   5.214
 8048WAT      O24385   4.885   7.673   9.844
 8048WAT     H124386   4.875   7.648   9.941
 8048WAT     H224387   4.816   7.625   9.790
 8049WAT      O24388   9.445   8.769   6.239
 8049WAT     H124389   9.446   8.748   6.336
 8049WAT     H224390   9.428   8.867   6.226
 8050WAT      O24391   1.419   5.940   8.348
 8050WAT     H124392   1.439   6.013   8.413
 8050WAT     H224393   1.381   5.861   8.397
 8051WAT      O24394   5.945   7.701   5.727
 8051WAT     H124395   5.898   7.768   5.671
 8051WAT     H224396   6.041   7.727   5.737
 8052WAT      O24397   8.383   7.030   2.013
 8052WAT     H124398   8.460   7.055   2.071
 8052WAT     H224399   8.308   7.094   2.027
 8053WAT      O24400   7.966   5.083   7.004
 8053WAT     H124401   7.946   5.001   7.058
 8053WAT     H224402   8.061   5.110   7.019
 8054WAT      O24403   3.371   8.159   8.240
 8054WAT     H124404   3.415   8.148   8.329
 8054WAT     H224405   3.310   8.082   8.224
 8055WAT      O24406   4.651   7.456   4.916
 8055WAT     H124407   4.716   7.439   4.990
 8055WAT     H224408   4.558   7.434   4.948
 8056WAT      O24409   0.133   5.629   6.599
 8056WAT     H124410   0.096   5.536   6.605
 8056WAT     H224411   0.171   5.656   6.687
 8057WAT      O24412   6.208   2.148   1.586
 8057WAT     H124413   6.300   2.121   1.556
 8057WAT     H224414   6.205   2.247   1.600
 8058WAT      O24415   9.287   4.989   9.111
 8058WAT     H124416   9.316   5.054   9.181
 8058WAT     H224417   9.250   5.038   9.032
 8059WAT      O24418   2.625   6.147   3.568
 8059WAT     H124419   2.689   6.076   3.538
 8059WAT     H224420   2.558   6.165   3.495
 8060WAT      O24421   8.704   5.834   2.681
 8060WAT     H124422   8.707   5.764   2.753
 8060WAT     H224423   8.701   5.925   2.723
 8061WAT      O24424   6.519   6.049   9.454
 8061WAT     H124425   6.509   5.955   9.486
 8061WAT     H224426   6.525   6.050   9.354
 8062WAT      O24427   6.748   1.807   9.828
 8062WAT     H124428   6.734   1.823   9.926
 8062WAT     H224429   6.846   1.806   9.809
 8063WAT      O24430   6.978   4.229   4.355
 8063WAT     H124431   6.942   4.211   4.447
 8063WAT     H224432   7.058   4.290   4.362
 8064WAT      O24433   8.560   6.058   1.408
 8064WAT     H124434   8.490   6.099   1.350
 8064WAT     H224435   8.535   6.069   1.504
 8065WAT      O24436   3.129   6.842   6.568
 8065WAT     H124437   3.157   6.787   6.488
 8065WAT     H224438   3.058   6.906   6.540
 8066WAT      O24439   7.199   4.291   8.696
 8066WAT     H124440   7.140   4.252   8.767
 8066WAT     H224441   7.156   4.279   8.607
 8067WAT      O24442   1.815   8.020   4.926
 8067WAT     H124443   1.846   7.975   4.842
 8067WAT     H224444   1.767   8.104   4.903
 8068WAT      O24445   4.935   5.403   1.631
 8068WAT     H124446   5.015   5.460   1.651
 8068WAT     H224447   4.898   5.429   1.542
 8069WAT      O24448   5.511   3.123   9.804
 8069WAT     H124449   5.431   3.067   9.784
 8069WAT     H224450   5.491   3.219   9.784
 8070WAT      O24451   3.979   5.899   2.766
 8070WAT     H124452   3.976   5.901   2.666
 8070WAT     H224453   3.920   5.971   2.803
 8071WAT      O24454   4.687   2.291   0.415
 8071WAT     H124455   4.661   2.227   0.487
 8071WAT     H224456   4.671   2.249   0.326
 8072WAT      O24457   8.354   7.328   5.910
 8072WAT     H124458   8.272   7.323   5.853
 8072WAT     H224459   8.331   7.371   5.997
 8073WAT      O24460   6.739   8.579   5.066
 8073WAT     H124461   6.749   8.605   4.970
 8073WAT     H224462   6.727   8.661   5.122
 8074WAT      O24463   8.916   4.719   9.089
 8074WAT     H124464   8.849   4.773   9.039
 8074WAT     H224465   8.935   4.762   9.177
 8075WAT      O24466   2.724   0.631   2.294
 8075WAT     H124467   2.794   0.695   2.263
 8075WAT     H224468   2.751   0.538   2.270
 8076WAT      O24469   5.925   7.159   0.900
 8076WAT     H124470   5.854   7.157   0.830
 8076WAT     H224471   5.966   7.251   0.903
 8077WAT      O24472   9.194   2.474   2.963
 8077WAT     H124473   9.255   2.432   2.895
 8077WAT     H224474   9.241   2.550   3.008
 8078WAT      O24475   7.871   1.338   7.046
 8078WAT     H124476   7.800   1.380   7.103
 8078WAT     H224477   7.941   1.298   7.105
 8079WAT      O24478   6.695   7.942   4.834
 8079WAT     H124479   6.675   7.876   4.907
 8079WAT     H224480   6.619   8.006   4.825
 8080WAT      O24481   0.838   0.340   2.045
 8080WAT     H124482   0.807   0.290   2.126
 8080WAT     H224483   0.786   0.310   1.965
 8081WAT      O24484   7.848   7.356   5.760
 8081WAT     H124485   7.748   7.361   5.757
 8081WAT     H224486   7.885   7.375   5.669
 8082WAT      O24487   9.806   6.126   0.491
 8082WAT     H124488   9.739   6.197   0.514
 8082WAT     H224489   9.797   6.050   0.555
 8083WAT      O24490   0.630   7.730   3.184
 8083WAT     H124491   0.721   7.749   3.221
 8083WAT     H224492   0.575   7.685   3.254
 8084WAT      O24493   2.467   6.576   0.325
 8084WAT     H124494   2.408   6.515   0.273
 8084WAT     H224495   2.420   6.662   0.342
 8085WAT      O24496   2.556   2.949   9.512
 8085WAT     H124497   2.555   3.036   9.562
 8085WAT     H224498   2.471   2.939   9.460
 8086WAT      O24499   1.384   0.761   2.333
 8086WAT     H124500   1.417   0.853   2.353
 8086WAT     H224501   1.397   0.702   2.412
 8087WAT      O24502   0.834   4.370   2.893
 8087WAT     H124503   0.886   4.418   2.964
 8087WAT     H224504   0.842   4.272   2.907
 8088WAT      O24505   0.045   1.215   1.252
 8088WAT     H124506   0.024   1.141   1.188
 8088WAT     H224507   0.140   1.207   1.281
 8089WAT      O24508   2.024   6.411   4.121
 8089WAT     H124509   1.958   6.350   4.164
 8089WAT     H224510   2.047   6.486   4.183
 8090WAT      O24511   8.186   1.020   4.206
 8090WAT     H124512   8.269   1.076   4.211
 8090WAT     H224513   8.175   0.968   4.291
 8091WAT      O24514   4.885   5.035   2.879
 8091WAT     H124515   4.981   5.065   2.877
 8091WAT     H224516   4.840   5.061   2.794
 8092WAT      O24517   3.133   3.230   5.873
 8092WAT     H124518   3.150   3.157   5.940
 8092WAT     H224519   3.040   3.266   5.887
 8093WAT      O24520   1.308   1.087   8.042
 8093WAT     H124521   1.248   1.148   8.093
 8093WAT     H224522   1.393   1.135   8.020
 8094WAT      O24523   9.329   3.353   3.966
 8094WAT     H124524   9.262   3.281   3.980
 8094WAT     H224525   9.389   3.359   4.046
 8095WAT      O24526   2.293   3.449   3.117
 8095WAT     H124527   2.210   3.433   3.169
 8095WAT     H224528   2.372   3.448   3.179
 8096WAT      O24529   2.334   6.058   3.635
 8096WAT     H124530   2.310   6.005   3.716
 8096WAT     H224531   2.424   6.030   3.602
 8097WAT      O24532   9.691   4.641   3.358
 8097WAT     H124533   9.712   4.670   3.264
 8097WAT     H224534   9.701   4.719   3.420
 8098WAT      O24535   8.174   6.618   8.532
 8098WAT     H124536   8.124   6.676   8.469
 8098WAT     H224537   8.217   6.674   8.603
 8099WAT      O24538   1.183   6.348   2.324
 8099WAT     H124539   1.091   6.313   2.343
 8099WAT     H224540   1.196   6.353   2.224
 8100WAT      O24541   9.612   4.146   7.226
 8100WAT     H124542   9.585   4.235   7.190
 8100WAT     H224543   9.542   4.078   7.202
 8101WAT      O24544   0.923   0.949   4.788
 8101WAT     H124545   0.907   0.852   4.770
 8101WAT     H224546   1.016   0.962   4.823
 8102WAT      O24547   0.715   0.925   5.569
 8102WAT     H124548   0.680   1.009   5.609
 8102WAT     H224549   0.655   0.897   5.494
 8103WAT      O24550   3.313   9.679   2.770
 8103WAT     H124551   3.318   9.741   2.849
 8103WAT     H224552   3.257   9.600   2.794
 8104WAT      O24553   2.341   9.204   8.658
 8104WAT     H124554   2.403   9.146   8.607
 8104WAT     H224555   2.248   9.166   8.653
 8105WAT      O24556   6.577   6.317   0.934
 8105WAT     H124557   6.507   6.389   0.928
 8105WAT     H224558   6.599   6.300   1.030
 8106WAT      O24559   0.545   2.363   3.740
 8106WAT     H124560   0.567   2.413   3.824
 8106WAT     H224561   0.607   2.392   3.667
 8107WAT      O24562   0.433   1.874   3.578
 8107WAT     H124563   0.427   1.887   3.479
 8107WAT     H224564   0.348   1.906   3.621
 8108WAT      O24565   5.830   8.203   7.186
 8108WAT     H124566   5.873   8.187   7.275
 8108WAT     H224567   5.835   8.119   7.131
 8109WAT      O24568   8.193   6.563   2.043
 8109WAT     H124569   8.104   6.593   2.078
 8109WAT     H224570   8.257   6.639   2.044
 8110WAT      O24571   2.662   5.690   4.568
 8110WAT     H124572   2.571   5.659   4.594
 8110WAT     H224573   2.728   5.662   4.637
 8111WAT      O24574   6.895   4.297   8.833
 8111WAT     H124575   6.810   4.286   8.883
 8111WAT     H224576   6.916   4.395   8.825
 8112WAT      O24577   3.262   4.205   3.379
 8112WAT     H124578   3.242   4.164   3.467
 8112WAT     H224579   3.358   4.186   3.355
 8113WAT      O24580   1.598   8.842   1.567
 8113WAT     H124581   1.697   8.826   1.574
 8113WAT     H224582   1.553   8.808   1.649
 8114WAT      O24583   4.618   0.264   8.686
 8114WAT     H124584   4.580   0.172   8.697
 8114WAT     H224585   4.619   0.311   8.774
 8115WAT      O24586   1.353   2.949   9.583
 8115WAT     H124587   1.416   3.026   9.594
 8115WAT     H224588   1.391   2.868   9.628
 8116WAT      O24589   1.505   3.736   5.869
 8116WAT     H124590   1.441   3.769   5.938
 8116WAT     H224591   1.519   3.638   5.882
 8117WAT      O24592   5.059   2.778   7.233
 8117WAT     H124593   4.979   2.837   7.218
 8117WAT     H224594   5.034   2.704   7.295
 8118WAT      O24595   6.161   4.841   2.203
 8118WAT     H124596   6.247   4.792   2.212
 8118WAT     H224597   6.166   4.927   2.252
 8119WAT      O24598   0.662   4.872   4.871
 8119WAT     H124599   0.661   4.772   4.861
 8119WAT     H224600   0.748   4.901   4.914
 8120WAT      O24601   5.252   1.110   8.706
 8120WAT     H124602   5.221   1.199   8.742
 8120WAT     H224603   5.267   1.047   8.783
 8121WAT      O24604   9.309   2.341   4.037
 8121WAT     H124605   9.284   2.422   4.089
 8121WAT     H224606   9.256   2.338   3.952
 8122WAT      O24607   1.650   9.213   2.204
 8122WAT     H124608   1.665   9.183   2.299
 8122WAT     H224609   1.552   9.208   2.183
 8123WAT      O24610   4.003   2.220   8.342
 8123WAT     H124611   4.094   2.236   8.303
 8123WAT     H224612   3.976   2.299   8.397
 8124WAT      O24613   1.245   7.515   1.066
 8124WAT     H124614   1.293   7.591   1.023
 8124WAT     H224615   1.312   7.447   1.096
 8125WAT      O24616   3.007   1.527   5.794
 8125WAT     H124617   2.988   1.609   5.848
 8125WAT     H224618   3.003   1.549   5.696
 8126WAT      O24619   0.488   0.670   6.114
 8126WAT     H124620   0.508   0.768   6.119
 8126WAT     H224621   0.411   0.649   6.174
 8127WAT      O24622   9.047   3.582   7.985
 8127WAT     H124623   9.046   3.658   7.920
 8127WAT     H224624   8.983   3.601   8.059
 8128WAT      O24625   9.612   1.576   0.612
 8128WAT     H124626   9.650   1.529   0.692
 8128WAT     H224627   9.680   1.579   0.539
 8129WAT      O24628   3.841   7.677   8.396
 8129WAT     H124629   3.816   7.602   8.457
 8129WAT     H224630   3.777   7.753   8.408
 8130WAT      O24631   8.616   9.677   4.771
 8130WAT     H124632   8.585   9.732   4.693
 8130WAT     H224633   8.654   9.591   4.738
 8131WAT      O24634   3.525   7.157   1.641
 8131WAT     H124635   3.597   7.088   1.637
 8131WAT     H224636   3.436   7.111   1.645
 8132WAT      O24637   0.409   7.743   2.604
 8132WAT     H124638   0.439   7.838   2.592
 8132WAT     H224639   0.487   7.687   2.633
 8133WAT      O24640   8.859   0.366   7.034
 8133WAT     H124641   8.855   0.434   7.108
 8133WAT     H224642   8.952   0.330   7.026
 8134WAT      O24643   6.498   1.577   0.525
 8134WAT     H124644   6.526   1.618   0.439
 8134WAT     H224645   6.399   1.565   0.527
 8135WAT      O24646   5.962   1.093   1.473
 8135WAT     H124647   5.884   1.045   1.512
 8135WAT     H224648   5.932   1.153   1.399
 8136WAT      O24649   6.034   6.135   3.510
 8136WAT     H124650   6.124   6.104   3.480
 8136WAT     H224651   6.044   6.193   3.591
 8137WAT      O24652   1.146   6.441   9.646
 8137WAT     H124653   1.195   6.528   9.635
 8137WAT     H224654   1.187   6.389   9.721
 8138WAT      O24655   8.299   0.062   5.501
 8138WAT     H124656   8.225   0.032   5.442
 8138WAT     H224657   8.359  -0.016   5.522
 8139WAT      O24658   5.713   9.510   3.557
 8139WAT     H124659   5.706   9.410   3.569
 8139WAT     H224660   5.779   9.546   3.622
 8140WAT      O24661   2.855   5.184   4.539
 8140WAT     H124662   2.933   5.169   4.478
 8140WAT     H224663   2.775   5.135   4.503
 8141WAT      O24664   0.905   4.963   1.714
 8141WAT     H124665   0.877   5.018   1.636
 8141WAT     H224666   0.993   4.920   1.694
 8142WAT      O24667   3.313   2.134   0.633
 8142WAT     H124668   3.372   2.089   0.566
 8142WAT     H224669   3.340   2.105   0.725
 8143WAT      O24670   7.778   2.143   2.826
 8143WAT     H124671   7.798   2.212   2.895
 8143WAT     H224672   7.702   2.173   2.769
 8144WAT      O24673   6.963   8.242   1.378
 8144WAT     H124674   7.032   8.171   1.362
 8144WAT     H224675   7.007   8.321   1.421
 8145WAT      O24676   0.627   7.993   9.604
 8145WAT     H124677   0.602   8.076   9.652
 8145WAT     H224678   0.667   7.928   9.668
 8146WAT      O24679   2.390   8.840   9.375
 8146WAT     H124680   2.363   8.815   9.468
 8146WAT     H224681   2.311   8.830   9.314
 8147WAT      O24682   3.993   2.006   2.886
 8147WAT     H124683   4.080   2.030   2.842
 8147WAT     H224684   4.009   1.935   2.954
 8148WAT      O24685   7.559   5.377   7.753
 8148WAT     H124686   7.655   5.347   7.749
 8148WAT     H224687   7.548   5.457   7.693
 8149WAT      O24688   4.724   2.268   5.034
 8149WAT     H124689   4.812   2.287   4.990
 8149WAT     H224690   4.666   2.215   4.972
 8150WAT      O24691   0.667   4.035   1.689
 8150WAT     H124692   0.669   3.939   1.660
 8150WAT     H224693   0.752   4.057   1.737
 8151WAT      O24694   0.721   8.176   1.336
 8151WAT     H124695   0.632   8.131   1.337
 8151WAT     H224696   0.740   8.212   1.245
 8152WAT      O24697   3.102   7.893   8.816
 8152WAT     H124698   3.151   7.855   8.895
 8152WAT     H224699   3.067   7.818   8.760
 8153WAT      O24700   8.135   9.127   6.220
 8153WAT     H124701   8.215   9.118   6.161
 8153WAT     H224702   8.141   9.212   6.272
 8154WAT      O24703   1.555   9.762   8.709
 8154WAT     H124704   1.565   9.826   8.785
 8154WAT     H224705   1.464   9.770   8.670
 8155WAT      O24706   5.086   9.256   3.080
 8155WAT     H124707   5.035   9.254   2.994
 8155WAT     H224708   5.152   9.331   3.079
 8156WAT      O24709   7.051   7.894   8.252
 8156WAT     H124710   7.073   7.969   8.190
 8156WAT     H224711   6.954   7.897   8.276
 8157WAT      O24712   0.379   5.482   8.562
 8157WAT     H124713   0.308   5.414   8.581
 8157WAT     H224714   0.450   5.476   8.633
 8158WAT      O24715   3.382   1.818   0.985
 8158WAT     H124716   3.372   1.898   0.925
 8158WAT     H224717   3.294   1.771   0.993
 8159WAT      O24718   5.026   9.030   1.118
 8159WAT     H124719   5.006   8.935   1.142
 8159WAT     H224720   5.097   9.066   1.179
 8160WAT      O24721   7.926   1.334   6.788
 8160WAT     H124722   7.908   1.316   6.885
 8160WAT     H224723   8.023   1.352   6.775
 8161WAT      O24724   4.641   3.170   4.506
 8161WAT     H124725   4.559   3.178   4.563
 8161WAT     H224726   4.684   3.259   4.496
 8162WAT      O24727   7.166   1.500   8.291
 8162WAT     H124728   7.252   1.540   8.325
 8162WAT     H224729   7.167   1.401   8.307
 8163WAT      O24730   0.315   7.224   7.015
 8163WAT     H124731   0.317   7.294   7.086
 8163WAT     H224732   0.311   7.267   6.925
 8164WAT      O24733   0.114   5.631   3.286
 8164WAT     H124734   0.130   5.563   3.358
 8164WAT     H224735   0.162   5.716   3.308
 8165WAT      O24736   8.220   9.205   4.796
 8165WAT     H124737   8.200   9.109   4.815
 8165WAT     H224738   8.318   9.216   4.781
 8166WAT      O24739   0.799   6.346   7.645
 8166WAT     H124740   0.797   6.260   7.594
 8166WAT     H224741   0.848   6.415   7.592
 8167WAT      O24742   9.245   9.777   3.566
 8167WAT     H124743   9.194   9.727   3.637
 8167WAT     H224744   9.184   9.798   3.490
 8168WAT      O24745   0.696   1.924   7.464
 8168WAT     H124746   0.742   1.936   7.551
 8168WAT     H224747   0.597   1.930   7.477
 8169WAT      O24748   5.848   8.888   4.706
 8169WAT     H124749   5.818   8.893   4.611
 8169WAT     H224750   5.822   8.971   4.755
 8170WAT      O24751   6.612   4.675   9.242
 8170WAT     H124752   6.588   4.703   9.149
 8170WAT     H224753   6.609   4.575   9.250
 8171WAT      O24754   6.456   3.368   7.757
 8171WAT     H124755   6.434   3.271   7.764
 8171WAT     H224756   6.510   3.396   7.836
 8172WAT      O24757   7.870   9.606   6.214
 8172WAT     H124758   7.885   9.540   6.288
 8172WAT     H224759   7.776   9.640   6.218
 8173WAT      O24760   6.586   7.801   7.810
 8173WAT     H124761   6.595   7.884   7.865
 8173WAT     H224762   6.559   7.825   7.717
 8174WAT      O24763   5.967   1.864   1.759
 8174WAT     H124764   5.976   1.920   1.677
 8174WAT     H224765   6.025   1.900   1.832
 8175WAT      O24766   0.512   7.509   2.029
 8175WAT     H124767   0.500   7.430   2.089
 8175WAT     H224768   0.563   7.580   2.079
 8176WAT      O24769   4.418   4.335   8.861
 8176WAT     H124770   4.508   4.342   8.904
 8176WAT     H224771   4.370   4.422   8.869
 8177WAT      O24772   0.012   0.851   7.694
 8177WAT     H124773  -0.007   0.881   7.787
 8177WAT     H224774   0.077   0.775   7.695
 8178WAT      O24775   9.687   0.149   0.171
 8178WAT     H124776   9.624   0.089   0.121
 8178WAT     H224777   9.654   0.162   0.264
 8179WAT      O24778   9.659   2.564   8.782
 8179WAT     H124779   9.717   2.553   8.702
 8179WAT     H224780   9.581   2.503   8.776
 8180WAT      O24781   4.115   7.489   5.263
 8180WAT     H124782   4.125   7.557   5.191
 8180WAT     H224783   4.018   7.468   5.276
 8181WAT      O24784   8.619   5.069   3.754
 8181WAT     H124785   8.527   5.081   3.718
 8181WAT     H224786   8.660   5.158   3.774
 8182WAT      O24787   0.807   7.376   4.415
 8182WAT     H124788   0.877   7.415   4.476
 8182WAT     H224789   0.846   7.361   4.324
 8183WAT      O24790   0.326   3.478   3.675
 8183WAT     H124791   0.410   3.515   3.716
 8183WAT     H224792   0.253   3.546   3.680
 8184WAT      O24793   3.313   0.034   9.217
 8184WAT     H124794   3.382   0.081   9.162
 8184WAT     H224795   3.293  -0.055   9.177
 8185WAT      O24796   2.528   4.937   5.406
 8185WAT     H124797   2.438   4.897   5.392
 8185WAT     H224798   2.599   4.868   5.391
 8186WAT      O24799   2.225   8.299   0.238
 8186WAT     H124800   2.238   8.208   0.278
 8186WAT     H224801   2.231   8.368   0.310
 8187WAT      O24802   4.149   0.223   3.348
 8187WAT     H124803   4.205   0.245   3.268
 8187WAT     H224804   4.186   0.270   3.428
 8188WAT      O24805   1.699   8.504   8.487
 8188WAT     H124806   1.716   8.586   8.433
 8188WAT     H224807   1.753   8.507   8.571
 8189WAT      O24808   0.825   8.762   0.552
 8189WAT     H124809   0.741   8.767   0.499
 8189WAT     H224810   0.809   8.712   0.636
 8190WAT      O24811   2.254   5.847   2.797
 8190WAT     H124812   2.238   5.750   2.813
 8190WAT     H224813   2.228   5.899   2.879
 8191WAT      O24814   1.275   2.665   6.519
 8191WAT     H124815   1.340   2.607   6.470
 8191WAT     H224816   1.318   2.699   6.603
 8192WAT      O24817   6.918   9.302   8.296
 8192WAT     H124818   7.000   9.296   8.240
 8192WAT     H224819   6.854   9.229   8.271
 8193WAT      O24820   5.927   7.929   4.102
 8193WAT     H124821   5.939   7.862   4.028
 8193WAT     H224822   5.836   7.969   4.097
 8194WAT      O24823   8.287   7.829   1.292
 8194WAT     H124824   8.191   7.830   1.320
 8194WAT     H224825   8.298   7.770   1.211
 8195WAT      O24826   9.562   4.164   8.218
 8195WAT     H124827   9.550   4.257   8.183
 8195WAT     H224828   9.583   4.102   8.143
 8196WAT      O24829   3.716   4.928   2.264
 8196WAT     H124830   3.668   4.847   2.230
 8196WAT     H224831   3.786   4.955   2.199
 8197WAT      O24832   6.523   8.663   1.481
 8197WAT     H124833   6.464   8.743   1.471
 8197WAT     H224834   6.598   8.670   1.415
 8198WAT      O24835   0.202   6.019   2.578
 8198WAT     H124836   0.256   6.078   2.638
 8198WAT     H224837   0.198   6.060   2.487
 8199WAT      O24838   8.032   3.900   5.915
 8199WAT     H124839   8.039   3.801   5.901
 8199WAT     H224840   7.976   3.940   5.843
 8200WAT      O24841   2.665   1.097   3.628
 8200WAT     H124842   2.660   1.167   3.557
 8200WAT     H224843   2.671   1.007   3.585
 8201WAT      O24844   1.356   2.194   4.698
 8201WAT     H124845   1.437   2.215   4.752
 8201WAT     H224846   1.312   2.279   4.669
 8202WAT      O24847   1.103   0.385   8.548
 8202WAT     H124848   1.181   0.324   8.541
 8202WAT     H224849   1.046   0.357   8.625
 8203WAT      O24850   1.782   1.113   9.525
 8203WAT     H124851   1.814   1.205   9.547
 8203WAT     H224852   1.859   1.049   9.525
 8204WAT      O24853   2.356   4.599   9.473
 8204WAT     H124854   2.295   4.520   9.471
 8204WAT     H224855   2.433   4.580   9.535
 8205WAT      O24856   6.359   2.655   6.941
 8205WAT     H124857   6.369   2.600   7.024
 8205WAT     H224858   6.347   2.596   6.862
 8206WAT      O24859   9.843   0.329   3.977
 8206WAT     H124860   9.796   0.302   3.893
 8206WAT     H224861   9.914   0.262   3.998
 8207WAT      O24862   1.808   1.812   7.942
 8207WAT     H124863   1.871   1.876   7.986
 8207WAT     H224864   1.788   1.842   7.850
 8208WAT      O24865   2.078   8.963   9.772
 8208WAT     H124866   2.040   8.899   9.706
 8208WAT     H224867   2.102   8.914   9.856
 8209WAT      O24868   7.270   2.688   4.487
 8209WAT     H124869   7.295   2.597   4.520
 8209WAT     H224870   7.257   2.685   4.388
 8210WAT      O24871   7.945   5.529   3.444
 8210WAT     H124872   7.872   5.483   3.393
 8210WAT     H224873   8.033   5.506   3.404
 8211WAT      O24874   2.661   2.206   1.404
 8211WAT     H124875   2.647   2.241   1.311
 8211WAT     H224876   2.676   2.283   1.466
 8212WAT      O24877   2.280   7.131   8.877
 8212WAT     H124878   2.361   7.119   8.819
 8212WAT     H224879   2.309   7.155   8.969
 8213WAT      O24880   5.977   2.594   9.174
 8213WAT     H124881   6.033   2.595   9.091
 8213WAT     H224882   5.973   2.686   9.213
 8214WAT      O24883   7.311   1.132   5.429
 8214WAT     H124884   7.278   1.057   5.372
 8214WAT     H224885   7.403   1.111   5.462
 8215WAT      O24886   0.497   6.273   1.136
 8215WAT     H124887   0.594   6.298   1.131
 8215WAT     H224888   0.460   6.301   1.225
 8216WAT      O24889   9.099   5.131   1.675
 8216WAT     H124890   9.090   5.087   1.586
 8216WAT     H224891   9.142   5.068   1.740
 8217WAT      O24892   6.517   5.485   1.262
 8217WAT     H124893   6.484   5.580   1.271
 8217WAT     H224894   6.504   5.455   1.168
 8218WAT      O24895   4.664   3.196   8.948
 8218WAT     H124896   4.690   3.178   9.043
 8218WAT     H224897   4.570   3.231   8.946
 8219WAT      O24898   9.546   7.779   0.270
 8219WAT     H124899   9.542   7.845   0.194
 8219WAT     H224900   9.476   7.709   0.257
 8220WAT      O24901   0.986   9.227   5.868
 8220WAT     H124902   0.968   9.217   5.770
 8220WAT     H224903   0.905   9.198   5.920
 8221WAT      O24904   2.502   4.340   9.863
 8221WAT     H124905   2.513   4.398   9.782
 8221WAT     H224906   2.448   4.259   9.838
 8222WAT      O24907   0.258   2.635   2.586
 8222WAT     H124908   0.302   2.690   2.658
 8222WAT     H224909   0.232   2.695   2.510
 8223WAT      O24910   1.816   0.461   7.931
 8223WAT     H124911   1.838   0.414   7.845
 8223WAT     H224912   1.729   0.509   7.921
 8224WAT      O24913   8.981   2.661   5.034
 8224WAT     H124914   9.071   2.689   5.069
 8224WAT     H224915   8.984   2.658   4.934
 8225WAT      O24916   6.556   0.270   7.953
 8225WAT     H124917   6.460   0.244   7.964
 8225WAT     H224918   6.612   0.221   8.021
 8226WAT      O24919   0.508   8.021   2.651
 8226WAT     H124920   0.577   8.056   2.587
 8226WAT     H224921   0.553   7.983   2.731
 8227WAT      O24922   3.477   3.439   3.764
 8227WAT     H124923   3.403   3.498   3.730
 8227WAT     H224924   3.450   3.343   3.753
 8228WAT      O24925   6.160   2.355   7.515
 8228WAT     H124926   6.251   2.332   7.481
 8228WAT     H224927   6.107   2.398   7.442
 8229WAT      O24928   6.319   1.599   5.955
 8229WAT     H124929   6.268   1.562   6.032
 8229WAT     H224930   6.406   1.636   5.987
 8230WAT      O24931   7.002   5.989   2.465
 8230WAT     H124932   6.998   5.980   2.564
 8230WAT     H224933   7.077   5.933   2.429
 8231WAT      O24934   9.514   9.511   2.392
 8231WAT     H124935   9.466   9.481   2.475
 8231WAT     H224936   9.499   9.445   2.319
 8232WAT      O24937   2.252   1.460   5.510
 8232WAT     H124938   2.176   1.423   5.456
 8232WAT     H224939   2.227   1.551   5.543
 8233WAT      O24940   4.845   4.943   5.440
 8233WAT     H124941   4.925   4.887   5.418
 8233WAT     H224942   4.873   5.020   5.498
 8234WAT      O24943   6.214   9.060   6.076
 8234WAT     H124944   6.228   9.135   6.011
 8234WAT     H224945   6.255   9.084   6.164
 8235WAT      O24946   1.633   6.977   2.962
 8235WAT     H124947   1.604   7.054   2.905
 8235WAT     H224948   1.695   6.918   2.909
 8236WAT      O24949   1.109   6.772   6.160
 8236WAT     H124950   1.040   6.788   6.090
 8236WAT     H224951   1.157   6.686   6.141
 8237WAT      O24952   0.931   1.630   0.694
 8237WAT     H124953   1.010   1.604   0.750
 8237WAT     H224954   0.960   1.695   0.624
 8238WAT      O24955   2.096   3.906   2.126
 8238WAT     H124956   2.180   3.899   2.179
 8238WAT     H224957   2.106   3.977   2.057
 8239WAT      O24958   5.019   7.547   4.845
 8239WAT     H124959   5.040   7.643   4.829
 8239WAT     H224960   4.964   7.537   4.928
 8240WAT      O24961   3.672   7.525   7.382
 8240WAT     H124962   3.659   7.445   7.441
 8240WAT     H224963   3.677   7.496   7.286
 8241WAT      O24964   7.325   8.671   5.257
 8241WAT     H124965   7.406   8.676   5.199
 8241WAT     H224966   7.353   8.661   5.352
 8242WAT      O24967   1.884   1.578   5.642
 8242WAT     H124968   1.869   1.484   5.613
 8242WAT     H224969   1.971   1.611   5.605
 8243WAT      O24970   2.655   5.349   2.163
 8243WAT     H124971   2.749   5.381   2.150
 8243WAT     H224972   2.631   5.357   2.260
 8244WAT      O24973   8.926   9.041   7.406
 8244WAT     H124974   8.843   9.066   7.356
 8244WAT     H224975   8.956   9.118   7.462
 8245WAT      O24976   9.315   7.312   7.097
 8245WAT     H124977   9.380   7.239   7.117
 8245WAT     H224978   9.361   7.401   7.106
 8246WAT      O24979   5.220   6.847   4.351
 8246WAT     H124980   5.173   6.760   4.331
 8246WAT     H224981   5.296   6.831   4.413
 8247WAT      O24982   5.538   6.840   4.767
 8247WAT     H124983   5.570   6.935   4.766
 8247WAT     H224984   5.616   6.778   4.773
 8248WAT      O24985   3.338   6.642   3.936
 8248WAT     H124986   3.398   6.640   3.856
 8248WAT     H224987   3.394   6.642   4.019
 8249WAT      O24988   6.491   7.347   1.995
 8249WAT     H124989   6.420   7.282   2.024
 8249WAT     H224990   6.457   7.400   1.917
 8250WAT      O24991   4.019   5.350   4.998
 8250WAT     H124992   4.057   5.338   5.090
 8250WAT     H224993   4.065   5.287   4.935
 8251WAT      O24994   9.741   6.056   7.136
 8251WAT     H124995   9.669   5.995   7.170
 8251WAT     H224996   9.736   6.060   7.036
 8252WAT      O24997   3.988   8.688   4.762
 8252WAT     H124998   4.030   8.772   4.727
 8252WAT     H224999   3.922   8.712   4.834
 8253WAT      O25000   1.530   1.374   9.015
 8253WAT     H125001   1.622   1.391   8.979
 8253WAT     H225002   1.534   1.302   9.085
 8254WAT      O25003   7.548   5.200   1.901
 8254WAT     H125004   7.494   5.276   1.867
 8254WAT     H225005   7.540   5.122   1.838
 8255WAT      O25006   0.255   5.459   7.095
 8255WAT     H125007   0.347   5.487   7.069
 8255WAT     H225008   0.229   5.505   7.180
 8256WAT      O25009   1.768   3.223   9.286
 8256WAT     H125010   1.774   3.260   9.193
 8256WAT     H225011   1.859   3.222   9.328
 8257WAT      O25012   7.257   7.459   1.611
 8257WAT     H125013   7.296   7.376   1.650
 8257WAT     H225014   7.295   7.474   1.519
 8258WAT      O25015   6.540   8.546   5.940
 8258WAT     H125016   6.484   8.470   5.973
 8258WAT     H225017   6.533   8.622   6.004
 8259WAT      O25018   5.987   6.448   8.281
 8259WAT     H125019   5.892   6.427   8.301
 8259WAT     H225020   6.019   6.520   8.342
 8260WAT      O25021   0.193   7.446   2.560
 8260WAT     H125022   0.127   7.432   2.485
 8260WAT     H225023   0.234   7.536   2.552
 8261WAT      O25024   0.076   1.022   8.760
 8261WAT     H125025   0.152   1.048   8.701
 8261WAT     H225026   0.052   1.099   8.819
 8262WAT      O25027   8.902   5.438   0.286
 8262WAT     H125028   8.917   5.512   0.220
 8262WAT     H225029   8.829   5.379   0.253
 8263WAT      O25030   6.661   2.784   3.783
 8263WAT     H125031   6.592   2.741   3.842
 8263WAT     H225032   6.671   2.880   3.808
 8264WAT      O25033   4.153   9.434   4.831
 8264WAT     H125034   4.060   9.459   4.806
 8264WAT     H225035   4.203   9.516   4.859
 8265WAT      O25036   7.150   0.600   9.689
 8265WAT     H125037   7.063   0.550   9.690
 8265WAT     H225038   7.177   0.622   9.783
 8266WAT      O25039   5.207   6.756   5.595
 8266WAT     H125040   5.227   6.752   5.497
 8266WAT     H225041   5.128   6.699   5.616
 8267WAT      O25042   1.042   0.399   3.727
 8267WAT     H125043   0.987   0.362   3.652
 8267WAT     H225044   0.983   0.429   3.801
 8268WAT      O25045   0.843   8.823   7.301
 8268WAT     H125046   0.845   8.783   7.209
 8268WAT     H225047   0.936   8.826   7.337
 8269WAT      O25048   4.398   7.354   5.406
 8269WAT     H125049   4.485   7.398   5.385
 8269WAT     H225050   4.341   7.354   5.324
 8270WAT      O25051   1.589   6.307   4.317
 8270WAT     H125052   1.543   6.393   4.292
 8270WAT     H225053   1.543   6.266   4.396
 8271WAT      O25054   9.346   8.650   6.023
 8271WAT     H125055   9.387   8.682   6.108
 8271WAT     H225056   9.301   8.727   5.978
 8272WAT      O25057   8.104   4.897   7.573
 8272WAT     H125058   8.035   4.963   7.544
 8272WAT     H225059   8.060   4.821   7.621
 8273WAT      O25060   5.237   8.991   7.142
 8273WAT     H125061   5.282   9.073   7.104
 8273WAT     H225062   5.182   8.948   7.071
 8274WAT      O25063   0.214   6.252   9.693
 8274WAT     H125064   0.313   6.261   9.683
 8274WAT     H225065   0.182   6.176   9.636
 8275WAT      O25066   4.290   9.357   7.438
 8275WAT     H125067   4.283   9.336   7.341
 8275WAT     H225068   4.218   9.421   7.463
 8276WAT      O25069   6.371   2.209   2.292
 8276WAT     H125070   6.336   2.263   2.215
 8276WAT     H225071   6.345   2.252   2.378
 8277WAT      O25072   4.336   7.634   6.256
 8277WAT     H125073   4.252   7.654   6.206
 8277WAT     H225074   4.313   7.580   6.337
 8278WAT      O25075   8.967   2.440   0.097
 8278WAT     H125076   9.060   2.406   0.109
 8278WAT     H225077   8.926   2.461   0.186
 8279WAT      O25078   5.014   8.186   6.718
 8279WAT     H125079   4.997   8.126   6.640
 8279WAT     H225080   4.952   8.265   6.714
 8280WAT      O25081   1.084   3.532   3.926
 8280WAT     H125082   1.125   3.467   3.990
 8280WAT     H225083   1.088   3.494   3.834
 8281WAT      O25084   5.911   7.369   0.633
 8281WAT     H125085   5.881   7.392   0.541
 8281WAT     H225086   6.007   7.396   0.645
 8282WAT      O25087   6.484   6.646   2.171
 8282WAT     H125088   6.481   6.745   2.164
 8282WAT     H225089   6.579   6.615   2.160
 8283WAT      O25090   2.380   6.836   7.050
 8283WAT     H125091   2.282   6.846   7.065
 8283WAT     H225092   2.422   6.789   7.128
 8284WAT      O25093   2.220   7.830   9.603
 8284WAT     H125094   2.294   7.865   9.545
 8284WAT     H225095   2.159   7.772   9.549
 8285WAT      O25096   8.658   2.003   1.790
 8285WAT     H125097   8.628   2.021   1.884
 8285WAT     H225098   8.751   1.967   1.791
 8286WAT      O25099   2.315   8.115   1.288
 8286WAT     H125100   2.400   8.067   1.269
 8286WAT     H225101   2.319   8.207   1.247
 8287WAT      O25102   0.394   0.024   5.000
 8287WAT     H125103   0.474   0.028   4.939
 8287WAT     H225104   0.330   0.096   4.975
 8288WAT      O25105   8.805   2.659   1.973
 8288WAT     H125106   8.733   2.641   2.039
 8288WAT     H225107   8.764   2.687   1.886
 8289WAT      O25108   4.514   1.361   8.857
 8289WAT     H125109   4.449   1.303   8.907
 8289WAT     H225110   4.487   1.366   8.761
 8290WAT      O25111   4.956   2.415   7.714
 8290WAT     H125112   4.922   2.391   7.623
 8290WAT     H225113   4.932   2.510   7.734
 8291WAT      O25114   3.711   8.208   5.160
 8291WAT     H125115   3.620   8.167   5.171
 8291WAT     H225116   3.769   8.181   5.237
 8292WAT      O25117   5.924   1.773   2.476
 8292WAT     H125118   5.935   1.766   2.575
 8292WAT     H225119   5.847   1.833   2.455
 8293WAT      O25120   3.962   3.364   0.093
 8293WAT     H125121   3.875   3.323   0.066
 8293WAT     H225122   4.028   3.355   0.018
 8294WAT      O25123   6.359   5.907   4.976
 8294WAT     H125124   6.270   5.877   4.942
 8294WAT     H225125   6.425   5.907   4.901
 8295WAT      O25126   3.953   6.193   2.992
 8295WAT     H125127   3.950   6.278   3.043
 8295WAT     H225128   3.871   6.139   3.012
 8296WAT      O25129   0.407   8.672   1.822
 8296WAT     H125130   0.433   8.768   1.806
 8296WAT     H225131   0.458   8.613   1.759
 8297WAT      O25132   1.764   3.894   4.028
 8297WAT     H125133   1.778   3.819   3.963
 8297WAT     H225134   1.703   3.962   3.987
 8298WAT      O25135   6.628   0.182   1.886
 8298WAT     H125136   6.540   0.214   1.850
 8298WAT     H225137   6.666   0.252   1.947
 8299WAT      O25138   3.418   4.037   3.849
 8299WAT     H125139   3.497   4.013   3.792
 8299WAT     H225140   3.389   3.958   3.902
 8300WAT      O25141   1.767   4.468   5.754
 8300WAT     H125142   1.836   4.540   5.748
 8300WAT     H225143   1.693   4.487   5.690
 8301WAT      O25144   2.917   1.166   2.510
 8301WAT     H125145   2.927   1.182   2.608
 8301WAT     H225146   2.893   1.070   2.495
 8302WAT      O25147   7.034   7.404   2.884
 8302WAT     H125148   7.119   7.394   2.832
 8302WAT     H225149   7.056   7.423   2.980
 8303WAT      O25150   1.865   1.654   8.926
 8303WAT     H125151   1.828   1.562   8.916
 8303WAT     H225152   1.797   1.712   8.972
 8304WAT      O25153   9.864   4.087   7.578
 8304WAT     H125154   9.867   4.131   7.488
 8304WAT     H225155   9.796   4.134   7.636
 8305WAT      O25156   8.306   8.206   5.660
 8305WAT     H125157   8.245   8.285   5.658
 8305WAT     H225158   8.253   8.123   5.648
 8306WAT      O25159   7.822   1.424   8.700
 8306WAT     H125160   7.895   1.355   8.706
 8306WAT     H225161   7.838   1.482   8.620
 8307WAT      O25162   5.095   4.591   2.502
 8307WAT     H125163   5.060   4.616   2.593
 8307WAT     H225164   5.117   4.674   2.451
 8308WAT      O25165   2.371   5.582   6.304
 8308WAT     H125166   2.450   5.525   6.278
 8308WAT     H225167   2.299   5.524   6.343
 8309WAT      O25168   0.855   8.299   0.556
 8309WAT     H125169   0.788   8.226   0.569
 8309WAT     H225170   0.879   8.304   0.459
 8310WAT      O25171   1.494   5.077   7.413
 8310WAT     H125172   1.489   5.005   7.482
 8310WAT     H225173   1.497   5.167   7.458
 8311WAT      O25174   9.738   2.946   8.642
 8311WAT     H125175   9.814   2.921   8.701
 8311WAT     H225176   9.750   2.905   8.552
 8312WAT      O25177   7.068   3.483   1.174
 8312WAT     H125178   7.098   3.565   1.126
 8312WAT     H225179   7.046   3.505   1.269
 8313WAT      O25180   9.599   2.494   0.078
 8313WAT     H125181   9.652   2.493  -0.007
 8313WAT     H225182   9.619   2.578   0.128
 8314WAT      O25183   7.429   5.151   9.132
 8314WAT     H125184   7.373   5.169   9.051
 8314WAT     H225185   7.513   5.103   9.105
 8315WAT      O25186   3.287   0.483   9.701
 8315WAT     H125187   3.302   0.454   9.607
 8315WAT     H225188   3.201   0.445   9.735
 8316WAT      O25189   9.589   1.115   6.641
 8316WAT     H125190   9.660   1.046   6.628
 8316WAT     H225191   9.529   1.118   6.561
 8317WAT      O25192   9.253   5.577   4.590
 8317WAT     H125193   9.291   5.649   4.648
 8317WAT     H225194   9.231   5.614   4.500
 8318WAT      O25195   2.785   1.106   9.356
 8318WAT     H125196   2.873   1.060   9.347
 8318WAT     H225197   2.797   1.191   9.406
 8319WAT      O25198   2.376   6.948   0.032
 8319WAT     H125199   2.388   7.022   0.097
 8319WAT     H225200   2.424   6.866   0.065
 8320WAT      O25201   9.079   0.044   4.466
 8320WAT     H125202   9.091   0.042   4.565
 8320WAT     H225203   9.078   0.139   4.434
 8321WAT      O25204   0.904   7.913   2.909
 8321WAT     H125205   0.953   7.989   2.867
 8321WAT     H225206   0.967   7.858   2.963
 8322WAT      O25207   3.767   1.742   2.914
 8322WAT     H125208   3.831   1.688   2.860
 8322WAT     H225209   3.815   1.785   2.990
 8323WAT      O25210   7.842   0.483   5.407
 8323WAT     H125211   7.926   0.474   5.461
 8323WAT     H225212   7.763   0.489   5.468
 8324WAT      O25213   2.565   9.409   4.211
 8324WAT     H125214   2.555   9.393   4.113
 8324WAT     H225215   2.583   9.322   4.257
 8325WAT      O25216   1.133   7.147   7.045
 8325WAT     H125217   1.226   7.183   7.043
 8325WAT     H225218   1.119   7.086   6.967
 8326WAT      O25219   2.108   7.054   5.215
 8326WAT     H125220   2.031   6.991   5.226
 8326WAT     H225221   2.162   7.055   5.299
 8327WAT      O25222   9.708   2.310   1.727
 8327WAT     H125223   9.741   2.402   1.707
 8327WAT     H225224   9.744   2.280   1.815
 8328WAT      O25225   7.935   7.438   8.242
 8328WAT     H125226   8.012   7.431   8.305
 8328WAT     H225227   7.861   7.489   8.286
 8329WAT      O25228   4.247   3.988   0.002
 8329WAT     H125229   4.297   3.941   0.075
 8329WAT     H225230   4.295   4.071  -0.025
 8330WAT      O25231   4.021   2.610   9.861
 8330WAT     H125232   4.055   2.533   9.807
 8330WAT     H225233   4.043   2.696   9.815
 8331WAT      O25234   2.265   4.980   1.800
 8331WAT     H125235   2.363   4.995   1.783
 8331WAT     H225236   2.254   4.915   1.876
 8332WAT      O25237   0.343   6.736   2.854
 8332WAT     H125238   0.365   6.718   2.949
 8332WAT     H225239   0.321   6.833   2.842
 8333WAT      O25240   4.132   1.264   2.327
 8333WAT     H125241   4.165   1.357   2.310
 8333WAT     H225242   4.171   1.202   2.260
 8334WAT      O25243   6.140   2.830   0.385
 8334WAT     H125244   6.059   2.887   0.389
 8334WAT     H225245   6.119   2.738   0.419
 8335WAT      O25246   5.129   0.528   5.299
 8335WAT     H125247   5.047   0.586   5.307
 8335WAT     H225248   5.178   0.552   5.216
 8336WAT      O25249   3.456   4.422   9.670
 8336WAT     H125250   3.463   4.326   9.643
 8336WAT     H225251   3.419   4.475   9.593
 8337WAT      O25252   2.135   8.683   5.348
 8337WAT     H125253   2.052   8.626   5.347
 8337WAT     H225254   2.111   8.776   5.320
 8338WAT      O25255   9.628   2.849   5.560
 8338WAT     H125256   9.687   2.885   5.632
 8338WAT     H225257   9.567   2.921   5.527
 8339WAT      O25258   1.129   9.005   5.514
 8339WAT     H125259   1.120   8.955   5.600
 8339WAT     H225260   1.108   8.944   5.437
 8340WAT      O25261   3.935   4.567   2.923
 8340WAT     H125262   3.927   4.479   2.875
 8340WAT     H225263   3.953   4.639   2.856
 8341WAT      O25264   0.969   4.107   7.200
 8341WAT     H125265   0.880   4.091   7.240
 8341WAT     H225266   1.026   4.025   7.210
 8342WAT      O25267   2.353   9.331   5.447
 8342WAT     H125268   2.254   9.339   5.440
 8342WAT     H225269   2.396   9.384   5.375
 8343WAT      O25270   8.672   1.662   0.685
 8343WAT     H125271   8.711   1.658   0.593
 8343WAT     H225272   8.726   1.603   0.746
 8344WAT      O25273   4.275   6.818   9.131
 8344WAT     H125274   4.211   6.764   9.076
 8344WAT     H225275   4.270   6.913   9.102
 8345WAT      O25276   7.146   8.075   9.677
 8345WAT     H125277   7.062   8.130   9.679
 8345WAT     H225278   7.192   8.082   9.766
 8346WAT      O25279   6.921   6.759   1.386
 8346WAT     H125280   6.984   6.745   1.309
 8346WAT     H225281   6.970   6.807   1.460
 8347WAT      O25282   3.945   8.013   9.194
 8347WAT     H125283   4.000   8.074   9.252
 8347WAT     H225284   4.004   7.942   9.155
 8348WAT      O25285   1.186   0.459   0.992
 8348WAT     H125286   1.157   0.414   1.076
 8348WAT     H225287   1.266   0.517   1.011
 8349WAT      O25288   4.279   6.836   4.325
 8349WAT     H125289   4.335   6.767   4.279
 8349WAT     H225290   4.190   6.842   4.280
 8350WAT      O25291   3.829   4.219   0.340
 8350WAT     H125292   3.899   4.174   0.285
 8350WAT     H225293   3.753   4.156   0.355
 8351WAT      O25294   3.287   6.953   8.508
 8351WAT     H125295   3.201   6.904   8.519
 8351WAT     H225296   3.356   6.912   8.568
 8352WAT      O25297   8.039   0.946   1.477
 8352WAT     H125298   8.015   1.001   1.556
 8352WAT     H225299   8.136   0.958   1.456
 8353WAT      O25300   4.065   4.587   8.862
 8353WAT     H125301   3.967   4.606   8.857
 8353WAT     H225302   4.100   4.569   8.769
 8354WAT      O25303   9.585   9.710   7.140
 8354WAT     H125304   9.497   9.663   7.141
 8354WAT     H225305   9.656   9.647   7.109
 8355WAT      O25306   4.394   9.085   3.963
 8355WAT     H125307   4.420   9.010   4.024
 8355WAT     H225308   4.457   9.088   3.886
 8356WAT      O25309   5.252   9.293   5.938
 8356WAT     H125310   5.238   9.348   5.856
 8356WAT     H225311   5.252   9.196   5.913
 8357WAT      O25312   0.624   8.313   0.003
 8357WAT     H125313   0.708   8.259   0.017
 8357WAT     H225314   0.611   8.374   0.081
 8358WAT      O25315   9.175   6.560   2.886
 8358WAT     H125316   9.167   6.619   2.966
 8358WAT     H225317   9.256   6.502   2.896
 8359WAT      O25318   7.478   8.232   6.758
 8359WAT     H125319   7.416   8.160   6.791
 8359WAT     H225320   7.532   8.197   6.682
 8360WAT      O25321   8.245   9.698   8.461
 8360WAT     H125322   8.167   9.710   8.524
 8360WAT     H225323   8.330   9.710   8.512
 8361WAT      O25324   0.097   5.853   7.065
 8361WAT     H125325   0.058   5.779   7.119
 8361WAT     H225326   0.054   5.855   6.974
 8362WAT      O25327   9.179   1.067   9.095
 8362WAT     H125328   9.124   1.149   9.112
 8362WAT     H225329   9.243   1.053   9.170
 8363WAT      O25330   5.121   0.567   1.601
 8363WAT     H125331   5.094   0.660   1.624
 8363WAT     H225332   5.054   0.503   1.638
 8364WAT      O25333   3.399   2.803   6.490
 8364WAT     H125334   3.389   2.711   6.451
 8364WAT     H225335   3.400   2.796   6.590
 8365WAT      O25336   7.942   5.976   8.610
 8365WAT     H125337   7.929   6.054   8.671
 8365WAT     H225338   7.980   6.007   8.524
 8366WAT      O25339   6.909   1.918   7.680
 8366WAT     H125340   6.826   1.908   7.735
 8366WAT     H225341   6.990   1.903   7.737
 8367WAT      O25342   4.048   9.714   2.162
 8367WAT     H125343   3.991   9.684   2.086
 8367WAT     H225344   3.997   9.780   2.218
 8368WAT      O25345   8.208   8.719   5.686
 8368WAT     H125346   8.165   8.718   5.595
 8368WAT     H225347   8.140   8.699   5.755
 8369WAT      O25348   6.298   4.559   7.206
 8369WAT     H125349   6.392   4.574   7.235
 8369WAT     H225350   6.266   4.470   7.239
 8370WAT      O25351   2.891   6.402   3.900
 8370WAT     H125352   2.831   6.441   3.970
 8370WAT     H225353   2.916   6.473   3.835
 8371WAT      O25354   7.797   7.177   1.419
 8371WAT     H125355   7.890   7.191   1.385
 8371WAT     H225356   7.735   7.241   1.374
 8372WAT      O25357   0.394   5.443   2.596
 8372WAT     H125358   0.345   5.436   2.683
 8372WAT     H225359   0.346   5.507   2.536
 8373WAT      O25360   2.691   9.353   3.901
 8373WAT     H125361   2.752   9.276   3.919
 8373WAT     H225362   2.596   9.325   3.916
 8374WAT      O25363   1.237   6.226   0.896
 8374WAT     H125364   1.164   6.294   0.906
 8374WAT     H225365   1.220   6.149   0.956
 8375WAT      O25366   3.899   7.661   1.214
 8375WAT     H125367   3.955   7.578   1.211
 8375WAT     H225368   3.808   7.638   1.251
 8376WAT      O25369   0.632   3.396   0.340
 8376WAT     H125370   0.602   3.300   0.340
 8376WAT     H225371   0.728   3.401   0.367
 8377WAT      O25372   4.885   6.843   0.043
 8377WAT     H125373   4.846   6.935   0.036
 8377WAT     H225374   4.872   6.794  -0.043
 8378WAT      O25375   9.276   4.200   7.846
 8378WAT     H125376   9.342   4.137   7.805
 8378WAT     H225377   9.208   4.147   7.897
 8379WAT      O25378   7.526   6.874   0.506
 8379WAT     H125379   7.607   6.860   0.564
 8379WAT     H225380   7.539   6.828   0.418
 8380WAT      O25381   9.241   0.395   5.946
 8380WAT     H125382   9.181   0.475   5.956
 8380WAT     H225383   9.205   0.335   5.875
 8381WAT      O25384   0.956   4.341   3.930
 8381WAT     H125385   0.979   4.438   3.945
 8381WAT     H225386   1.040   4.291   3.907
 8382WAT      O25387   7.866   2.829   0.973
 8382WAT     H125388   7.809   2.812   1.053
 8382WAT     H225389   7.810   2.829   0.891
 8383WAT      O25390   9.089   5.028   0.325
 8383WAT     H125391   8.994   5.058   0.340
 8383WAT     H225392   9.116   4.964   0.397
 8384WAT      O25393   6.008   8.667   3.341
 8384WAT     H125394   5.963   8.578   3.351
 8384WAT     H225395   5.948   8.730   3.293
 8385WAT      O25396   0.913   3.362   1.866
 8385WAT     H125397   0.821   3.368   1.906
 8385WAT     H225398   0.975   3.422   1.917
 8386WAT      O25399   1.764   5.193   3.578
 8386WAT     H125400   1.816   5.246   3.511
 8386WAT     H225401   1.826   5.158   3.648
 8387WAT      O25402   6.830   1.448   0.854
 8387WAT     H125403   6.895   1.432   0.780
 8387WAT     H225404   6.741   1.470   0.816
 8388WAT      O25405   5.753   1.993   2.448
 8388WAT     H125406   5.689   2.048   2.395
 8388WAT     H225407   5.754   2.025   2.543
 8389WAT      O25408   9.252   0.939   7.956
 8389WAT     H125409   9.210   0.875   8.020
 8389WAT     H225410   9.278   0.890   7.873
 8390WAT      O25411   9.437   4.439   8.113
 8390WAT     H125412   9.497   4.402   8.042
 8390WAT     H225413   9.470   4.529   8.141
 8391WAT      O25414   2.476   9.833   0.145
 8391WAT     H125415   2.391   9.883   0.159
 8391WAT     H225416   2.492   9.823   0.047
 8392WAT      O25417   0.753   8.220   6.768
 8392WAT     H125418   0.709   8.296   6.815
 8392WAT     H225419   0.851   8.235   6.764
 8393WAT      O25420   0.006   2.816   5.092
 8393WAT     H125421   0.002   2.876   5.011
 8393WAT     H225422   0.097   2.774   5.098
 8394WAT      O25423   5.727   2.527   0.021
 8394WAT     H125424   5.760   2.473   0.097
 8394WAT     H225425   5.703   2.467  -0.056
 8395WAT      O25426   5.056   7.899   8.361
 8395WAT     H125427   5.022   7.828   8.300
 8395WAT     H225428   5.140   7.938   8.322
 8396WAT      O25429   6.601   4.371   4.708
 8396WAT     H125430   6.641   4.420   4.785
 8396WAT     H225431   6.658   4.382   4.627
 8397WAT      O25432   0.335   2.814   4.532
 8397WAT     H125433   0.306   2.718   4.534
 8397WAT     H225434   0.288   2.865   4.604
 8398WAT      O25435   3.976   2.796   9.597
 8398WAT     H125436   3.963   2.841   9.509
 8398WAT     H225437   3.973   2.863   9.670
 8399WAT      O25438   9.045   1.562   8.217
 8399WAT     H125439   9.032   1.476   8.167
 8399WAT     H225440   9.110   1.619   8.167
 8400WAT      O25441   0.185   3.659   4.124
 8400WAT     H125442   0.158   3.746   4.082
 8400WAT     H225443   0.124   3.640   4.201
 8401WAT      O25444   2.023   2.901   9.743
 8401WAT     H125445   1.997   2.954   9.824
 8401WAT     H225446   2.095   2.836   9.768
 8402WAT      O25447   0.151   3.913   8.869
 8402WAT     H125448   0.136   3.905   8.968
 8402WAT     H225449   0.106   3.995   8.835
 8403WAT      O25450   7.899   7.964   1.912
 8403WAT     H125451   7.895   8.062   1.891
 8403WAT     H225452   7.873   7.911   1.832
 8404WAT      O25453   1.649   0.743   7.755
 8404WAT     H125454   1.598   0.672   7.804
 8404WAT     H225455   1.702   0.702   7.681
 8405WAT      O25456   6.387   6.041   5.855
 8405WAT     H125457   6.295   6.030   5.892
 8405WAT     H225458   6.390   6.121   5.796
 8406WAT      O25459   9.369   3.537   9.001
 8406WAT     H125460   9.415   3.460   9.046
 8406WAT     H225461   9.348   3.607   9.069
 8407WAT      O25462   1.257   0.626   5.681
 8407WAT     H125463   1.355   0.613   5.664
 8407WAT     H225464   1.206   0.597   5.600
 8408WAT      O25465   7.672   6.971   9.188
 8408WAT     H125466   7.688   7.002   9.094
 8408WAT     H225467   7.685   6.872   9.193
 8409WAT      O25468   7.639   0.809   4.923
 8409WAT     H125469   7.681   0.751   4.992
 8409WAT     H225470   7.666   0.904   4.937
 8410WAT      O25471   2.887   1.409   3.172
 8410WAT     H125472   2.855   1.413   3.078
 8410WAT     H225473   2.904   1.314   3.198
 8411WAT      O25474   6.354   6.627   4.666
 8411WAT     H125475   6.345   6.531   4.637
 8411WAT     H225476   6.418   6.674   4.604
 8412WAT      O25477   9.545   7.557   1.937
 8412WAT     H125478   9.464   7.521   1.982
 8412WAT     H225479   9.546   7.657   1.946
 8413WAT      O25480   8.838   2.593   8.670
 8413WAT     H125481   8.870   2.665   8.731
 8413WAT     H225482   8.843   2.505   8.716
 8414WAT      O25483   9.415   9.408   7.402
 8414WAT     H125484   9.317   9.392   7.385
 8414WAT     H225485   9.432   9.506   7.410
 8415WAT      O25486   4.459   0.011   9.712
 8415WAT     H125487   4.386   0.070   9.744
 8415WAT     H225488   4.523   0.064   9.656
 8416WAT      O25489   7.809   9.296   5.216
 8416WAT     H125490   7.743   9.233   5.258
 8416WAT     H225491   7.817   9.378   5.273
 8417WAT      O25492   7.658   9.209   3.745
 8417WAT     H125493   7.618   9.155   3.819
 8417WAT     H225494   7.617   9.300   3.744
 8418WAT      O25495   8.510   7.986   0.338
 8418WAT     H125496   8.581   8.023   0.398
 8418WAT     H225497   8.420   8.001   0.379
 8419WAT      O25498   4.536   4.759   0.678
 8419WAT     H125499   4.475   4.685   0.647
 8419WAT     H225500   4.606   4.721   0.738
 8420WAT      O25501   2.723   6.980   7.871
 8420WAT     H125502   2.742   7.072   7.835
 8420WAT     H225503   2.776   6.913   7.819
 8421WAT      O25504   8.270   8.743   0.099
 8421WAT     H125505   8.286   8.841   0.098
 8421WAT     H225506   8.191   8.722   0.157
 8422WAT      O25507   6.108   5.265   2.090
 8422WAT     H125508   6.169   5.203   2.140
 8422WAT     H225509   6.037   5.298   2.152
 8423WAT      O25510   3.270   2.853   4.884
 8423WAT     H125511   3.215   2.783   4.929
 8423WAT     H225512   3.210   2.921   4.841
 8424WAT      O25513   0.701   1.166   3.337
 8424WAT     H125514   0.786   1.187   3.386
 8424WAT     H225515   0.710   1.194   3.242
 8425WAT      O25516   6.846   8.926   1.262
 8425WAT     H125517   6.839   8.827   1.272
 8425WAT     H225518   6.798   8.970   1.338
 8426WAT      O25519   1.658   8.649   7.838
 8426WAT     H125520   1.661   8.564   7.891
 8426WAT     H225521   1.600   8.636   7.758
 8427WAT      O25522   9.250   7.487   6.488
 8427WAT     H125523   9.251   7.555   6.415
 8427WAT     H225524   9.213   7.528   6.572
 8428WAT      O25525   1.331   6.862   1.343
 8428WAT     H125526   1.304   6.796   1.273
 8428WAT     H225527   1.429   6.883   1.333
 8429WAT      O25528   2.109   8.862   8.824
 8429WAT     H125529   2.027   8.857   8.882
 8429WAT     H225530   2.183   8.810   8.867
 8430WAT      O25531   6.787   9.392   6.346
 8430WAT     H125532   6.820   9.379   6.253
 8430WAT     H225533   6.752   9.485   6.356
 8431WAT      O25534   4.352   4.774   3.286
 8431WAT     H125535   4.402   4.692   3.315
 8431WAT     H225536   4.256   4.764   3.309
 8432WAT      O25537   3.245   1.237   9.141
 8432WAT     H125538   3.220   1.331   9.162
 8432WAT     H225539   3.169   1.191   9.094
 8433WAT      O25540   9.453   8.501   0.807
 8433WAT     H125541   9.408   8.583   0.772
 8433WAT     H225542   9.405   8.469   0.888
 8434WAT      O25543   2.322   4.752   0.744
 8434WAT     H125544   2.266   4.813   0.800
 8434WAT     H225545   2.397   4.715   0.800
 8435WAT      O25546   5.787   6.370   0.420
 8435WAT     H125547   5.693   6.387   0.391
 8435WAT     H225548   5.813   6.276   0.397
 8436WAT      O25549   4.368   4.063   6.492
 8436WAT     H125550   4.460   4.098   6.509
 8436WAT     H225551   4.342   4.080   6.397
 8437WAT      O25552   0.518   8.815   3.975
 8437WAT     H125553   0.601   8.784   4.023
 8437WAT     H225554   0.449   8.744   3.980
 8438WAT      O25555   5.873   9.097   1.467
 8438WAT     H125556   5.942   9.077   1.537
 8438WAT     H225557   5.821   9.014   1.448
 8439WAT      O25558   7.987   2.000   6.595
 8439WAT     H125559   7.946   2.073   6.650
 8439WAT     H225560   8.083   1.989   6.620
 8440WAT      O25561   0.050   9.373   0.542
 8440WAT     H125562  -0.032   9.356   0.487
 8440WAT     H225563   0.115   9.299   0.530
 8441WAT      O25564   8.106   9.117   8.167
 8441WAT     H125565   8.067   9.031   8.199
 8441WAT     H225566   8.038   9.167   8.113
 8442WAT      O25567   7.229   6.818   3.478
 8442WAT     H125568   7.228   6.791   3.382
 8442WAT     H225569   7.278   6.749   3.532
 8443WAT      O25570   4.081   4.661   6.833
 8443WAT     H125571   4.064   4.566   6.806
 8443WAT     H225572   4.167   4.692   6.792
 8444WAT      O25573   8.449   0.126   7.310
 8444WAT     H125574   8.503   0.114   7.394
 8444WAT     H225575   8.385   0.050   7.301
 8445WAT      O25576   9.341   1.236   8.677
 8445WAT     H125577   9.431   1.236   8.722
 8445WAT     H225578   9.291   1.318   8.702
 8446WAT      O25579   7.096   5.056   9.562
 8446WAT     H125580   7.165   5.121   9.530
 8446WAT     H225581   7.026   5.044   9.491
 8447WAT      O25582   2.943   8.676   2.064
 8447WAT     H125583   2.973   8.772   2.068
 8447WAT     H225584   2.906   8.656   1.973
 8448WAT      O25585   2.349   7.442   4.890
 8448WAT     H125586   2.333   7.447   4.989
 8448WAT     H225587   2.306   7.359   4.854
 8449WAT      O25588   8.898   1.487   2.090
 8449WAT     H125589   8.887   1.393   2.060
 8449WAT     H225590   8.980   1.495   2.147
 8450WAT      O25591   3.598   5.621   7.190
 8450WAT     H125592   3.626   5.537   7.236
 8450WAT     H225593   3.583   5.692   7.259
 8451WAT      O25594   5.369   0.464   8.999
 8451WAT     H125595   5.440   0.406   8.958
 8451WAT     H225596   5.348   0.431   9.091
 8452WAT      O25597   6.785   9.755   0.407
 8452WAT     H125598   6.820   9.662   0.414
 8452WAT     H225599   6.861   9.819   0.394
 8453WAT      O25600   0.437   1.617   7.819
 8453WAT     H125601   0.427   1.538   7.759
 8453WAT     H225602   0.350   1.665   7.825
 8454WAT      O25603   5.831   2.740   6.901
 8454WAT     H125604   5.896   2.734   6.976
 8454WAT     H225605   5.754   2.797   6.929
 8455WAT      O25606   2.410   6.127   8.444
 8455WAT     H125607   2.425   6.101   8.540
 8455WAT     H225608   2.425   6.225   8.433
 8456WAT      O25609   7.710   8.383   4.929
 8456WAT     H125610   7.617   8.346   4.929
 8456WAT     H225611   7.775   8.311   4.950
 8457WAT      O25612   0.789   6.526   5.936
 8457WAT     H125613   0.717   6.504   5.869
 8457WAT     H225614   0.860   6.456   5.931
 8458WAT      O25615   7.963   7.922   0.467
 8458WAT     H125616   8.020   7.917   0.385
 8458WAT     H225617   7.923   8.013   0.474
 8459WAT      O25618   8.573   8.412   4.210
 8459WAT     H125619   8.477   8.422   4.186
 8459WAT     H225620   8.619   8.358   4.140
 8460WAT      O25621   6.518   3.264   9.886
 8460WAT     H125622   6.487   3.332   9.953
 8460WAT     H225623   6.455   3.186   9.885
 8461WAT      O25624   6.428   7.282   3.480
 8461WAT     H125625   6.336   7.254   3.508
 8461WAT     H225626   6.424   7.322   3.388
 8462WAT      O25627   0.526   8.282   0.383
 8462WAT     H125628   0.571   8.347   0.321
 8462WAT     H225629   0.441   8.322   0.417
 8463WAT      O25630   9.397   0.027   5.481
 8463WAT     H125631   9.467   0.076   5.534
 8463WAT     H225632   9.389  -0.066   5.516
 8464WAT      O25633   7.775   7.351   2.715
 8464WAT     H125634   7.718   7.346   2.796
 8464WAT     H225635   7.722   7.323   2.634
 8465WAT      O25636   8.608   2.171   0.797
 8465WAT     H125637   8.631   2.081   0.834
 8465WAT     H225638   8.553   2.160   0.715
 8466WAT      O25639   9.096   3.919   8.961
 8466WAT     H125640   9.006   3.952   8.990
 8466WAT     H225641   9.154   3.908   9.042
 8467WAT      O25642   1.305   7.857   4.129
 8467WAT     H125643   1.308   7.936   4.190
 8467WAT     H225644   1.307   7.889   4.034
 8468WAT      O25645   9.732   6.769   6.086
 8468WAT     H125646   9.721   6.846   6.150
 8468WAT     H225647   9.813   6.783   6.030
 8469WAT      O25648   6.483   4.793   6.145
 8469WAT     H125649   6.582   4.779   6.150
 8469WAT     H225650   6.452   4.843   6.225
 8470WAT      O25651   5.951   2.199   3.569
 8470WAT     H125652   5.882   2.129   3.590
 8470WAT     H225653   5.931   2.283   3.620
 8471WAT      O25654   3.403   3.982   5.868
 8471WAT     H125655   3.498   4.011   5.860
 8471WAT     H225656   3.343   4.062   5.864
 8472WAT      O25657   5.364   9.605   0.095
 8472WAT     H125658   5.449   9.571   0.054
 8472WAT     H225659   5.352   9.701   0.070
 8473WAT      O25660   7.607   6.889   3.245
 8473WAT     H125661   7.644   6.981   3.235
 8473WAT     H225662   7.599   6.846   3.156
 8474WAT      O25663   6.409   5.201   1.510
 8474WAT     H125664   6.448   5.293   1.518
 8474WAT     H225665   6.399   5.161   1.601
 8475WAT      O25666   1.359   9.696   1.491
 8475WAT     H125667   1.402   9.784   1.513
 8475WAT     H225668   1.427   9.636   1.450
 8476WAT      O25669   7.783   8.427   5.789
 8476WAT     H125670   7.810   8.401   5.696
 8476WAT     H225671   7.849   8.493   5.825
 8477WAT      O25672   2.044   4.094   6.035
 8477WAT     H125673   1.996   4.182   6.035
 8477WAT     H225674   2.121   4.098   6.099
 8478WAT      O25675   1.121   5.907   1.466
 8478WAT     H125676   1.036   5.942   1.507
 8478WAT     H225677   1.103   5.819   1.422
 8479WAT      O25678   7.511   7.802   0.314
 8479WAT     H125679   7.530   7.770   0.407
 8479WAT     H225680   7.466   7.892   0.318
 8480WAT      O25681   7.959   3.139   9.151
 8480WAT     H125682   7.860   3.141   9.165
 8480WAT     H225683   7.996   3.054   9.187
 8481WAT      O25684   6.740   4.472   6.221
 8481WAT     H125685   6.651   4.497   6.258
 8481WAT     H225686   6.809   4.477   6.294
 8482WAT      O25687   4.301   0.598   3.862
 8482WAT     H125688   4.238   0.571   3.934
 8482WAT     H225689   4.388   0.549   3.874
 8483WAT      O25690   2.901   3.808   8.458
 8483WAT     H125691   2.880   3.902   8.432
 8483WAT     H225692   2.984   3.778   8.410
 8484WAT      O25693   8.311   9.188   5.487
 8484WAT     H125694   8.217   9.167   5.459
 8484WAT     H225695   8.342   9.118   5.551
 8485WAT      O25696   9.871   8.413   5.566
 8485WAT     H125697   9.777   8.381   5.573
 8485WAT     H225698   9.916   8.404   5.655
 8486WAT      O25699   0.372   1.078   3.075
 8486WAT     H125700   0.340   1.028   3.155
 8486WAT     H225701   0.455   1.035   3.040
 8487WAT      O25702   8.137   5.359   8.291
 8487WAT     H125703   8.218   5.408   8.323
 8487WAT     H225704   8.146   5.261   8.313
 8488WAT      O25705   1.402   0.372   8.884
 8488WAT     H125706   1.468   0.431   8.930
 8488WAT     H225707   1.309   0.403   8.906
 8489WAT      O25708   9.563   2.506   9.048
 8489WAT     H125709   9.482   2.464   9.006
 8489WAT     H225710   9.624   2.539   8.977
 8490WAT      O25711   8.899   6.422   4.810
 8490WAT     H125712   8.815   6.470   4.835
 8490WAT     H225713   8.943   6.470   4.734
 8491WAT      O25714   2.408   0.745   0.174
 8491WAT     H125715   2.476   0.813   0.202
 8491WAT     H225716   2.347   0.726   0.251
 8492WAT      O25717   4.683   8.010   2.708
 8492WAT     H125718   4.653   8.046   2.620
 8492WAT     H225719   4.680   7.910   2.707
 8493WAT      O25720   0.052   6.813   2.542
 8493WAT     H125721  -0.009   6.803   2.463
 8493WAT     H225722   0.061   6.910   2.565
 8494WAT      O25723   6.457   9.170   0.116
 8494WAT     H125724   6.439   9.238   0.188
 8494WAT     H225725   6.514   9.211   0.045
 8495WAT      O25726   6.996   0.864   5.203
 8495WAT     H125727   6.965   0.776   5.238
 8495WAT     H225728   6.922   0.931   5.209
 8496WAT      O25729   9.162   1.511   9.354
 8496WAT     H125730   9.147   1.598   9.401
 8496WAT     H225731   9.141   1.435   9.416
 8497WAT      O25732   8.264   4.630   9.152
 8497WAT     H125733   8.218   4.545   9.178
 8497WAT     H225734   8.357   4.630   9.187
 8498WAT      O25735   0.366   2.750   6.433
 8498WAT     H125736   0.336   2.830   6.484
 8498WAT     H225737   0.358   2.767   6.335
 8499WAT      O25738   6.961   1.261   4.662
 8499WAT     H125739   6.957   1.259   4.562
 8499WAT     H225740   6.900   1.190   4.699
 8500WAT      O25741   0.267   4.808   9.229
 8500WAT     H125742   0.235   4.741   9.296
 8500WAT     H225743   0.195   4.876   9.214
 8501WAT      O25744   7.128   6.497   5.020
 8501WAT     H125745   7.195   6.441   4.972
 8501WAT     H225746   7.103   6.576   4.964
 8502WAT      O25747   7.974   6.423   6.042
 8502WAT     H125748   8.030   6.462   6.115
 8502WAT     H225749   7.882   6.462   6.046
 8503WAT      O25750   9.016   9.048   3.793
 8503WAT     H125751   8.936   9.077   3.740
 8503WAT     H225752   9.096   9.045   3.733
 8504WAT      O25753   7.171   9.428   1.674
 8504WAT     H125754   7.168   9.345   1.618
 8504WAT     H225755   7.226   9.497   1.628
 8505WAT      O25756   9.667   4.166   4.070
 8505WAT     H125757   9.762   4.136   4.080
 8505WAT     H225758   9.627   4.123   3.989
 8506WAT      O25759   3.420   2.235   1.117
 8506WAT     H125760   3.460   2.317   1.158
 8506WAT     H225761   3.445   2.155   1.173
 8507WAT      O25762   1.407   1.598   4.374
 8507WAT     H125763   1.499   1.560   4.362
 8507WAT     H225764   1.411   1.676   4.436
 8508WAT      O25765   0.110   8.848   6.247
 8508WAT     H125766   0.036   8.907   6.282
 8508WAT     H225767   0.114   8.857   6.148
 8509WAT      O25768   3.508   4.150   9.617
 8509WAT     H125769   3.594   4.121   9.660
 8509WAT     H225770   3.460   4.069   9.583
 8510WAT      O25771   4.017   2.246   4.530
 8510WAT     H125772   3.923   2.259   4.560
 8510WAT     H225773   4.024   2.163   4.475
 8511WAT      O25774   7.139   3.734   7.548
 8511WAT     H125775   7.084   3.737   7.632
 8511WAT     H225776   7.086   3.773   7.472
 8512WAT      O25777   4.877   7.728   8.722
 8512WAT     H125778   4.969   7.761   8.700
 8512WAT     H225779   4.812   7.804   8.717
 8513WAT      O25780   8.733   6.228   5.645
 8513WAT     H125781   8.786   6.153   5.684
 8513WAT     H225782   8.743   6.309   5.703
 8514WAT      O25783   8.038   4.105   1.462
 8514WAT     H125784   7.989   4.186   1.494
 8514WAT     H225785   8.036   4.102   1.362
 8515WAT      O25786   5.932   2.384   0.665
 8515WAT     H125787   6.022   2.363   0.625
 8515WAT     H225788   5.931   2.357   0.761
 8516WAT      O25789   7.368   6.340   3.338
 8516WAT     H125790   7.390   6.404   3.264
 8516WAT     H225791   7.398   6.378   3.425
 8517WAT      O25792   5.620   3.518   3.631
 8517WAT     H125793   5.588   3.460   3.706
 8517WAT     H225794   5.717   3.498   3.613
 8518WAT      O25795   7.749   1.525   6.702
 8518WAT     H125796   7.798   1.607   6.731
 8518WAT     H225797   7.802   1.443   6.725
 8519WAT      O25798   6.959   8.159   2.421
 8519WAT     H125799   6.903   8.201   2.350
 8519WAT     H225800   7.047   8.131   2.381
 8520WAT      O25801   4.800   8.643   9.382
 8520WAT     H125802   4.897   8.623   9.375
 8520WAT     H225803   4.756   8.626   9.294
 8521WAT      O25804   1.932   8.511   5.308
 8521WAT     H125805   1.848   8.558   5.336
 8521WAT     H225806   1.908   8.426   5.260
 8522WAT      O25807   2.793   7.448   6.924
 8522WAT     H125808   2.883   7.482   6.951
 8522WAT     H225809   2.801   7.353   6.893
 8523WAT      O25810   8.730   1.442   0.171
 8523WAT     H125811   8.658   1.511   0.169
 8523WAT     H225812   8.804   1.469   0.109
 8524WAT      O25813   7.194   4.470   8.997
 8524WAT     H125814   7.132   4.393   9.013
 8524WAT     H225815   7.141   4.549   8.965
 8525WAT      O25816   5.282   2.203   2.188
 8525WAT     H125817   5.322   2.293   2.205
 8525WAT     H225818   5.323   2.163   2.106
 8526WAT      O25819   4.070   6.764   6.347
 8526WAT     H125820   4.025   6.736   6.262
 8526WAT     H225821   4.168   6.745   6.340
 8527WAT      O25822   5.589   1.700   3.303
 8527WAT     H125823   5.510   1.755   3.330
 8527WAT     H225824   5.595   1.619   3.362
 8528WAT      O25825   6.132   3.173   3.830
 8528WAT     H125826   6.132   3.175   3.930
 8528WAT     H225827   6.047   3.133   3.797
 8529WAT      O25828   5.778   1.269   1.755
 8529WAT     H125829   5.783   1.287   1.854
 8529WAT     H225830   5.805   1.174   1.738
 8530WAT      O25831   5.330   5.738   1.880
 8530WAT     H125832   5.401   5.677   1.846
 8530WAT     H225833   5.304   5.803   1.809
 8531WAT      O25834   1.959   4.751   4.338
 8531WAT     H125835   1.934   4.760   4.434
 8531WAT     H225836   2.037   4.810   4.318
 8532WAT      O25837   9.876   2.199   2.995
 8532WAT     H125838   9.785   2.161   2.981
 8532WAT     H225839   9.939   2.160   2.928
 8533WAT      O25840   1.599   1.974   2.033
 8533WAT     H125841   1.516   2.004   2.080
 8533WAT     H225842   1.668   1.949   2.100
 8534WAT      O25843   3.421   2.592   9.508
 8534WAT     H125844   3.384   2.608   9.416
 8534WAT     H225845   3.514   2.628   9.513
 8535WAT      O25846   2.680   3.135   6.773
 8535WAT     H125847   2.631   3.102   6.693
 8535WAT     H225848   2.622   3.200   6.823
 8536WAT      O25849   4.279   7.743   1.771
 8536WAT     H125850   4.213   7.767   1.842
 8536WAT     H225851   4.328   7.660   1.798
 8537WAT      O25852   7.246   1.718   7.126
 8537WAT     H125853   7.163   1.716   7.070
 8537WAT     H225854   7.224   1.686   7.218
 8538WAT      O25855   5.655   3.111   7.108
 8538WAT     H125856   5.604   3.175   7.166
 8538WAT     H225857   5.749   3.101   7.143
 8539WAT      O25858   1.903   3.429   7.537
 8539WAT     H125859   1.831   3.391   7.479
 8539WAT     H225860   1.876   3.519   7.570
 8540WAT      O25861   4.635   9.825   0.550
 8540WAT     H125862   4.676   9.880   0.478
 8540WAT     H225863   4.636   9.729   0.522
 8541WAT      O25864   4.710   4.255   8.443
 8541WAT     H125865   4.765   4.199   8.381
 8541WAT     H225866   4.753   4.256   8.533
 8542WAT      O25867   0.212   2.407   5.270
 8542WAT     H125868   0.243   2.366   5.356
 8542WAT     H225869   0.249   2.500   5.263
 8543WAT      O25870   3.915   6.128   9.875
 8543WAT     H125871   3.933   6.087   9.785
 8543WAT     H225872   3.820   6.111   9.901
 8544WAT      O25873   0.584   3.525   2.488
 8544WAT     H125874   0.575   3.624   2.477
 8544WAT     H225875   0.657   3.491   2.429
 8545WAT      O25876   6.480   5.100   8.114
 8545WAT     H125877   6.460   5.011   8.156
 8545WAT     H225878   6.397   5.155   8.111
 8546WAT      O25879   9.516   3.668   7.411
 8546WAT     H125880   9.480   3.599   7.474
 8546WAT     H225881   9.510   3.634   7.317
 8547WAT      O25882   0.409   6.138   7.346
 8547WAT     H125883   0.438   6.177   7.433
 8547WAT     H225884   0.469   6.063   7.320
 8548WAT      O25885   4.143   8.201   2.087
 8548WAT     H125886   4.191   8.139   2.148
 8548WAT     H225887   4.182   8.195   1.995
 8549WAT      O25888   9.003   0.257   0.652
 8549WAT     H125889   8.944   0.275   0.731
 8549WAT     H225890   9.098   0.272   0.677
 8550WAT      O25891   6.081   7.402   0.943
 8550WAT     H125892   6.038   7.456   1.015
 8550WAT     H225893   6.167   7.364   0.976
 8551WAT      O25894   4.953   9.306   0.353
 8551WAT     H125895   5.040   9.353   0.343
 8551WAT     H225896   4.883   9.354   0.299
 8552WAT      O25897   0.048   3.900   5.767
 8552WAT     H125898   0.090   3.955   5.839
 8552WAT     H225899   0.084   3.928   5.678
 8553WAT      O25900   1.742   0.205   8.171
 8553WAT     H125901   1.731   0.299   8.137
 8553WAT     H225902   1.656   0.174   8.211
 8554WAT      O25903   4.939   2.477   6.540
 8554WAT     H125904   5.028   2.432   6.542
 8554WAT     H225905   4.909   2.486   6.445
 8555WAT      O25906   2.659   0.016   8.732
 8555WAT     H125907   2.625   0.094   8.786
 8555WAT     H225908   2.610   0.013   8.645
 8556WAT      O25909   2.004   0.972   4.362
 8556WAT     H125910   1.959   1.034   4.298
 8556WAT     H225911   1.935   0.928   4.420
 8557WAT      O25912   2.960   9.733   0.317
 8557WAT     H125913   3.048   9.718   0.362
 8557WAT     H225914   2.953   9.828   0.288
 8558WAT      O25915   0.225   1.123   0.640
 8558WAT     H125916   0.129   1.098   0.649
 8558WAT     H225917   0.245   1.143   0.544
 8559WAT      O25918   1.956   5.010   3.171
 8559WAT     H125919   1.977   4.920   3.210
 8559WAT     H225920   1.974   5.081   3.240
 8560WAT      O25921   1.907   1.579   6.345
 8560WAT     H125922   1.917   1.651   6.276
 8560WAT     H225923   1.939   1.612   6.433
 8561WAT      O25924   0.140   2.861   6.673
 8561WAT     H125925   0.147   2.761   6.678
 8561WAT     H225926   0.063   2.892   6.730
 8562WAT      O25927   9.273   4.136   6.187
 8562WAT     H125928   9.209   4.176   6.252
 8562WAT     H225929   9.224   4.106   6.105
 8563WAT      O25930   1.669   1.610   8.054
 8563WAT     H125931   1.571   1.626   8.067
 8563WAT     H225932   1.709   1.686   8.005
 8564WAT      O25933   7.605   7.445   8.019
 8564WAT     H125934   7.602   7.410   8.113
 8564WAT     H225935   7.574   7.540   8.019
 8565WAT      O25936   7.518   8.054   1.107
 8565WAT     H125937   7.489   8.043   1.202
 8565WAT     H225938   7.441   8.085   1.052
 8566WAT      O25939   3.914   5.983   9.635
 8566WAT     H125940   3.993   5.943   9.680
 8566WAT     H225941   3.850   5.911   9.608
 8567WAT      O25942   9.546   2.812   7.696
 8567WAT     H125943   9.635   2.845   7.663
 8567WAT     H225944   9.554   2.789   7.793
 8568WAT      O25945   3.136   3.702   3.986
 8568WAT     H125946   3.073   3.753   3.928
 8568WAT     H225947   3.230   3.728   3.965
 8569WAT      O25948   8.803   8.921   2.241
 8569WAT     H125949   8.708   8.939   2.214
 8569WAT     H225950   8.809   8.921   2.341
 8570WAT      O25951   0.556   4.753   7.440
 8570WAT     H125952   0.516   4.720   7.354
 8570WAT     H225953   0.486   4.801   7.493
 8571WAT      O25954   5.633   7.952   7.763
 8571WAT     H125955   5.698   7.899   7.818
 8571WAT     H225956   5.540   7.922   7.784
 8572WAT      O25957   8.397   9.383   1.614
 8572WAT     H125958   8.393   9.338   1.703
 8572WAT     H225959   8.322   9.449   1.607
 8573WAT      O25960   3.821   4.591   8.688
 8573WAT     H125961   3.783   4.529   8.756
 8573WAT     H225962   3.786   4.566   8.597
 8574WAT      O25963   5.565   4.878   4.521
 8574WAT     H125964   5.577   4.873   4.421
 8574WAT     H225965   5.469   4.859   4.543
 8575WAT      O25966   3.848   8.695   0.040
 8575WAT     H125967   3.797   8.630   0.096
 8575WAT     H225968   3.926   8.648  -0.002
 8576WAT      O25969   3.866   8.288   8.407
 8576WAT     H125970   3.922   8.238   8.341
 8576WAT     H225971   3.854   8.233   8.490
 8577WAT      O25972   5.822   0.111   4.524
 8577WAT     H125973   5.853   0.131   4.617
 8577WAT     H225974   5.891   0.057   4.477
 8578WAT      O25975   5.966   7.314   9.797
 8578WAT     H125976   5.926   7.249   9.733
 8578WAT     H225977   6.065   7.301   9.800
 8579WAT      O25978   3.131   7.180   1.294
 8579WAT     H125979   3.064   7.106   1.292
 8579WAT     H225980   3.093   7.258   1.345
 8580WAT      O25981   2.614   6.911   8.461
 8580WAT     H125982   2.546   6.921   8.533
 8580WAT     H225983   2.585   6.963   8.380
 8581WAT      O25984   3.849   3.770   5.727
 8581WAT     H125985   3.819   3.684   5.686
 8581WAT     H225986   3.772   3.815   5.772
 8582WAT      O25987   4.134   1.712   4.439
 8582WAT     H125988   4.088   1.736   4.524
 8582WAT     H225989   4.066   1.704   4.366
 8583WAT      O25990   4.907   8.282   5.682
 8583WAT     H125991   4.919   8.322   5.591
 8583WAT     H225992   4.834   8.329   5.730
 8584WAT      O25993   2.734   2.956   5.264
 8584WAT     H125994   2.729   2.989   5.170
 8584WAT     H225995   2.819   2.988   5.307
 8585WAT      O25996   1.377   4.298   6.989
 8585WAT     H125997   1.387   4.327   6.894
 8585WAT     H225998   1.380   4.198   6.994
 8586WAT      O25999   0.478   5.532   3.006
 8586WAT     H126000   0.538   5.496   2.936
 8586WAT     H226001   0.435   5.457   3.056
 8587WAT      O26002   7.003   3.688   3.388
 8587WAT     H126003   7.087   3.732   3.421
 8587WAT     H226004   6.924   3.730   3.432
 8588WAT      O26005   7.944   7.469   0.088
 8588WAT     H126006   7.952   7.378   0.129
 8588WAT     H226007   7.944   7.538   0.161
 8589WAT      O26008   0.477   8.223   1.152
 8589WAT     H126009   0.473   8.275   1.237
 8589WAT     H226010   0.390   8.232   1.103
 8590WAT      O26011   2.805   3.927   7.356
 8590WAT     H126012   2.892   3.929   7.404
 8590WAT     H226013   2.816   3.878   7.270
 8591WAT      O26014   0.939   5.349   5.029
 8591WAT     H126015   1.028   5.305   5.023
 8591WAT     H226016   0.937   5.429   4.970
 8592WAT      O26017   6.746   3.085   5.776
 8592WAT     H126018   6.778   3.043   5.861
 8592WAT     H226019   6.646   3.092   5.778
 8593WAT      O26020   8.629   1.978   6.405
 8593WAT     H126021   8.640   2.077   6.410
 8593WAT     H226022   8.700   1.940   6.346
 8594WAT      O26023   6.217   4.303   7.322
 8594WAT     H126024   6.118   4.295   7.335
 8594WAT     H226025   6.264   4.244   7.387
 8595WAT      O26026   3.027   0.150   8.822
 8595WAT     H126027   3.018   0.072   8.885
 8595WAT     H226028   3.123   0.179   8.820
 8596WAT      O26029   4.863   9.791   1.987
 8596WAT     H126030   4.927   9.862   2.015
 8596WAT     H226031   4.898   9.742   1.907
 8597WAT      O26032   7.239   8.472   8.839
 8597WAT     H126033   7.241   8.392   8.778
 8597WAT     H226034   7.195   8.447   8.925
 8598WAT      O26035   9.499   1.272   6.061
 8598WAT     H126036   9.456   1.185   6.086
 8598WAT     H226037   9.428   1.336   6.031
 8599WAT      O26038   9.415   0.059   7.429
 8599WAT     H126039   9.461   0.127   7.371
 8599WAT     H226040   9.325   0.094   7.455
 8600WAT      O26041   1.615   4.778   4.538
 8600WAT     H126042   1.632   4.766   4.636
 8600WAT     H226043   1.644   4.870   4.511
 8601WAT      O26044   8.478   7.914   8.382
 8601WAT     H126045   8.514   7.908   8.475
 8601WAT     H226046   8.457   7.822   8.348
 8602WAT      O26047   9.883   4.813   5.707
 8602WAT     H126048   9.881   4.737   5.773
 8602WAT     H226049   9.863   4.778   5.616
 8603WAT      O26050   7.844   2.357   2.960
 8603WAT     H126051   7.886   2.417   2.891
 8603WAT     H226052   7.755   2.393   2.986
 8604WAT      O26053   7.793   2.175   0.959
 8604WAT     H126054   7.792   2.150   0.863
 8604WAT     H226055   7.807   2.274   0.967
 8605WAT      O26056   8.006   0.418   6.592
 8605WAT     H126057   7.932   0.466   6.544
 8605WAT     H226058   8.075   0.391   6.525
 8606WAT      O26059   9.666   3.203   3.115
 8606WAT     H126060   9.634   3.244   3.200
 8606WAT     H226061   9.645   3.105   3.114
 8607WAT      O26062   4.282   5.900   6.147
 8607WAT     H126063   4.360   5.912   6.209
 8607WAT     H226064   4.212   5.967   6.169
 8608WAT      O26065   0.111   6.280   6.323
 8608WAT     H126066   0.118   6.196   6.269
 8608WAT     H226067   0.036   6.272   6.389
 8609WAT      O26068   2.472   4.219   8.158
 8609WAT     H126069   2.468   4.230   8.257
 8609WAT     H226070   2.410   4.146   8.129
 8610WAT      O26071   7.756   6.142   6.306
 8610WAT     H126072   7.725   6.157   6.400
 8610WAT     H226073   7.837   6.198   6.288
 8611WAT      O26074   7.715   7.837   5.287
 8611WAT     H126075   7.678   7.756   5.241
 8611WAT     H226076   7.795   7.812   5.341
 8612WAT      O26077   5.836   4.289   1.076
 8612WAT     H126078   5.866   4.194   1.063
 8612WAT     H226079   5.786   4.319   0.995
 8613WAT      O26080   7.690   3.192   8.573
 8613WAT     H126081   7.707   3.174   8.476
 8613WAT     H226082   7.754   3.139   8.629
 8614WAT      O26083   2.629   9.069   6.994
 8614WAT     H126084   2.631   9.040   7.090
 8614WAT     H226085   2.649   8.990   6.935
 8615WAT      O26086   4.799   8.052   7.268
 8615WAT     H126087   4.804   8.150   7.287
 8615WAT     H226088   4.888   8.010   7.286
 8616WAT      O26089   5.065   8.371   0.352
 8616WAT     H126090   5.093   8.278   0.378
 8616WAT     H226091   4.968   8.371   0.330
 8617WAT      O26092   6.805   8.651   1.292
 8617WAT     H126093   6.905   8.649   1.287
 8617WAT     H226094   6.769   8.563   1.261
 8618WAT      O26095   5.120   4.515   0.755
 8618WAT     H126096   5.069   4.538   0.672
 8618WAT     H226097   5.183   4.440   0.735
 8619WAT      O26098   6.254   0.410   1.469
 8619WAT     H126099   6.224   0.336   1.530
 8619WAT     H226100   6.192   0.488   1.478
 8620WAT      O26101   3.115   3.528   9.640
 8620WAT     H126102   3.211   3.504   9.658
 8620WAT     H226103   3.069   3.450   9.596
 8621WAT      O26104   9.013   9.100   8.921
 8621WAT     H126105   8.951   9.134   8.992
 8621WAT     H226106   9.107   9.120   8.948
 8622WAT      O26107   2.451   2.856   0.564
 8622WAT     H126108   2.358   2.848   0.529
 8622WAT     H226109   2.457   2.813   0.653
 8623WAT      O26110   8.091   5.230   9.047
 8623WAT     H126111   8.191   5.234   9.037
 8623WAT     H226112   8.064   5.279   9.129
 8624WAT      O26113   7.579   7.088   5.212
 8624WAT     H126114   7.529   7.137   5.284
 8624WAT     H226115   7.614   7.002   5.248
 8625WAT      O26116   3.097   8.251   1.403
 8625WAT     H126117   3.132   8.265   1.495
 8625WAT     H226118   3.136   8.319   1.341
 8626WAT      O26119   3.615   5.302   7.725
 8626WAT     H126120   3.654   5.283   7.815
 8626WAT     H226121   3.542   5.236   7.706
 8627WAT      O26122   6.887   0.013   7.506
 8627WAT     H126123   6.859  -0.064   7.449
 8627WAT     H226124   6.815   0.034   7.571
 8628WAT      O26125   1.153   2.563   9.567
 8628WAT     H126126   1.166   2.654   9.528
 8628WAT     H226127   1.065   2.559   9.615
 8629WAT      O26128   9.153   3.083   6.053
 8629WAT     H126129   9.124   3.024   5.977
 8629WAT     H226130   9.252   3.089   6.054
 8630WAT      O26131   3.880   2.458   9.523
 8630WAT     H126132   3.978   2.478   9.511
 8630WAT     H226133   3.870   2.365   9.559
 8631WAT      O26134   0.538   1.707   8.917
 8631WAT     H126135   0.497   1.787   8.874
 8631WAT     H226136   0.474   1.630   8.914
 8632WAT      O26137   2.265   4.189   5.348
 8632WAT     H126138   2.271   4.265   5.283
 8632WAT     H226139   2.193   4.206   5.414
 8633WAT      O26140   0.670   3.768   5.712
 8633WAT     H126141   0.754   3.781   5.659
 8633WAT     H226142   0.694   3.741   5.805
 8634WAT      O26143   7.143   8.820   0.043
 8634WAT     H126144   7.219   8.765   0.076
 8634WAT     H226145   7.138   8.905   0.095
 8635WAT      O26146   2.008   8.619   1.209
 8635WAT     H126147   2.048   8.587   1.124
 8635WAT     H226148   1.919   8.575   1.223
 8636WAT      O26149   2.910   0.105   0.925
 8636WAT     H126150   2.836   0.038   0.932
 8636WAT     H226151   2.998   0.060   0.941
 8637WAT      O26152   2.294   2.573   1.299
 8637WAT     H126153   2.259   2.596   1.390
 8637WAT     H226154   2.268   2.480   1.275
 8638WAT      O26155   1.779   3.905   3.096
 8638WAT     H126156   1.751   3.982   3.040
 8638WAT     H226157   1.848   3.851   3.046
 8639WAT      O26158   5.380   5.124   8.373
 8639WAT     H126159   5.440   5.191   8.417
 8639WAT     H226160   5.435   5.048   8.338
 8640WAT      O26161   1.518   0.113   0.601
 8640WAT     H126162   1.460   0.033   0.585
 8640WAT     H226163   1.482   0.191   0.550
 8641WAT      O26164   6.763   3.200   9.826
 8641WAT     H126165   6.801   3.271   9.885
 8641WAT     H226166   6.663   3.209   9.825
 8642WAT      O26167   6.994   0.909   0.787
 8642WAT     H126168   6.904   0.923   0.745
 8642WAT     H226169   7.065   0.932   0.720
 8643WAT      O26170   0.358   0.911   0.585
 8643WAT     H126171   0.336   0.997   0.631
 8643WAT     H226172   0.301   0.901   0.504
 8644WAT      O26173   7.739   8.552   8.982
 8644WAT     H126174   7.801   8.499   8.924
 8644WAT     H226175   7.695   8.624   8.928
 8645WAT      O26176   3.018   3.080   5.663
 8645WAT     H126177   3.009   2.995   5.714
 8645WAT     H226178   2.978   3.155   5.715
 8646WAT      O26179   8.969   9.376   2.508
 8646WAT     H126180   8.900   9.320   2.554
 8646WAT     H226181   8.933   9.406   2.419
 8647WAT      O26182   6.309   9.378   4.495
 8647WAT     H126183   6.307   9.359   4.396
 8647WAT     H226184   6.218   9.361   4.533
 8648WAT      O26185   5.574   0.112   6.281
 8648WAT     H126186   5.523   0.163   6.211
 8648WAT     H226187   5.557   0.014   6.270
 8649WAT      O26188   5.549   6.646   1.138
 8649WAT     H126189   5.509   6.672   1.050
 8649WAT     H226190   5.625   6.706   1.160
 8650WAT      O26191   4.616   1.742   6.764
 8650WAT     H126192   4.687   1.672   6.769
 8650WAT     H226193   4.561   1.728   6.682
 8651WAT      O26194   0.379   4.935   0.570
 8651WAT     H126195   0.322   4.857   0.595
 8651WAT     H226196   0.469   4.903   0.540
 8652WAT      O26197   7.670   5.599   5.236
 8652WAT     H126198   7.710   5.610   5.327
 8652WAT     H226199   7.743   5.599   5.167
 8653WAT      O26200   5.056   0.545   8.982
 8653WAT     H126201   5.151   0.575   8.977
 8653WAT     H226202   5.010   0.564   8.895
 8654WAT      O26203   0.950   6.248   6.910
 8654WAT     H126204   0.864   6.297   6.921
 8654WAT     H226205   0.991   6.272   6.821
 8655WAT      O26206   7.064   6.979   3.843
 8655WAT     H126207   7.006   6.985   3.924
 8655WAT     H226208   7.009   6.947   3.766
 8656WAT      O26209   5.283   9.659   1.792
 8656WAT     H126210   5.365   9.627   1.841
 8656WAT     H226211   5.241   9.582   1.743
 8657WAT      O26212   5.762   3.085   0.760
 8657WAT     H126213   5.704   3.091   0.679
 8657WAT     H226214   5.820   3.166   0.765
 8658WAT      O26215   0.657   4.237   6.608
 8658WAT     H126216   0.709   4.271   6.529
 8658WAT     H226217   0.711   4.248   6.691
 8659WAT      O26218   2.788   8.133   3.228
 8659WAT     H126219   2.827   8.087   3.308
 8659WAT     H226220   2.802   8.076   3.147
 8660WAT      O26221   4.189   8.556   5.683
 8660WAT     H126222   4.157   8.475   5.635
 8660WAT     H226223   4.284   8.576   5.657
 8661WAT      O26224   4.035   2.731   6.531
 8661WAT     H126225   3.953   2.767   6.574
 8661WAT     H226226   4.058   2.643   6.572
 8662WAT      O26227   1.798   6.000   7.465
 8662WAT     H126228   1.750   5.966   7.384
 8662WAT     H226229   1.890   6.031   7.438
 8663WAT      O26230   4.517   8.449   8.818
 8663WAT     H126231   4.607   8.491   8.806
 8663WAT     H226232   4.507   8.420   8.912
 8664WAT      O26233   5.272   9.309   1.443
 8664WAT     H126234   5.190   9.352   1.406
 8664WAT     H226235   5.352   9.364   1.420
 8665WAT      O26236   0.051   5.395   2.009
 8665WAT     H126237   0.076   5.340   2.088
 8665WAT     H226238   0.003   5.338   1.942
 8666WAT      O26239   0.588   1.570   0.931
 8666WAT     H126240   0.657   1.498   0.929
 8666WAT     H226241   0.625   1.654   0.890
 8667WAT      O26242   0.844   4.099   0.102
 8667WAT     H126243   0.922   4.042   0.131
 8667WAT     H226244   0.873   4.194   0.095
 8668WAT      O26245   7.467   8.148   4.101
 8668WAT     H126246   7.450   8.216   4.172
 8668WAT     H226247   7.477   8.194   4.012
 8669WAT      O26248   4.133   1.040   6.528
 8669WAT     H126249   4.226   1.034   6.564
 8669WAT     H226250   4.107   1.136   6.520
 8670WAT      O26251   8.106   3.226   7.629
 8670WAT     H126252   8.123   3.133   7.596
 8670WAT     H226253   8.192   3.266   7.661
 8671WAT      O26254   6.395   1.891   7.849
 8671WAT     H126255   6.399   1.991   7.859
 8671WAT     H226256   6.328   1.854   7.912
 8672WAT      O26257   1.029   7.227   4.218
 8672WAT     H126258   1.062   7.288   4.291
 8672WAT     H226259   1.101   7.216   4.149
 8673WAT      O26260   7.823   2.921   0.086
 8673WAT     H126261   7.765   2.936   0.166
 8673WAT     H226262   7.782   2.850   0.028
 8674WAT      O26263   7.747   2.052   3.731
 8674WAT     H126264   7.759   1.973   3.791
 8674WAT     H226265   7.827   2.111   3.735
 8675WAT      O26266   1.700   2.409   4.182
 8675WAT     H126267   1.643   2.416   4.100
 8675WAT     H226268   1.641   2.403   4.263
 8676WAT      O26269   1.179   4.126   6.829
 8676WAT     H126270   1.166   4.170   6.918
 8676WAT     H226271   1.146   4.031   6.834
 8677WAT      O26272   6.168   6.763   3.905
 8677WAT     H126273   6.128   6.827   3.839
 8677WAT     H226274   6.168   6.671   3.866
 8678WAT      O26275   1.768   7.721   7.635
 8678WAT     H126276   1.730   7.777   7.561
 8678WAT     H226277   1.695   7.694   7.698
 8679WAT      O26278   5.271   1.385   4.183
 8679WAT     H126279   5.230   1.307   4.137
 8679WAT     H226280   5.371   1.380   4.176
 8680WAT      O26281   8.340   4.456   1.886
 8680WAT     H126282   8.308   4.507   1.966
 8680WAT     H226283   8.440   4.449   1.889
 8681WAT      O26284   7.606   9.002   1.342
 8681WAT     H126285   7.615   9.083   1.284
 8681WAT     H226286   7.682   8.939   1.322
 8682WAT      O26287   8.759   6.687   6.627
 8682WAT     H126288   8.825   6.623   6.588
 8682WAT     H226289   8.720   6.647   6.710
 8683WAT      O26290   7.550   7.432   5.388
 8683WAT     H126291   7.553   7.503   5.459
 8683WAT     H226292   7.536   7.475   5.299
 8684WAT      O26293   1.368   4.505   4.213
 8684WAT     H126294   1.413   4.425   4.251
 8684WAT     H226295   1.396   4.587   4.264
 8685WAT      O26296   8.943   0.307   6.408
 8685WAT     H126297   8.913   0.374   6.476
 8685WAT     H226298   9.007   0.351   6.345
 8686WAT      O26299   7.490   3.201   0.271
 8686WAT     H126300   7.460   3.106   0.265
 8686WAT     H226301   7.500   3.239   0.179
 8687WAT      O26302   2.600   6.022   9.616
 8687WAT     H126303   2.663   5.981   9.550
 8687WAT     H226304   2.618   6.120   9.623
 8688WAT      O26305   5.241   0.549   1.838
 8688WAT     H126306   5.339   0.534   1.830
 8688WAT     H226307   5.201   0.557   1.747
 8689WAT      O26308   3.249   4.841   9.609
 8689WAT     H126309   3.254   4.855   9.708
 8689WAT     H226310   3.266   4.745   9.589
 8690WAT      O26311   8.819   2.177   7.582
 8690WAT     H126312   8.775   2.203   7.497
 8690WAT     H226313   8.749   2.157   7.651
 8691WAT      O26314   6.086   3.926   9.082
 8691WAT     H126315   6.067   3.862   9.007
 8691WAT     H226316   6.012   3.993   9.087
 8692WAT      O26317   4.723   0.515   6.553
 8692WAT     H126318   4.728   0.489   6.457
 8692WAT     H226319   4.635   0.559   6.571
 8693WAT      O26320   2.533   1.950   1.394
 8693WAT     H126321   2.604   2.020   1.398
 8693WAT     H226322   2.570   1.867   1.352
 8694WAT      O26323   5.802   8.023   0.623
 8694WAT     H126324   5.774   7.979   0.537
 8694WAT     H226325   5.755   7.979   0.699
 8695WAT      O26326   1.120   7.982   6.925
 8695WAT     H126327   1.196   7.945   6.871
 8695WAT     H226328   1.135   7.961   7.021
 8696WAT      O26329   3.902   4.031   1.022
 8696WAT     H126330   3.963   4.093   0.973
 8696WAT     H226331   3.815   4.078   1.041
 8697WAT      O26332   7.683   4.672   6.324
 8697WAT     H126333   7.735   4.755   6.303
 8697WAT     H226334   7.717   4.597   6.269
 8698WAT      O26335   5.844   5.848   5.541
 8698WAT     H126336   5.867   5.777   5.608
 8698WAT     H226337   5.754   5.886   5.562
 8699WAT      O26338   3.179   7.107   4.782
 8699WAT     H126339   3.143   7.027   4.830
 8699WAT     H226340   3.263   7.139   4.827
 8700WAT      O26341   3.878   7.490   4.436
 8700WAT     H126342   3.905   7.585   4.455
 8700WAT     H226343   3.908   7.464   4.344
 8701WAT      O26344   5.758   8.452   7.636
 8701WAT     H126345   5.739   8.354   7.634
 8701WAT     H226346   5.857   8.467   7.634
 8702WAT      O26347   6.259   3.437   4.787
 8702WAT     H126348   6.323   3.361   4.779
 8702WAT     H226349   6.220   3.439   4.879
 8703WAT      O26350   8.806   2.170   4.527
 8703WAT     H126351   8.868   2.114   4.473
 8703WAT     H226352   8.852   2.255   4.554
 8704WAT      O26353   5.923   1.595   1.717
 8704WAT     H126354   5.938   1.692   1.733
 8704WAT     H226355   5.871   1.556   1.793
 8705WAT      O26356   2.388   3.535   9.001
 8705WAT     H126357   2.453   3.528   8.925
 8705WAT     H226358   2.436   3.567   9.083
 8706WAT      O26359   4.031   7.889   8.692
 8706WAT     H126360   4.116   7.888   8.639
 8706WAT     H226361   3.975   7.967   8.664
 8707WAT      O26362   1.300   9.303   8.300
 8707WAT     H126363   1.300   9.393   8.343
 8707WAT     H226364   1.217   9.292   8.245
 8708WAT      O26365   8.856   9.789   4.868
 8708WAT     H126366   8.767   9.758   4.833
 8708WAT     H226367   8.925   9.719   4.850
 8709WAT      O26368   3.482   2.344   6.194
 8709WAT     H126369   3.524   2.382   6.276
 8709WAT     H226370   3.419   2.270   6.220
 8710WAT      O26371   1.463   9.493   2.227
 8710WAT     H126372   1.375   9.535   2.247
 8710WAT     H226373   1.471   9.479   2.128
 8711WAT      O26374   7.504   8.678   8.475
 8711WAT     H126375   7.515   8.650   8.570
 8711WAT     H226376   7.444   8.759   8.470
 8712WAT      O26377   1.998   5.868   1.042
 8712WAT     H126378   1.939   5.871   0.962
 8712WAT     H226379   1.956   5.920   1.116
 8713WAT      O26380   7.705   6.866   5.309
 8713WAT     H126381   7.804   6.862   5.317
 8713WAT     H226382   7.667   6.774   5.306
 8714WAT      O26383   4.677   2.374   9.413
 8714WAT     H126384   4.737   2.385   9.333
 8714WAT     H226385   4.731   2.379   9.496
 8715WAT      O26386   3.272   8.949   0.911
 8715WAT     H126387   3.183   8.971   0.871
 8715WAT     H226388   3.343   8.962   0.842
 8716WAT      O26389   0.891   8.929   9.527
 8716WAT     H126390   0.972   8.870   9.538
 8716WAT     H226391   0.808   8.873   9.535
 8717WAT      O26392   0.652   6.318   4.403
 8717WAT     H126393   0.663   6.302   4.501
 8717WAT     H226394   0.712   6.256   4.353
 8718WAT      O26395   5.652   3.067   8.838
 8718WAT     H126396   5.691   3.159   8.832
 8718WAT     H226397   5.723   2.999   8.822
 8719WAT      O26398   2.200   8.264   0.647
 8719WAT     H126399   2.106   8.284   0.675
 8719WAT     H226400   2.205   8.170   0.611
 8720WAT      O26401   2.935   8.864   1.117
 8720WAT     H126402   3.010   8.916   1.159
 8720WAT     H226403   2.850   8.882   1.166
 8721WAT      O26404   6.490   5.711   9.463
 8721WAT     H126405   6.490   5.632   9.400
 8721WAT     H226406   6.502   5.678   9.557
 8722WAT      O26407   9.076   8.132   3.751
 8722WAT     H126408   9.062   8.162   3.657
 8722WAT     H226409   9.023   8.049   3.768
 8723WAT      O26410   0.969   8.123   8.685
 8723WAT     H126411   1.053   8.107   8.738
 8723WAT     H226412   0.992   8.175   8.603
 8724WAT      O26413   3.185   8.687   1.046
 8724WAT     H126414   3.236   8.767   1.016
 8724WAT     H226415   3.095   8.715   1.081
 8725WAT      O26416   0.779   2.038   7.031
 8725WAT     H126417   0.796   2.034   7.129
 8725WAT     H226418   0.722   1.960   7.004
 8726WAT      O26419   3.590   7.931   0.938
 8726WAT     H126420   3.598   7.858   1.006
 8726WAT     H226421   3.561   8.016   0.982
 8727WAT      O26422   1.140   0.669   7.714
 8727WAT     H126423   1.070   0.719   7.663
 8727WAT     H226424   1.181   0.730   7.783
 8728WAT      O26425   6.600   2.361   9.371
 8728WAT     H126426   6.627   2.361   9.467
 8728WAT     H226427   6.615   2.452   9.333
 8729WAT      O26428   9.842   2.171   9.515
 8729WAT     H126429   9.866   2.093   9.458
 8729WAT     H226430   9.924   2.205   9.561
 8730WAT      O26431   2.770   4.757   1.785
 8730WAT     H126432   2.709   4.679   1.768
 8730WAT     H226433   2.821   4.778   1.702
 8731WAT      O26434   5.970   5.371   7.941
 8731WAT     H126435   5.877   5.334   7.934
 8731WAT     H226436   5.969   5.468   7.919
 8732WAT      O26437   8.374   6.695   9.025
 8732WAT     H126438   8.285   6.738   9.039
 8732WAT     H226439   8.395   6.636   9.103
 8733WAT      O26440   0.409   7.503   7.438
 8733WAT     H126441   0.444   7.413   7.463
 8733WAT     H226442   0.485   7.568   7.435
 8734WAT      O26443   0.230   5.858   7.980
 8734WAT     H126444   0.324   5.889   7.993
 8734WAT     H226445   0.169   5.937   7.978
 8735WAT      O26446   7.508   4.595   1.230
 8735WAT     H126447   7.416   4.617   1.197
 8735WAT     H226448   7.502   4.552   1.320
 8736WAT      O26449   5.425   8.730   0.134
 8736WAT     H126450   5.376   8.645   0.115
 8736WAT     H226451   5.363   8.797   0.174
 8737WAT      O26452   8.551   3.987   6.542
 8737WAT     H126453   8.625   3.921   6.529
 8737WAT     H226454   8.579   4.076   6.507
 8738WAT      O26455   9.882   0.599   2.250
 8738WAT     H126456   9.979   0.574   2.246
 8738WAT     H226457   9.839   0.581   2.162
 8739WAT      O26458   6.958   2.657   9.284
 8739WAT     H126459   6.956   2.618   9.192
 8739WAT     H226460   7.043   2.709   9.296
 8740WAT      O26461   1.101   3.777   8.950
 8740WAT     H126462   1.088   3.821   9.038
 8740WAT     H226463   1.184   3.812   8.906
 8741WAT      O26464   0.934   7.760   6.830
 8741WAT     H126465   0.986   7.844   6.822
 8741WAT     H226466   0.996   7.681   6.826
 8742WAT      O26467   8.359   6.370   0.672
 8742WAT     H126468   8.429   6.312   0.630
 8742WAT     H226469   8.363   6.462   0.633
 8743WAT      O26470   7.755   5.626   3.862
 8743WAT     H126471   7.693   5.706   3.858
 8743WAT     H226472   7.700   5.543   3.873
 8744WAT      O26473   3.550   2.925   2.201
 8744WAT     H126474   3.487   2.874   2.143
 8744WAT     H226475   3.601   2.990   2.145
 8745WAT      O26476   6.584   6.991   7.598
 8745WAT     H126477   6.633   6.943   7.671
 8745WAT     H226478   6.498   7.028   7.633
 8746WAT      O26479   6.685   3.272   0.995
 8746WAT     H126480   6.616   3.343   0.982
 8746WAT     H226481   6.667   3.222   1.080
 8747WAT      O26482   2.964   4.835   9.482
 8747WAT     H126483   2.897   4.857   9.553
 8747WAT     H226484   3.018   4.917   9.461
 8748WAT      O26485   8.690   0.111   6.809
 8748WAT     H126486   8.641   0.026   6.827
 8748WAT     H226487   8.653   0.184   6.866
 8749WAT      O26488   5.538   7.550   4.032
 8749WAT     H126489   5.555   7.455   4.058
 8749WAT     H226490   5.553   7.560   3.933
 8750WAT      O26491   1.266   0.747   9.733
 8750WAT     H126492   1.245   0.840   9.765
 8750WAT     H226493   1.312   0.752   9.644
 8751WAT      O26494   7.745   9.362   7.244
 8751WAT     H126495   7.813   9.292   7.222
 8751WAT     H226496   7.693   9.385   7.162
 8752WAT      O26497   7.789   4.287   4.892
 8752WAT     H126498   7.821   4.279   4.798
 8752WAT     H226499   7.866   4.273   4.955
 8753WAT      O26500   4.277   7.841   9.249
 8753WAT     H126501   4.212   7.833   9.173
 8753WAT     H226502   4.320   7.931   9.245
 8754WAT      O26503   5.172   9.359   4.188
 8754WAT     H126504   5.270   9.368   4.204
 8754WAT     H226505   5.125   9.440   4.224
 8755WAT      O26506   0.238   4.608   4.147
 8755WAT     H126507   0.192   4.520   4.141
 8755WAT     H226508   0.175   4.681   4.120
 8756WAT      O26509   9.120   5.576   3.227
 8756WAT     H126510   9.083   5.514   3.297
 8756WAT     H226511   9.203   5.537   3.188
 8757WAT      O26512   1.875   6.888   2.062
 8757WAT     H126513   1.822   6.866   2.144
 8757WAT     H226514   1.868   6.986   2.044
 8758WAT      O26515   8.083   1.606   3.777
 8758WAT     H126516   8.113   1.611   3.872
 8758WAT     H226517   8.158   1.571   3.720
 8759WAT      O26518   3.175   4.673   2.484
 8759WAT     H126519   3.145   4.764   2.513
 8759WAT     H226520   3.190   4.616   2.565
 8760WAT      O26521   9.723   7.911   7.894
 8760WAT     H126522   9.662   7.859   7.834
 8760WAT     H226523   9.818   7.891   7.871
 8761WAT      O26524   1.317   3.631   6.240
 8761WAT     H126525   1.316   3.570   6.160
 8761WAT     H226526   1.407   3.674   6.247
 8762WAT      O26527   8.948   3.756   0.377
 8762WAT     H126528   8.979   3.686   0.311
 8762WAT     H226529   8.924   3.711   0.463
 8763WAT      O26530   9.196   7.344   7.582
 8763WAT     H126531   9.276   7.378   7.632
 8763WAT     H226532   9.159   7.418   7.525
 8764WAT      O26533   7.627   0.443   9.592
 8764WAT     H126534   7.542   0.430   9.644
 8764WAT     H226535   7.693   0.493   9.649
 8765WAT      O26536   3.545   6.587   0.273
 8765WAT     H126537   3.551   6.491   0.246
 8765WAT     H226538   3.605   6.643   0.216
 8766WAT      O26539   5.357   0.370   5.700
 8766WAT     H126540   5.280   0.314   5.671
 8766WAT     H226541   5.340   0.465   5.675
 8767WAT      O26542   0.736   7.888   2.456
 8767WAT     H126543   0.715   7.985   2.469
 8767WAT     H226544   0.835   7.874   2.466
 8768WAT      O26545   1.381   4.512   2.635
 8768WAT     H126546   1.463   4.481   2.683
 8768WAT     H226547   1.406   4.579   2.565
 8769WAT      O26548   1.659   1.393   8.560
 8769WAT     H126549   1.622   1.391   8.653
 8769WAT     H226550   1.736   1.329   8.554
 8770WAT      O26551   2.830   0.700   8.161
 8770WAT     H126552   2.905   0.634   8.154
 8770WAT     H226553   2.757   0.674   8.099
 8771WAT      O26554   4.063   3.352   7.349
 8771WAT     H126555   3.963   3.347   7.355
 8771WAT     H226556   4.090   3.356   7.253
 8772WAT      O26557   6.632   6.629   1.702
 8772WAT     H126558   6.603   6.717   1.741
 8772WAT     H226559   6.654   6.642   1.605
 8773WAT      O26560   4.469   5.720   5.179
 8773WAT     H126561   4.543   5.762   5.232
 8773WAT     H226562   4.502   5.699   5.087
 8774WAT      O26563   3.265   2.097   8.224
 8774WAT     H126564   3.257   2.013   8.279
 8774WAT     H226565   3.321   2.078   8.143
 8775WAT      O26566   3.801   9.004   4.222
 8775WAT     H126567   3.886   8.951   4.219
 8775WAT     H226568   3.786   9.049   4.135
 8776WAT      O26569   1.401   3.668   7.953
 8776WAT     H126570   1.435   3.574   7.964
 8776WAT     H226571   1.306   3.665   7.922
 8777WAT      O26572   1.704   5.428   7.211
 8777WAT     H126573   1.677   5.465   7.300
 8777WAT     H226574   1.804   5.428   7.204
 8778WAT      O26575   1.530   2.637   5.205
 8778WAT     H126576   1.490   2.560   5.255
 8778WAT     H226577   1.617   2.662   5.247
 8779WAT      O26578   0.286   5.866   3.284
 8779WAT     H126579   0.276   5.965   3.282
 8779WAT     H226580   0.331   5.834   3.200
 8780WAT      O26581   9.156   1.429   5.409
 8780WAT     H126582   9.098   1.396   5.483
 8780WAT     H226583   9.105   1.429   5.324
 8781WAT      O26584   5.330   1.038   6.659
 8781WAT     H126585   5.334   1.138   6.647
 8781WAT     H226586   5.286   0.997   6.580
 8782WAT      O26587   7.646   0.843   0.776
 8782WAT     H126588   7.697   0.827   0.691
 8782WAT     H226589   7.614   0.755   0.812
 8783WAT      O26590   3.743   1.453   4.514
 8783WAT     H126591   3.781   1.543   4.536
 8783WAT     H226592   3.678   1.427   4.585
 8784WAT      O26593   8.913   8.927   6.445
 8784WAT     H126594   8.840   8.918   6.513
 8784WAT     H226595   8.943   9.022   6.441
 8785WAT      O26596   8.026   4.951   0.969
 8785WAT     H126597   7.928   4.957   0.985
 8785WAT     H226598   8.076   4.983   1.049
 8786WAT      O26599   4.293   7.975   9.504
 8786WAT     H126600   4.339   7.901   9.455
 8786WAT     H226601   4.256   7.940   9.590
 8787WAT      O26602   1.968   4.533   6.077
 8787WAT     H126603   2.030   4.533   5.998
 8787WAT     H226604   1.906   4.455   6.071
 8788WAT      O26605   1.865   3.347   9.688
 8788WAT     H126606   1.894   3.251   9.676
 8788WAT     H226607   1.868   3.370   9.786
 8789WAT      O26608   0.194   8.400   1.923
 8789WAT     H126609   0.118   8.453   1.962
 8789WAT     H226610   0.250   8.364   1.998
 8790WAT      O26611   1.975   5.450   5.427
 8790WAT     H126612   1.977   5.484   5.333
 8790WAT     H226613   2.033   5.368   5.434
 8791WAT      O26614   6.857   2.067   5.147
 8791WAT     H126615   6.838   1.993   5.212
 8791WAT     H226616   6.942   2.112   5.172
 8792WAT      O26617   9.509   8.377   9.380
 8792WAT     H126618   9.544   8.470   9.372
 8792WAT     H226619   9.507   8.350   9.476
 8793WAT      O26620   6.231   5.772   1.349
 8793WAT     H126621   6.164   5.831   1.393
 8793WAT     H226622   6.259   5.699   1.412
 8794WAT      O26623   3.638   6.961   9.444
 8794WAT     H126624   3.592   7.011   9.518
 8794WAT     H226625   3.611   6.999   9.356
 8795WAT      O26626   2.555   4.291   9.511
 8795WAT     H126627   2.569   4.217   9.444
 8795WAT     H226628   2.574   4.379   9.467
 8796WAT      O26629   7.972   6.418   9.297
 8796WAT     H126630   7.974   6.411   9.397
 8796WAT     H226631   7.981   6.515   9.271
 8797WAT      O26632   7.458   9.460   4.877
 8797WAT     H126633   7.424   9.378   4.830
 8797WAT     H226634   7.551   9.444   4.909
 8798WAT      O26635   4.579   5.755   1.428
 8798WAT     H126636   4.607   5.704   1.347
 8798WAT     H226637   4.486   5.788   1.416
 8799WAT      O26638   9.517   8.784   1.137
 8799WAT     H126639   9.542   8.799   1.041
 8799WAT     H226640   9.551   8.861   1.192
 8800WAT      O26641   4.322   2.990   6.884
 8800WAT     H126642   4.349   3.008   6.789
 8800WAT     H226643   4.353   3.064   6.942
 8801WAT      O26644   1.988   3.707   0.188
 8801WAT     H126645   2.020   3.797   0.220
 8801WAT     H226646   1.976   3.709   0.089
 8802WAT      O26647   1.036   3.735   8.678
 8802WAT     H126648   1.090   3.807   8.635
 8802WAT     H226649   1.051   3.737   8.777
 8803WAT      O26650   2.212   6.909   3.232
 8803WAT     H126651   2.132   6.907   3.172
 8803WAT     H226652   2.206   6.989   3.292
 8804WAT      O26653   3.119   6.849   5.880
 8804WAT     H126654   3.074   6.770   5.838
 8804WAT     H226655   3.218   6.837   5.876
 8805WAT      O26656   5.893   4.987   8.899
 8805WAT     H126657   5.874   4.890   8.912
 8805WAT     H226658   5.889   5.009   8.801
 8806WAT      O26659   3.362   6.088   8.577
 8806WAT     H126660   3.426   6.066   8.650
 8806WAT     H226661   3.284   6.139   8.614
 8807WAT      O26662   6.256   8.664   1.232
 8807WAT     H126663   6.206   8.751   1.224
 8807WAT     H226664   6.255   8.634   1.327
 8808WAT      O26665   8.336   0.607   3.094
 8808WAT     H126666   8.427   0.603   3.135
 8808WAT     H226667   8.289   0.521   3.110
 8809WAT      O26668   5.424   1.987   9.135
 8809WAT     H126669   5.340   1.935   9.120
 8809WAT     H226670   5.417   2.076   9.090
 8810WAT      O26671   7.616   1.368   4.225
 8810WAT     H126672   7.548   1.433   4.259
 8810WAT     H226673   7.707   1.408   4.235
 8811WAT      O26674   1.586   1.733   0.547
 8811WAT     H126675   1.658   1.683   0.499
 8811WAT     H226676   1.566   1.818   0.498
 8812WAT      O26677   4.524   0.728   2.314
 8812WAT     H126678   4.494   0.805   2.257
 8812WAT     H226679   4.447   0.666   2.330
 8813WAT      O26680   6.832   6.704   3.451
 8813WAT     H126681   6.869   6.796   3.463
 8813WAT     H226682   6.892   6.652   3.391
 8814WAT      O26683   9.172   2.782   1.861
 8814WAT     H126684   9.094   2.799   1.800
 8814WAT     H226685   9.257   2.799   1.812
 8815WAT      O26686   8.065   8.003   1.568
 8815WAT     H126687   8.011   8.055   1.500
 8815WAT     H226688   8.098   8.066   1.638
 8816WAT      O26689   9.101   8.877   6.717
 8816WAT     H126690   9.183   8.876   6.660
 8816WAT     H226691   9.051   8.791   6.705
 8817WAT      O26692   9.248   3.916   2.369
 8817WAT     H126693   9.288   3.868   2.291
 8817WAT     H226694   9.248   3.855   2.449
 8818WAT      O26695   8.156   2.166   7.246
 8818WAT     H126696   8.230   2.169   7.313
 8818WAT     H226697   8.081   2.111   7.283
 8819WAT      O26698   9.008   3.550   2.025
 8819WAT     H126699   8.996   3.474   1.961
 8819WAT     H226700   9.094   3.540   2.074
 8820WAT      O26701   1.443   0.187   7.458
 8820WAT     H126702   1.346   0.208   7.447
 8820WAT     H226703   1.467   0.193   7.555
 8821WAT      O26704   4.987   3.472   6.745
 8821WAT     H126705   5.069   3.417   6.758
 8821WAT     H226706   4.910   3.413   6.722
 8822WAT      O26707   6.128   3.758   1.076
 8822WAT     H126708   6.054   3.696   1.047
 8822WAT     H226709   6.184   3.712   1.146
 8823WAT      O26710   2.845   8.669   9.830
 8823WAT     H126711   2.785   8.748   9.847
 8823WAT     H226712   2.799   8.585   9.859
 8824WAT      O26713   2.690   1.150   7.406
 8824WAT     H126714   2.737   1.139   7.493
 8824WAT     H226715   2.592   1.166   7.422
 8825WAT      O26716   2.769   0.487   5.504
 8825WAT     H126717   2.767   0.389   5.484
 8825WAT     H226718   2.859   0.524   5.479
 8826WAT      O26719   2.101   7.739   6.587
 8826WAT     H126720   2.014   7.731   6.636
 8826WAT     H226721   2.171   7.685   6.634
 8827WAT      O26722   8.680   3.213   5.318
 8827WAT     H126723   8.695   3.114   5.313
 8827WAT     H226724   8.595   3.236   5.271
 8828WAT      O26725   7.927   2.097   2.509
 8828WAT     H126726   7.962   2.162   2.577
 8828WAT     H226727   7.994   2.024   2.495
 8829WAT      O26728   9.634   7.900   7.081
 8829WAT     H126729   9.670   7.971   7.020
 8829WAT     H226730   9.538   7.882   7.057
 8830WAT      O26731   6.631   9.138   1.155
 8830WAT     H126732   6.560   9.141   1.084
 8830WAT     H226733   6.625   9.050   1.203
 8831WAT      O26734   1.210   5.266   4.990
 8831WAT     H126735   1.230   5.209   5.069
 8831WAT     H226736   1.279   5.250   4.919
 8832WAT      O26737   7.536   2.838   4.338
 8832WAT     H126738   7.462   2.798   4.284
 8832WAT     H226739   7.624   2.812   4.298
 8833WAT      O26740   0.808   1.035   0.559
 8833WAT     H126741   0.854   0.970   0.498
 8833WAT     H226742   0.732   0.990   0.605
 8834WAT      O26743   5.519   0.723   9.782
 8834WAT     H126744   5.592   0.686   9.839
 8834WAT     H226745   5.511   0.821   9.798
 8835WAT      O26746   2.571   4.815   2.266
 8835WAT     H126747   2.597   4.880   2.194
 8835WAT     H226748   2.649   4.758   2.290
 8836WAT      O26749   1.634   7.059   0.656
 8836WAT     H126750   1.676   7.001   0.725
 8836WAT     H226751   1.590   7.002   0.586
 8837WAT      O26752   0.981   8.961   0.656
 8837WAT     H126753   1.073   8.922   0.651
 8837WAT     H226754   0.918   8.906   0.600
 8838WAT      O26755   8.141   6.987   3.208
 8838WAT     H126756   8.143   6.926   3.288
 8838WAT     H226757   8.131   7.082   3.239
 8839WAT      O26758   4.665   9.268   3.468
 8839WAT     H126759   4.623   9.348   3.424
 8839WAT     H226760   4.617   9.185   3.440
 8840WAT      O26761   2.544   4.549   9.692
 8840WAT     H126762   2.631   4.554   9.643
 8840WAT     H226763   2.537   4.627   9.755
 8841WAT      O26764   0.103   6.587   6.521
 8841WAT     H126765   0.178   6.620   6.577
 8841WAT     H226766   0.137   6.561   6.431
 8842WAT      O26767   4.556   1.144   0.694
 8842WAT     H126768   4.485   1.098   0.640
 8842WAT     H226769   4.631   1.171   0.634
 8843WAT      O26770   0.089   4.408   5.858
 8843WAT     H126771   0.106   4.335   5.793
 8843WAT     H226772   0.160   4.478   5.850
 8844WAT      O26773   0.293   2.374   8.206
 8844WAT     H126774   0.316   2.278   8.195
 8844WAT     H226775   0.196   2.383   8.227
 8845WAT      O26776   3.576   1.371   3.195
 8845WAT     H126777   3.548   1.415   3.110
 8845WAT     H226778   3.620   1.439   3.254
 8846WAT      O26779   9.775   5.374   6.156
 8846WAT     H126780   9.819   5.305   6.099
 8846WAT     H226781   9.676   5.368   6.146
 8847WAT      O26782   4.495   2.203   7.994
 8847WAT     H126783   4.498   2.270   8.068
 8847WAT     H226784   4.577   2.145   7.997
 8848WAT      O26785   7.490   3.804   5.852
 8848WAT     H126786   7.518   3.747   5.928
 8848WAT     H226787   7.439   3.883   5.887
 8849WAT      O26788   6.204   3.934   7.324
 8849WAT     H126789   6.239   3.858   7.270
 8849WAT     H226790   6.213   4.019   7.272
 8850WAT      O26791   1.741   0.448   8.595
 8850WAT     H126792   1.646   0.467   8.622
 8850WAT     H226793   1.777   0.374   8.651
 8851WAT      O26794   0.563   3.546   7.718
 8851WAT     H126795   0.649   3.568   7.765
 8851WAT     H226796   0.514   3.475   7.768
 8852WAT      O26797   6.768   1.665   7.150
 8852WAT     H126798   6.766   1.760   7.119
 8852WAT     H226799   6.856   1.624   7.127
 8853WAT      O26800   9.074   5.582   8.388
 8853WAT     H126801   9.092   5.663   8.445
 8853WAT     H226802   8.981   5.549   8.406
 8854WAT      O26803   3.108   6.707   3.453
 8854WAT     H126804   3.056   6.760   3.521
 8854WAT     H226805   3.062   6.713   3.365
 8855WAT      O26806   0.219   6.535   7.241
 8855WAT     H126807   0.142   6.482   7.206
 8855WAT     H226808   0.217   6.534   7.341
 8856WAT      O26809   5.791   9.407   9.213
 8856WAT     H126810   5.866   9.404   9.279
 8856WAT     H226811   5.790   9.496   9.168
 8857WAT      O26812   9.091   2.601   2.693
 8857WAT     H126813   9.094   2.695   2.727
 8857WAT     H226814   9.124   2.538   2.764
 8858WAT      O26815   4.524   9.826   8.337
 8858WAT     H126816   4.472   9.909   8.358
 8858WAT     H226817   4.586   9.806   8.413
 8859WAT      O26818   4.357   0.437   8.253
 8859WAT     H126819   4.283   0.498   8.225
 8859WAT     H226820   4.443   0.488   8.253
 8860WAT      O26821   4.913   9.555   6.785
 8860WAT     H126822   4.968   9.591   6.860
 8860WAT     H226823   4.888   9.630   6.723
 8861WAT      O26824   5.034   1.137   8.105
 8861WAT     H126825   5.012   1.167   8.012
 8861WAT     H226826   5.040   1.216   8.166
 8862WAT      O26827   9.300   4.826   1.187
 8862WAT     H126828   9.244   4.857   1.109
 8862WAT     H226829   9.362   4.900   1.215
 8863WAT      O26830   8.110   4.250   3.670
 8863WAT     H126831   8.026   4.277   3.623
 8863WAT     H226832   8.168   4.198   3.608
 8864WAT      O26833   7.803   6.925   8.000
 8864WAT     H126834   7.885   6.893   8.046
 8864WAT     H226835   7.778   6.862   7.927
 8865WAT      O26836   2.286   3.718   8.506
 8865WAT     H126837   2.304   3.785   8.434
 8865WAT     H226838   2.205   3.665   8.482
 8866WAT      O26839   0.410   4.828   3.929
 8866WAT     H126840   0.346   4.759   3.895
 8866WAT     H226841   0.404   4.832   4.028
 8867WAT      O26842   4.505   8.807   7.740
 8867WAT     H126843   4.444   8.847   7.672
 8867WAT     H226844   4.566   8.742   7.696
 8868WAT      O26845   6.417   7.855   7.209
 8868WAT     H126846   6.465   7.941   7.191
 8868WAT     H226847   6.344   7.871   7.275
 8869WAT      O26848   5.923   8.875   0.626
 8869WAT     H126849   6.001   8.937   0.623
 8869WAT     H226850   5.838   8.928   0.627
 8870WAT      O26851   8.509   8.148   6.482
 8870WAT     H126852   8.545   8.108   6.566
 8870WAT     H226853   8.461   8.233   6.503
 8871WAT      O26854   8.168   5.510   3.989
 8871WAT     H126855   8.139   5.436   4.049
 8871WAT     H226856   8.135   5.494   3.896
 8872WAT      O26857   6.274   4.091   9.707
 8872WAT     H126858   6.363   4.046   9.694
 8872WAT     H226859   6.272   4.176   9.654
 8873WAT      O26860   0.778   1.814   2.316
 8873WAT     H126861   0.798   1.815   2.414
 8873WAT     H226862   0.852   1.769   2.266
 8874WAT      O26863   7.740   2.714   3.215
 8874WAT     H126864   7.835   2.681   3.224
 8874WAT     H226865   7.696   2.667   3.139
 8875WAT      O26866   4.269   7.212   0.240
 8875WAT     H126867   4.345   7.153   0.265
 8875WAT     H226868   4.198   7.158   0.196
 8876WAT      O26869   7.715   6.611   5.024
 8876WAT     H126870   7.625   6.645   4.998
 8876WAT     H226871   7.705   6.533   5.086
 8877WAT      O26872   6.218   6.913   3.001
 8877WAT     H126873   6.176   6.837   3.052
 8877WAT     H226874   6.291   6.877   2.943
 8878WAT      O26875   9.288   5.236   4.256
 8878WAT     H126876   9.262   5.233   4.159
 8878WAT     H226877   9.258   5.151   4.300
 8879WAT      O26878   3.666   2.449   1.026
 8879WAT     H126879   3.717   2.371   0.988
 8879WAT     H226880   3.714   2.483   1.107
 8880WAT      O26881   8.047   1.606   5.716
 8880WAT     H126882   8.124   1.670   5.722
 8880WAT     H226883   8.050   1.560   5.627
 8881WAT      O26884   3.472   9.082   8.424
 8881WAT     H126885   3.486   9.047   8.331
 8881WAT     H226886   3.377   9.068   8.450
 8882WAT      O26887   2.899   2.351   5.499
 8882WAT     H126888   2.982   2.308   5.534
 8882WAT     H226889   2.890   2.332   5.402
 8883WAT      O26890   3.818   8.533   2.791
 8883WAT     H126891   3.814   8.451   2.848
 8883WAT     H226892   3.798   8.613   2.846
 8884WAT      O26893   8.204   4.898   6.750
 8884WAT     H126894   8.114   4.926   6.784
 8884WAT     H226895   8.198   4.804   6.716
 8885WAT      O26896   8.780   7.324   8.610
 8885WAT     H126897   8.848   7.314   8.683
 8885WAT     H226898   8.716   7.247   8.614
 8886WAT      O26899   7.118   7.731   0.493
 8886WAT     H126900   7.143   7.816   0.539
 8886WAT     H226901   7.036   7.746   0.438
 8887WAT      O26902   7.621   5.358   3.906
 8887WAT     H126903   7.680   5.337   3.984
 8887WAT     H226904   7.608   5.275   3.851
 8888WAT      O26905   8.150   2.743   0.993
 8888WAT     H126906   8.057   2.766   1.021
 8888WAT     H226907   8.160   2.644   0.987
 8889WAT      O26908   1.498   5.632   4.855
 8889WAT     H126909   1.406   5.620   4.892
 8889WAT     H226910   1.556   5.678   4.922
 8890WAT      O26911   7.304   3.883   5.260
 8890WAT     H126912   7.330   3.790   5.286
 8890WAT     H226913   7.380   3.926   5.210
 8891WAT      O26914   9.117   2.404   8.738
 8891WAT     H126915   9.111   2.458   8.654
 8891WAT     H226916   9.213   2.393   8.764
 8892WAT      O26917   2.612   8.284   4.331
 8892WAT     H126918   2.651   8.279   4.423
 8892WAT     H226919   2.550   8.206   4.316
 8893WAT      O26920   7.361   3.025   2.436
 8893WAT     H126921   7.426   3.094   2.403
 8893WAT     H226922   7.383   2.936   2.396
 8894WAT      O26923   5.533   9.707   1.648
 8894WAT     H126924   5.619   9.724   1.696
 8894WAT     H226925   5.477   9.790   1.650
 8895WAT      O26926   5.257   0.083   2.937
 8895WAT     H126927   5.307   0.084   2.850
 8895WAT     H226928   5.160   0.098   2.920
 8896WAT      O26929   4.806   9.534   2.461
 8896WAT     H126930   4.888   9.507   2.409
 8896WAT     H226931   4.800   9.633   2.465
 8897WAT      O26932   5.849   5.223   9.517
 8897WAT     H126933   5.753   5.241   9.537
 8897WAT     H226934   5.883   5.152   9.578
 8898WAT      O26935   4.320   5.660   3.684
 8898WAT     H126936   4.275   5.597   3.747
 8898WAT     H226937   4.309   5.627   3.591
 8899WAT      O26938   4.221   9.162   4.791
 8899WAT     H126939   4.318   9.145   4.805
 8899WAT     H226940   4.203   9.260   4.797
 8900WAT      O26941   3.980   0.933   3.487
 8900WAT     H126942   3.909   0.961   3.423
 8900WAT     H226943   4.068   0.928   3.440
 8901WAT      O26944   6.781   2.861   0.914
 8901WAT     H126945   6.836   2.838   0.833
 8901WAT     H226946   6.723   2.782   0.938
 8902WAT      O26947   6.578   5.479   0.134
 8902WAT     H126948   6.492   5.480   0.084
 8902WAT     H226949   6.602   5.573   0.161
 8903WAT      O26950   2.912   4.262   5.823
 8903WAT     H126951   2.906   4.199   5.901
 8903WAT     H226952   2.853   4.341   5.839
 8904WAT      O26953   8.617   0.283   5.589
 8904WAT     H126954   8.696   0.314   5.535
 8904WAT     H226955   8.533   0.301   5.539
 8905WAT      O26956   7.848   9.311   0.290
 8905WAT     H126957   7.939   9.287   0.324
 8905WAT     H226958   7.858   9.367   0.208
 8906WAT      O26959   9.552   1.510   3.903
 8906WAT     H126960   9.639   1.542   3.939
 8906WAT     H226961   9.521   1.573   3.831
 8907WAT      O26962   2.035   4.009   2.756
 8907WAT     H126963   2.130   3.997   2.728
 8907WAT     H226964   1.981   4.039   2.677
 8908WAT      O26965   0.512   0.963   6.128
 8908WAT     H126966   0.425   0.990   6.168
 8908WAT     H226967   0.532   1.022   6.050
 8909WAT      O26968   2.012   8.465   8.266
 8909WAT     H126969   1.916   8.487   8.282
 8909WAT     H226970   2.039   8.496   8.175
 8910WAT      O26971   3.575   3.865   2.201
 8910WAT     H126972   3.632   3.947   2.208
 8910WAT     H226973   3.617   3.791   2.253
 8911WAT      O26974   5.251   6.772   1.071
 8911WAT     H126975   5.318   6.770   0.996
 8911WAT     H226976   5.213   6.680   1.083
 8912WAT      O26977   5.067   9.280   5.147
 8912WAT     H126978   4.981   9.235   5.126
 8912WAT     H226979   5.061   9.376   5.122
 8913WAT      O26980   7.743   3.271   2.521
 8913WAT     H126981   7.708   3.355   2.563
 8913WAT     H226982   7.832   3.290   2.479
 8914WAT      O26983   9.778   1.428   2.121
 8914WAT     H126984   9.692   1.397   2.162
 8914WAT     H226985   9.762   1.514   2.073
 8915WAT      O26986   4.184   3.877   5.106
 8915WAT     H126987   4.125   3.844   5.179
 8915WAT     H226988   4.233   3.799   5.065
 8916WAT      O26989   5.315   6.931   3.701
 8916WAT     H126990   5.256   6.883   3.766
 8916WAT     H226991   5.366   7.002   3.748
 8917WAT      O26992   0.520   0.048   3.607
 8917WAT     H126993   0.618   0.036   3.592
 8917WAT     H226994   0.504   0.132   3.659
 8918WAT      O26995   1.899   2.153   8.416
 8918WAT     H126996   1.870   2.077   8.474
 8918WAT     H226997   1.905   2.237   8.471
 8919WAT      O26998   9.734   3.135   1.233
 8919WAT     H126999   9.643   3.110   1.266
 8919WAT     H227000   9.799   3.061   1.254
 8920WAT      O27001   4.856   1.804   3.583
 8920WAT     H127002   4.790   1.878   3.572
 8920WAT     H227003   4.876   1.764   3.494
 8921WAT      O27004   5.763   8.049   4.437
 8921WAT     H127005   5.861   8.037   4.420
 8921WAT     H227006   5.741   8.013   4.527
 8922WAT      O27007   5.321   9.611   3.614
 8922WAT     H127008   5.337   9.582   3.519
 8922WAT     H227009   5.334   9.533   3.675
 8923WAT      O27010   1.445   8.283   9.283
 8923WAT     H127011   1.399   8.207   9.328
 8923WAT     H227012   1.423   8.282   9.185
 8924WAT      O27013   8.342   2.696   4.650
 8924WAT     H127014   8.267   2.631   4.639
 8924WAT     H227015   8.324   2.754   4.730
 8925WAT      O27016   3.264   4.735   4.700
 8925WAT     H127017   3.281   4.661   4.634
 8925WAT     H227018   3.320   4.719   4.782
 8926WAT      O27019   8.667   8.421   2.460
 8926WAT     H127020   8.685   8.514   2.428
 8926WAT     H227021   8.593   8.422   2.527
 8927WAT      O27022   4.252   6.305   4.660
 8927WAT     H127023   4.213   6.234   4.602
 8927WAT     H227024   4.205   6.392   4.644
 8928WAT      O27025   2.900   1.572   9.515
 8928WAT     H127026   2.976   1.595   9.454
 8928WAT     H227027   2.824   1.635   9.500
 8929WAT      O27028   2.821   8.583   7.191
 8929WAT     H127029   2.734   8.602   7.146
 8929WAT     H227030   2.895   8.589   7.124
 8930WAT      O27031   8.121   7.304   4.254
 8930WAT     H127032   8.103   7.281   4.159
 8930WAT     H227033   8.219   7.297   4.272
 8931WAT      O27034   5.119   2.513   7.121
 8931WAT     H127035   5.094   2.537   7.215
 8931WAT     H227036   5.147   2.417   7.118
 8932WAT      O27037   3.940   8.828   3.527
 8932WAT     H127038   3.849   8.802   3.495
 8932WAT     H227039   4.009   8.784   3.469
 8933WAT      O27040   1.398   3.584   0.410
 8933WAT     H127041   1.494   3.559   0.395
 8933WAT     H227042   1.341   3.502   0.404
 8934WAT      O27043   4.394   0.773   8.176
 8934WAT     H127044   4.433   0.842   8.115
 8934WAT     H227045   4.457   0.695   8.182
 8935WAT      O27046   8.669   2.930   5.252
 8935WAT     H127047   8.623   2.925   5.163
 8935WAT     H227048   8.630   2.861   5.313
 8936WAT      O27049   6.545   1.417   6.604
 8936WAT     H127050   6.555   1.358   6.684
 8936WAT     H227051   6.495   1.368   6.532
 8937WAT      O27052   3.849   7.003   8.763
 8937WAT     H127053   3.860   7.068   8.837
 8937WAT     H227054   3.861   7.050   8.675
 8938WAT      O27055   8.814   7.560   5.987
 8938WAT     H127056   8.834   7.601   6.076
 8938WAT     H227057   8.718   7.576   5.964
 8939WAT      O27058   8.937   7.063   7.983
 8939WAT     H127059   8.943   7.126   7.905
 8939WAT     H227060   8.975   6.974   7.956
 8940WAT      O27061   2.033   6.288   8.485
 8940WAT     H127062   2.006   6.277   8.581
 8940WAT     H227063   2.133   6.286   8.478
 8941WAT      O27064   9.705   5.160   5.040
 8941WAT     H127065   9.675   5.219   5.115
 8941WAT     H227066   9.627   5.137   4.982
 8942WAT      O27067   8.731   7.230   5.776
 8942WAT     H127068   8.718   7.132   5.759
 8942WAT     H227069   8.702   7.282   5.696
 8943WAT      O27070   9.445   2.072   2.311
 8943WAT     H127071   9.406   2.109   2.227
 8943WAT     H227072   9.542   2.053   2.297
 8944WAT      O27073   4.500   9.728   6.912
 8944WAT     H127074   4.402   9.731   6.932
 8944WAT     H227075   4.540   9.645   6.952
 8945WAT      O27076   0.958   2.289   0.249
 8945WAT     H127077   0.922   2.252   0.335
 8945WAT     H227078   0.958   2.217   0.180
 8946WAT      O27079   5.909   0.403   9.858
 8946WAT     H127080   5.898   0.383   9.955
 8946WAT     H227081   6.003   0.430   9.840
 8947WAT      O27082   1.641   6.423   4.994
 8947WAT     H127083   1.645   6.522   5.010
 8947WAT     H227084   1.675   6.376   5.076
 8948WAT      O27085   0.493   0.988   4.956
 8948WAT     H127086   0.464   0.980   4.861
 8948WAT     H227087   0.579   1.038   4.961
 8949WAT      O27088   1.590   3.167   8.380
 8949WAT     H127089   1.647   3.238   8.338
 8949WAT     H227090   1.649   3.101   8.428
 8950WAT      O27091   6.473   7.093   1.882
 8950WAT     H127092   6.505   7.187   1.895
 8950WAT     H227093   6.377   7.087   1.908
 8951WAT      O27094   5.853   4.592   0.333
 8951WAT     H127095   5.770   4.642   0.309
 8951WAT     H227096   5.832   4.526   0.405
 8952WAT      O27097   2.573   5.449   4.900
 8952WAT     H127098   2.572   5.358   4.859
 8952WAT     H227099   2.630   5.511   4.845
 8953WAT      O27100   2.946   0.053   0.542
 8953WAT     H127101   2.895  -0.014   0.488
 8953WAT     H227102   2.949   0.023   0.637
 8954WAT      O27103   0.166   2.226   2.296
 8954WAT     H127104   0.218   2.145   2.323
 8954WAT     H227105   0.196   2.304   2.351
 8955WAT      O27106   3.043   4.535   4.535
 8955WAT     H127107   3.045   4.491   4.625
 8955WAT     H227108   3.131   4.523   4.490
 8956WAT      O27109   1.778   0.610   4.077
 8956WAT     H127110   1.849   0.549   4.113
 8956WAT     H227111   1.820   0.696   4.048
 8957WAT      O27112   9.228   1.057   9.619
 8957WAT     H127113   9.283   0.975   9.604
 8957WAT     H227114   9.131   1.035   9.607
 8958WAT      O27115   0.911   1.170   0.807
 8958WAT     H127116   1.010   1.160   0.822
 8958WAT     H227117   0.888   1.136   0.716
 8959WAT      O27118   9.289   9.306   3.549
 8959WAT     H127119   9.308   9.218   3.506
 8959WAT     H227120   9.250   9.368   3.481
 8960WAT      O27121   9.531   0.731   8.468
 8960WAT     H127122   9.471   0.782   8.407
 8960WAT     H227123   9.480   0.699   8.548
 8961WAT      O27124   9.138   5.556   6.281
 8961WAT     H127125   9.081   5.592   6.208
 8961WAT     H227126   9.090   5.565   6.368
 8962WAT      O27127   6.703   3.026   3.864
 8962WAT     H127128   6.639   3.101   3.884
 8962WAT     H227129   6.766   3.015   3.941
 8963WAT      O27130   2.871   5.870   5.384
 8963WAT     H127131   2.845   5.933   5.311
 8963WAT     H227132   2.791   5.815   5.411
 8964WAT      O27133   7.202   6.020   1.814
 8964WAT     H127134   7.175   6.093   1.877
 8964WAT     H227135   7.302   6.018   1.807
 8965WAT      O27136   2.205   4.628   0.995
 8965WAT     H127137   2.152   4.595   0.916
 8965WAT     H227138   2.303   4.617   0.975
 8966WAT      O27139   9.752   8.289   2.486
 8966WAT     H127140   9.844   8.304   2.523
 8966WAT     H227141   9.756   8.219   2.414
 8967WAT      O27142   5.791   7.863   3.119
 8967WAT     H127143   5.835   7.948   3.087
 8967WAT     H227144   5.705   7.886   3.165
 8968WAT      O27145   7.501   0.081   2.384
 8968WAT     H127146   7.595   0.085   2.418
 8968WAT     H227147   7.441   0.050   2.457
 8969WAT      O27148   3.532   4.351   6.893
 8969WAT     H127149   3.469   4.428   6.905
 8969WAT     H227150   3.623   4.385   6.869
 8970WAT      O27151   4.851   5.664   2.201
 8970WAT     H127152   4.796   5.747   2.188
 8970WAT     H227153   4.855   5.613   2.116
 8971WAT      O27154   1.813   7.854   2.712
 8971WAT     H127155   1.740   7.902   2.761
 8971WAT     H227156   1.787   7.844   2.616
 8972WAT      O27157   0.371   8.462   9.485
 8972WAT     H127158   0.372   8.387   9.551
 8972WAT     H227159   0.276   8.491   9.469
 8973WAT      O27160   4.631   9.136   5.643
 8973WAT     H127161   4.554   9.175   5.693
 8973WAT     H227162   4.703   9.111   5.708
 8974WAT      O27163   4.635   0.160   7.006
 8974WAT     H127164   4.588   0.089   6.953
 8974WAT     H227165   4.602   0.158   7.101
 8975WAT      O27166   3.890   5.360   3.797
 8975WAT     H127167   3.809   5.331   3.746
 8975WAT     H227168   3.929   5.441   3.753
 8976WAT      O27169   4.980   9.007   8.549
 8976WAT     H127170   5.024   8.991   8.461
 8976WAT     H227171   5.048   9.039   8.615
 8977WAT      O27172   3.933   9.481   7.001
 8977WAT     H127173   3.834   9.477   7.013
 8977WAT     H227174   3.978   9.456   7.088
 8978WAT      O27175   6.156   3.541   1.471
 8978WAT     H127176   6.113   3.627   1.497
 8978WAT     H227177   6.098   3.465   1.499
 8979WAT      O27178   1.042   0.340   7.769
 8979WAT     H127179   1.067   0.437   7.771
 8979WAT     H227180   0.992   0.317   7.852
 8980WAT      O27181   0.937   7.061   5.833
 8980WAT     H127182   1.020   7.096   5.877
 8980WAT     H227183   0.952   6.967   5.803
 8981WAT      O27184   0.984   2.143   4.411
 8981WAT     H127185   0.930   2.069   4.452
 8981WAT     H227186   1.076   2.109   4.389
 8982WAT      O27187   4.731   4.412   4.443
 8982WAT     H127188   4.786   4.408   4.526
 8982WAT     H227189   4.651   4.353   4.453
 8983WAT      O27190   3.455   6.833   6.353
 8983WAT     H127191   3.439   6.928   6.327
 8983WAT     H227192   3.540   6.827   6.406
 8984WAT      O27193   1.259   3.989   7.270
 8984WAT     H127194   1.169   3.945   7.263
 8984WAT     H227195   1.251   4.074   7.322
 8985WAT      O27196   7.869   5.294   5.467
 8985WAT     H127197   7.821   5.216   5.506
 8985WAT     H227198   7.903   5.271   5.376
 8986WAT      O27199   7.928   2.618   6.798
 8986WAT     H127200   8.013   2.641   6.846
 8986WAT     H227201   7.885   2.539   6.843
 8987WAT      O27202   3.477   4.386   3.511
 8987WAT     H127203   3.381   4.368   3.529
 8987WAT     H227204   3.533   4.317   3.557
 8988WAT      O27205   2.020   9.069   6.911
 8988WAT     H127206   2.025   9.088   6.813
 8988WAT     H227207   2.100   9.016   6.939
 8989WAT      O27208   7.661   9.156   7.443
 8989WAT     H127209   7.650   9.073   7.389
 8989WAT     H227210   7.688   9.231   7.383
 8990WAT      O27211   8.628   3.230   2.074
 8990WAT     H127212   8.725   3.248   2.091
 8990WAT     H227213   8.618   3.179   1.989
 8991WAT      O27214   6.145   4.532   6.260
 8991WAT     H127215   6.206   4.489   6.326
 8991WAT     H227216   6.108   4.617   6.300
 8992WAT      O27217   9.866   6.724   6.788
 8992WAT     H127218   9.831   6.709   6.695
 8992WAT     H227219   9.889   6.637   6.830
 8993WAT      O27220   8.489   4.402   6.286
 8993WAT     H127221   8.495   4.411   6.385
 8993WAT     H227222   8.407   4.350   6.262
 8994WAT      O27223   2.974   0.042   8.307
 8994WAT     H127224   2.970   0.112   8.235
 8994WAT     H227225   2.987   0.087   8.396
 8995WAT      O27226   2.628   0.735   5.517
 8995WAT     H127227   2.530   0.737   5.496
 8995WAT     H227228   2.656   0.641   5.536
 8996WAT      O27229   7.869   3.340   7.722
 8996WAT     H127230   7.864   3.440   7.726
 8996WAT     H227231   7.959   3.313   7.687
 8997WAT      O27232   3.059   5.357   6.041
 8997WAT     H127233   3.092   5.327   5.952
 8997WAT     H227234   3.031   5.277   6.095
 8998WAT      O27235   4.449   4.903   3.779
 8998WAT     H127236   4.389   4.827   3.753
 8998WAT     H227237   4.526   4.909   3.715
 8999WAT      O27238   7.189   8.908   5.282
 8999WAT     H127239   7.254   8.833   5.273
 8999WAT     H227240   7.197   8.969   5.203
 9000WAT      O27241   8.166   2.662   2.242
 9000WAT     H127242   8.181   2.709   2.155
 9000WAT     H227243   8.254   2.650   2.289
 9001WAT      O27244   9.855   1.956   7.240
 9001WAT     H127245   9.863   2.034   7.302
 9001WAT     H227246   9.921   1.966   7.165
 9002WAT      O27247   0.180   2.272   1.377
 9002WAT     H127248   0.151   2.290   1.283
 9002WAT     H227249   0.224   2.354   1.414
 9003WAT      O27250   7.464   0.453   3.948
 9003WAT     H127251   7.396   0.438   3.876
 9003WAT     H227252   7.514   0.538   3.929
 9004WAT      O27253   7.421   5.578   9.479
 9004WAT     H127254   7.346   5.618   9.531
 9004WAT     H227255   7.448   5.491   9.521
 9005WAT      O27256   6.892   1.157   7.502
 9005WAT     H127257   6.847   1.244   7.480
 9005WAT     H227258   6.972   1.144   7.443
 9006WAT      O27259   8.293   8.527   1.741
 9006WAT     H127260   8.285   8.450   1.805
 9006WAT     H227261   8.346   8.497   1.661
 9007WAT      O27262   5.133   4.980   8.814
 9007WAT     H127263   5.092   5.014   8.898
 9007WAT     H227264   5.067   4.922   8.766
 9008WAT      O27265   2.257   8.013   9.152
 9008WAT     H127266   2.211   8.039   9.067
 9008WAT     H227267   2.189   7.992   9.222
 9009WAT      O27268   9.225   8.868   1.656
 9009WAT     H127269   9.125   8.857   1.655
 9009WAT     H227270   9.264   8.820   1.578
 9010WAT      O27271   2.162   5.599   7.285
 9010WAT     H127272   2.231   5.528   7.294
 9010WAT     H227273   2.155   5.627   7.189
 9011WAT      O27274   6.555   4.326   3.316
 9011WAT     H127275   6.523   4.404   3.263
 9011WAT     H227276   6.483   4.295   3.378
 9012WAT      O27277   5.322   8.211   6.289
 9012WAT     H127278   5.233   8.255   6.276
 9012WAT     H227279   5.379   8.227   6.208
 9013WAT      O27280   0.146   5.902   0.263
 9013WAT     H127281   0.068   5.872   0.208
 9013WAT     H227282   0.148   6.002   0.267
 9014WAT      O27283   2.227   5.584   8.828
 9014WAT     H127284   2.163   5.622   8.762
 9014WAT     H227285   2.222   5.636   8.913
 9015WAT      O27286   7.076   5.630   1.636
 9015WAT     H127287   7.118   5.719   1.617
 9015WAT     H227288   6.976   5.638   1.630
 9016WAT      O27289   2.010   0.427   8.545
 9016WAT     H127290   2.056   0.349   8.586
 9016WAT     H227291   1.913   0.426   8.572
 9017WAT      O27292   8.666   9.795   1.401
 9017WAT     H127293   8.696   9.716   1.454
 9017WAT     H227294   8.566   9.803   1.404
 9018WAT      O27295   4.549   8.285   7.730
 9018WAT     H127296   4.612   8.242   7.795
 9018WAT     H227297   4.498   8.215   7.681
 9019WAT      O27298   9.823   4.303   2.003
 9019WAT     H127299   9.807   4.321   2.100
 9019WAT     H227300   9.735   4.296   1.956
 9020WAT      O27301   9.189   7.284   4.731
 9020WAT     H127302   9.244   7.205   4.759
 9020WAT     H227303   9.104   7.285   4.784
 9021WAT      O27304   4.179   5.640   6.227
 9021WAT     H127305   4.102   5.602   6.176
 9021WAT     H227306   4.197   5.733   6.196
 9022WAT      O27307   4.573   1.905   5.620
 9022WAT     H127308   4.589   1.830   5.684
 9022WAT     H227309   4.658   1.956   5.606
 9023WAT      O27310   0.601   2.319   1.368
 9023WAT     H127311   0.654   2.403   1.375
 9023WAT     H227312   0.572   2.306   1.273
 9024WAT      O27313   2.676   3.422   3.152
 9024WAT     H127314   2.691   3.517   3.179
 9024WAT     H227315   2.632   3.419   3.062
 9025WAT      O27316   2.038   4.779   7.296
 9025WAT     H127317   2.039   4.720   7.377
 9025WAT     H227318   2.125   4.828   7.289
 9026WAT      O27319   3.353   6.671   4.560
 9026WAT     H127320   3.422   6.609   4.523
 9026WAT     H227321   3.326   6.641   4.651
 9027WAT      O27322   3.844   2.256   0.933
 9027WAT     H127323   3.940   2.267   0.909
 9027WAT     H227324   3.830   2.164   0.972
 9028WAT      O27325   1.723   7.845   2.061
 9028WAT     H127326   1.624   7.828   2.059
 9028WAT     H227327   1.766   7.799   1.984
 9029WAT      O27328   6.153   0.115   5.704
 9029WAT     H127329   6.120   0.093   5.796
 9029WAT     H227330   6.085   0.171   5.657
 9030WAT      O27331   2.514   9.238   1.080
 9030WAT     H127332   2.416   9.219   1.084
 9030WAT     H227333   2.550   9.247   1.173
 9031WAT      O27334   8.317   3.714   4.554
 9031WAT     H127335   8.294   3.716   4.652
 9031WAT     H227336   8.250   3.659   4.505
 9032WAT      O27337   3.680   0.248   0.954
 9032WAT     H127338   3.734   0.298   0.887
 9032WAT     H227339   3.618   0.310   1.001
 9033WAT      O27340   5.725   6.572   4.400
 9033WAT     H127341   5.704   6.477   4.378
 9033WAT     H227342   5.640   6.621   4.421
 9034WAT      O27343   6.401   3.125   4.617
 9034WAT     H127344   6.487   3.105   4.570
 9034WAT     H227345   6.420   3.171   4.704
 9035WAT      O27346   7.877   6.555   0.126
 9035WAT     H127347   7.829   6.472   0.098
 9035WAT     H227348   7.816   6.634   0.114
 9036WAT      O27349   7.022   1.838   9.794
 9036WAT     H127350   7.025   1.930   9.756
 9036WAT     H227351   7.110   1.793   9.782
 9037WAT      O27352   8.465   5.560   8.025
 9037WAT     H127353   8.375   5.516   8.013
 9037WAT     H227354   8.452   5.651   8.063
 9038WAT      O27355   8.883   4.517   1.618
 9038WAT     H127356   8.844   4.522   1.709
 9038WAT     H227357   8.810   4.517   1.550
 9039WAT      O27358   3.219   2.967   8.728
 9039WAT     H127359   3.177   2.957   8.818
 9039WAT     H227360   3.290   3.038   8.732
 9040WAT      O27361   1.529   5.916   6.888
 9040WAT     H127362   1.556   5.984   6.956
 9040WAT     H227363   1.571   5.938   6.801
 9041WAT      O27364   5.797   4.451   8.074
 9041WAT     H127365   5.885   4.495   8.059
 9041WAT     H227366   5.781   4.382   8.003
 9042WAT      O27367   8.078   9.823   6.448
 9042WAT     H127368   8.150   9.808   6.380
 9042WAT     H227369   8.000   9.866   6.404
 9043WAT      O27370   8.810   7.044   2.600
 9043WAT     H127371   8.894   7.028   2.548
 9043WAT     H227372   8.802   7.142   2.620
 9044WAT      O27373   8.753   2.370   2.724
 9044WAT     H127374   8.731   2.441   2.791
 9044WAT     H227375   8.853   2.363   2.714
 9045WAT      O27376   7.539   2.333   3.946
 9045WAT     H127377   7.522   2.236   3.961
 9045WAT     H227378   7.491   2.363   3.864
 9046WAT      O27379   5.918   1.186   6.064
 9046WAT     H127380   5.939   1.125   6.141
 9046WAT     H227381   5.864   1.136   5.997
 9047WAT      O27382   8.315   2.195   9.338
 9047WAT     H127383   8.307   2.114   9.397
 9047WAT     H227384   8.412   2.214   9.322
 9048WAT      O27385   2.531   8.487   1.000
 9048WAT     H127386   2.470   8.497   0.922
 9048WAT     H227387   2.613   8.543   0.986
 9049WAT      O27388   5.123   8.558   7.334
 9049WAT     H127389   5.090   8.652   7.343
 9049WAT     H227390   5.110   8.527   7.239
 9050WAT      O27391   8.030   8.809   0.474
 9050WAT     H127392   8.040   8.751   0.555
 9050WAT     H227393   7.955   8.874   0.489
 9051WAT      O27394   0.645   7.262   9.284
 9051WAT     H127395   0.557   7.259   9.331
 9051WAT     H227396   0.716   7.290   9.349
 9052WAT      O27397   2.789   0.920   7.852
 9052WAT     H127398   2.694   0.925   7.821
 9052WAT     H227399   2.792   0.935   7.951
 9053WAT      O27400   6.468   6.993   5.406
 9053WAT     H127401   6.461   6.928   5.331
 9053WAT     H227402   6.451   7.086   5.371
 9054WAT      O27403   1.239   7.916   8.474
 9054WAT     H127404   1.227   7.824   8.511
 9054WAT     H227405   1.264   7.910   8.377
 9055WAT      O27406   9.464   4.760   8.428
 9055WAT     H127407   9.440   4.711   8.512
 9055WAT     H227408   9.387   4.818   8.401
 9056WAT      O27409   3.562   1.057   4.915
 9056WAT     H127410   3.572   0.966   4.956
 9056WAT     H227411   3.469   1.091   4.932
 9057WAT      O27412   9.412   5.156   8.220
 9057WAT     H127413   9.445   5.178   8.128
 9057WAT     H227414   9.430   5.233   8.281
 9058WAT      O27415   1.337   3.175   8.751
 9058WAT     H127416   1.325   3.183   8.850
 9058WAT     H227417   1.271   3.235   8.705
 9059WAT      O27418   9.476   3.519   2.528
 9059WAT     H127419   9.467   3.425   2.494
 9059WAT     H227420   9.571   3.549   2.518
 9060WAT      O27421   4.825   9.780   8.291
 9060WAT     H127422   4.796   9.774   8.386
 9060WAT     H227423   4.774   9.713   8.236
 9061WAT      O27424   5.088   9.282   9.640
 9061WAT     H127425   5.053   9.278   9.734
 9061WAT     H227426   5.149   9.204   9.624
 9062WAT      O27427   0.427   1.951   8.762
 9062WAT     H127428   0.346   1.950   8.821
 9062WAT     H227429   0.401   1.982   8.670
 9063WAT      O27430   9.007   0.928   0.396
 9063WAT     H127431   9.053   0.995   0.454
 9063WAT     H227432   9.039   0.937   0.301
 9064WAT      O27433   7.758   9.696   3.859
 9064WAT     H127434   7.737   9.643   3.941
 9064WAT     H227435   7.812   9.777   3.884
 9065WAT      O27436   0.021   1.591   3.367
 9065WAT     H127437   0.117   1.567   3.352
 9065WAT     H227438   0.013   1.649   3.448
 9066WAT      O27439   7.205   5.404   5.985
 9066WAT     H127440   7.220   5.460   6.067
 9066WAT     H227441   7.108   5.400   5.965
 9067WAT      O27442   4.698   0.177   1.070
 9067WAT     H127443   4.605   0.204   1.046
 9067WAT     H227444   4.714   0.197   1.166
 9068WAT      O27445   6.966   3.918   5.998
 9068WAT     H127446   6.879   3.966   6.002
 9068WAT     H227447   7.036   3.979   5.963
 9069WAT      O27448   3.009   2.616   3.703
 9069WAT     H127449   2.992   2.519   3.718
 9069WAT     H227450   2.939   2.670   3.748
 9070WAT      O27451   1.086   5.354   6.740
 9070WAT     H127452   1.010   5.393   6.687
 9070WAT     H227453   1.143   5.299   6.680
 9071WAT      O27454   5.818   7.212   8.665
 9071WAT     H127455   5.736   7.195   8.611
 9071WAT     H227456   5.896   7.228   8.604
 9072WAT      O27457   0.819   5.756   7.750
 9072WAT     H127458   0.758   5.753   7.829
 9072WAT     H227459   0.912   5.733   7.780
 9073WAT      O27460   1.954   9.579   1.078
 9073WAT     H127461   1.868   9.529   1.079
 9073WAT     H227462   2.023   9.525   1.030
 9074WAT      O27463   8.153   6.922   3.474
 9074WAT     H127464   8.225   6.988   3.494
 9074WAT     H227465   8.099   6.904   3.556
 9075WAT      O27466   5.410   0.577   8.156
 9075WAT     H127467   5.492   0.632   8.137
 9075WAT     H227468   5.337   0.602   8.092
 9076WAT      O27469   7.323   6.189   4.791
 9076WAT     H127470   7.338   6.118   4.722
 9076WAT     H227471   7.405   6.198   4.848
 9077WAT      O27472   2.977   2.633   0.923
 9077WAT     H127473   2.960   2.560   0.857
 9077WAT     H227474   3.072   2.664   0.913
 9078WAT      O27475   4.934   3.509   5.382
 9078WAT     H127476   4.905   3.509   5.478
 9078WAT     H227477   4.978   3.597   5.361
 9079WAT      O27478   4.852   1.556   7.431
 9079WAT     H127479   4.883   1.592   7.343
 9079WAT     H227480   4.815   1.631   7.487
 9080WAT      O27481   2.940   5.690   2.679
 9080WAT     H127482   3.011   5.705   2.610
 9080WAT     H227483   2.854   5.732   2.648
 9081WAT      O27484   8.602   4.704   1.933
 9081WAT     H127485   8.623   4.608   1.914
 9081WAT     H227486   8.683   4.760   1.917
 9082WAT      O27487   3.548   7.401   0.323
 9082WAT     H127488   3.452   7.406   0.352
 9082WAT     H227489   3.561   7.457   0.241
 9083WAT      O27490   3.453   6.703   7.869
 9083WAT     H127491   3.369   6.715   7.921
 9083WAT     H227492   3.504   6.789   7.866
 9084WAT      O27493   7.213   7.081   5.829
 9084WAT     H127494   7.115   7.098   5.819
 9084WAT     H227495   7.229   7.032   5.915
 9085WAT      O27496   9.504   6.660   7.895
 9085WAT     H127497   9.591   6.670   7.942
 9085WAT     H227498   9.434   6.629   7.960
 9086WAT      O27499   4.414   6.614   5.731
 9086WAT     H127500   4.319   6.587   5.747
 9086WAT     H227501   4.424   6.712   5.752
 9087WAT      O27502   9.755   3.342   7.287
 9087WAT     H127503   9.762   3.441   7.282
 9087WAT     H227504   9.821   3.307   7.354
 9088WAT      O27505   3.754   4.905   8.328
 9088WAT     H127506   3.720   4.998   8.312
 9088WAT     H227507   3.808   4.876   8.249
 9089WAT      O27508   0.378   5.792   3.039
 9089WAT     H127509   0.406   5.696   3.034
 9089WAT     H227510   0.459   5.850   3.041
 9090WAT      O27511   3.128   1.626   8.384
 9090WAT     H127512   3.103   1.551   8.323
 9090WAT     H227513   3.198   1.594   8.448
 9091WAT      O27514   4.862   2.044   0.842
 9091WAT     H127515   4.798   1.970   0.820
 9091WAT     H227516   4.852   2.071   0.937
 9092WAT      O27517   6.386   7.982   0.892
 9092WAT     H127518   6.439   8.038   0.956
 9092WAT     H227519   6.289   7.994   0.910
 9093WAT      O27520   3.652   1.845   4.814
 9093WAT     H127521   3.696   1.797   4.890
 9093WAT     H227522   3.553   1.829   4.818
 9094WAT      O27523   3.289   7.390   6.272
 9094WAT     H127524   3.278   7.356   6.365
 9094WAT     H227525   3.201   7.391   6.226
 9095WAT      O27526   1.881   2.480   7.297
 9095WAT     H127527   1.960   2.500   7.356
 9095WAT     H227528   1.913   2.438   7.212
 9096WAT      O27529   1.699   5.689   6.117
 9096WAT     H127530   1.777   5.666   6.176
 9096WAT     H227531   1.700   5.787   6.098
 9097WAT      O27532   9.829   4.385   1.074
 9097WAT     H127533   9.829   4.436   1.160
 9097WAT     H227534   9.856   4.290   1.091
 9098WAT      O27535   9.574   1.153   5.824
 9098WAT     H127536   9.602   1.061   5.852
 9098WAT     H227537   9.576   1.213   5.903
 9099WAT      O27538   7.604   7.798   3.905
 9099WAT     H127539   7.532   7.739   3.870
 9099WAT     H227540   7.564   7.882   3.942
 9100WAT      O27541   2.505   3.298   6.923
 9100WAT     H127542   2.476   3.391   6.947
 9100WAT     H227543   2.433   3.233   6.945
 9101WAT      O27544   8.857   5.223   9.301
 9101WAT     H127545   8.806   5.141   9.274
 9101WAT     H227546   8.954   5.209   9.285
 9102WAT      O27547   8.855   2.012   8.893
 9102WAT     H127548   8.807   2.016   8.805
 9102WAT     H227549   8.856   2.103   8.934
 9103WAT      O27550   0.114   2.467   7.513
 9103WAT     H127551   0.152   2.509   7.595
 9103WAT     H227552   0.177   2.398   7.478
 9104WAT      O27553   4.323   0.557   6.772
 9104WAT     H127554   4.364   0.501   6.844
 9104WAT     H227555   4.237   0.595   6.806
 9105WAT      O27556   4.893   1.414   3.316
 9105WAT     H127557   4.960   1.404   3.242
 9105WAT     H227558   4.934   1.467   3.390
 9106WAT      O27559   2.389   3.150   3.437
 9106WAT     H127560   2.336   3.097   3.371
 9106WAT     H227561   2.473   3.101   3.460
 9107WAT      O27562   6.823   9.458   1.928
 9107WAT     H127563   6.772   9.374   1.949
 9107WAT     H227564   6.841   9.507   2.013
 9108WAT      O27565   5.079   0.600   7.339
 9108WAT     H127566   5.114   0.665   7.272
 9108WAT     H227567   5.129   0.611   7.426
 9109WAT      O27568   6.864   6.924   3.682
 9109WAT     H127569   6.885   6.960   3.591
 9109WAT     H227570   6.784   6.865   3.676
 9110WAT      O27571   8.957   7.285   6.198
 9110WAT     H127572   8.867   7.328   6.197
 9110WAT     H227573   8.950   7.189   6.171
 9111WAT      O27574   0.402   9.025   9.140
 9111WAT     H127575   0.375   8.934   9.172
 9111WAT     H227576   0.361   9.094   9.199
 9112WAT      O27577   6.743   0.563   8.334
 9112WAT     H127578   6.675   0.513   8.280
 9112WAT     H227579   6.774   0.506   8.410
 9113WAT      O27580   5.520   0.540   9.532
 9113WAT     H127581   5.523   0.443   9.557
 9113WAT     H227582   5.491   0.594   9.612
 9114WAT      O27583   1.931   7.542   7.541
 9114WAT     H127584   1.876   7.458   7.545
 9114WAT     H227585   1.876   7.620   7.568
 9115WAT      O27586   1.146   7.888   7.156
 9115WAT     H127587   1.148   7.942   7.240
 9115WAT     H227588   1.178   7.795   7.175
 9116WAT      O27589   6.410   1.819   8.995
 9116WAT     H127590   6.367   1.733   9.025
 9116WAT     H227591   6.385   1.892   9.058
 9117WAT      O27592   1.860   1.451   2.948
 9117WAT     H127593   1.869   1.419   2.854
 9117WAT     H227594   1.803   1.387   3.000
 9118WAT      O27595   2.445   3.324   6.515
 9118WAT     H127596   2.445   3.226   6.537
 9118WAT     H227597   2.535   3.350   6.481
 9119WAT      O27598   4.866   3.308   4.093
 9119WAT     H127599   4.916   3.386   4.054
 9119WAT     H227600   4.793   3.342   4.153
 9120WAT      O27601   6.354   7.418   0.353
 9120WAT     H127602   6.305   7.435   0.268
 9120WAT     H227603   6.329   7.488   0.420
 9121WAT      O27604   1.577   0.015   3.748
 9121WAT     H127605   1.542   0.008   3.654
 9121WAT     H227606   1.500   0.023   3.811
 9122WAT      O27607   7.997   3.803   0.340
 9122WAT     H127608   8.090   3.833   0.363
 9122WAT     H227609   8.000   3.717   0.289
 9123WAT      O27610   8.170   7.664   0.785
 9123WAT     H127611   8.200   7.589   0.726
 9123WAT     H227612   8.198   7.751   0.745
 9124WAT      O27613   1.935   1.003   7.236
 9124WAT     H127614   2.020   1.052   7.215
 9124WAT     H227615   1.883   0.989   7.152
 9125WAT      O27616   1.697   8.601   1.973
 9125WAT     H127617   1.747   8.655   2.041
 9125WAT     H227618   1.755   8.526   1.941
 9126WAT      O27619   6.248   5.288   1.185
 9126WAT     H127620   6.183   5.246   1.121
 9126WAT     H227621   6.321   5.332   1.133
 9127WAT      O27622   5.582   7.301   5.562
 9127WAT     H127623   5.582   7.294   5.662
 9127WAT     H227624   5.489   7.316   5.530
 9128WAT      O27625   4.440   1.468   5.225
 9128WAT     H127626   4.349   1.468   5.267
 9128WAT     H227627   4.430   1.471   5.126
 9129WAT      O27628   6.100   4.976   7.424
 9129WAT     H127629   6.134   4.884   7.405
 9129WAT     H227630   6.064   4.981   7.517
 9130WAT      O27631   8.280   1.698   0.140
 9130WAT     H127632   8.369   1.653   0.152
 9130WAT     H227633   8.287   1.792   0.173
 9131WAT      O27634   3.700   1.255   9.474
 9131WAT     H127635   3.677   1.162   9.448
 9131WAT     H227636   3.688   1.316   9.396
 9132WAT      O27637   5.622   5.624   8.974
 9132WAT     H127638   5.686   5.609   9.050
 9132WAT     H227639   5.532   5.589   8.999
 9133WAT      O27640   5.135   8.877   1.509
 9133WAT     H127641   5.131   8.859   1.411
 9133WAT     H227642   5.199   8.952   1.527
 9134WAT      O27643   9.530   9.279   9.459
 9134WAT     H127644   9.599   9.348   9.480
 9134WAT     H227645   9.558   9.191   9.497
 9135WAT      O27646   1.836   5.824   6.434
 9135WAT     H127647   1.789   5.845   6.349
 9135WAT     H227648   1.927   5.787   6.415
 9136WAT      O27649   0.809   6.152   7.235
 9136WAT     H127650   0.758   6.222   7.185
 9136WAT     H227651   0.899   6.139   7.192
 9137WAT      O27652   9.599   0.899   5.126
 9137WAT     H127653   9.608   0.974   5.061
 9137WAT     H227654   9.553   0.931   5.208
 9138WAT      O27655   3.905   3.602   5.420
 9138WAT     H127656   3.857   3.610   5.508
 9138WAT     H227657   3.992   3.555   5.433
 9139WAT      O27658   9.545   2.962   9.525
 9139WAT     H127659   9.636   2.973   9.485
 9139WAT     H227660   9.516   3.049   9.566
 9140WAT      O27661   8.593   4.937   5.916
 9140WAT     H127662   8.544   4.934   5.829
 9140WAT     H227663   8.564   4.861   5.974
 9141WAT      O27664   9.287   4.536   5.838
 9141WAT     H127665   9.264   4.452   5.790
 9141WAT     H227666   9.299   4.516   5.935
 9142WAT      O27667   7.858   7.321   1.975
 9142WAT     H127668   7.856   7.273   1.888
 9142WAT     H227669   7.835   7.417   1.962
 9143WAT      O27670   5.679   1.937   1.635
 9143WAT     H127671   5.628   2.022   1.620
 9143WAT     H227672   5.676   1.913   1.732
 9144WAT      O27673   7.276   1.743   9.728
 9144WAT     H127674   7.248   1.651   9.755
 9144WAT     H227675   7.304   1.743   9.632
 9145WAT      O27676   1.781   3.627   3.911
 9145WAT     H127677   1.874   3.609   3.877
 9145WAT     H227678   1.720   3.554   3.881
 9146WAT      O27679   5.147   2.162   1.006
 9146WAT     H127680   5.123   2.123   1.095
 9146WAT     H227681   5.104   2.252   0.997
 9147WAT      O27682   3.451   4.449   6.318
 9147WAT     H127683   3.482   4.538   6.285
 9147WAT     H227684   3.393   4.461   6.398
 9148WAT      O27685   2.812   9.231   2.804
 9148WAT     H127686   2.790   9.134   2.804
 9148WAT     H227687   2.809   9.267   2.897
 9149WAT      O27688   1.988   2.025   7.913
 9149WAT     H127689   2.069   1.981   7.954
 9149WAT     H227690   1.972   1.985   7.823
 9150WAT      O27691   7.726   6.785   0.075
 9150WAT     H127692   7.674   6.778  -0.010
 9150WAT     H227693   7.777   6.871   0.076
 9151WAT      O27694   1.210   7.507   8.070
 9151WAT     H127695   1.114   7.519   8.094
 9151WAT     H227696   1.241   7.585   8.014
 9152WAT      O27697   8.573   5.423   1.114
 9152WAT     H127698   8.503   5.391   1.177
 9152WAT     H227699   8.661   5.380   1.137
 9153WAT      O27700   0.588   7.289   7.222
 9153WAT     H127701   0.623   7.196   7.211
 9153WAT     H227702   0.643   7.352   7.167
 9154WAT      O27703   8.993   6.116   5.758
 9154WAT     H127704   8.948   6.135   5.845
 9154WAT     H227705   9.088   6.147   5.761
 9155WAT      O27706   7.494   5.043   4.117
 9155WAT     H127707   7.509   4.958   4.167
 9155WAT     H227708   7.580   5.095   4.114
 9156WAT      O27709   2.595   5.128   8.616
 9156WAT     H127710   2.642   5.217   8.615
 9156WAT     H227711   2.513   5.134   8.559
 9157WAT      O27712   1.059   1.625   3.463
 9157WAT     H127713   0.973   1.647   3.510
 9157WAT     H227714   1.111   1.709   3.448
 9158WAT      O27715   7.557   1.206   0.305
 9158WAT     H127716   7.566   1.297   0.263
 9158WAT     H227717   7.498   1.212   0.385
 9159WAT      O27718   9.044   1.772   2.806
 9159WAT     H127719   8.975   1.763   2.734
 9159WAT     H227720   9.131   1.735   2.773
 9160WAT      O27721   7.258   0.740   4.417
 9160WAT     H127722   7.313   0.794   4.354
 9160WAT     H227723   7.208   0.670   4.367
 9161WAT      O27724   1.167   4.168   5.969
 9161WAT     H127725   1.142   4.080   6.009
 9161WAT     H227726   1.142   4.169   5.872
 9162WAT      O27727   8.629   0.280   8.124
 9162WAT     H127728   8.599   0.200   8.175
 9162WAT     H227729   8.719   0.310   8.158
 9163WAT      O27730   6.211   4.613   3.857
 9163WAT     H127731   6.170   4.663   3.934
 9163WAT     H227732   6.275   4.672   3.809
 9164WAT      O27733   4.642   2.443   2.958
 9164WAT     H127734   4.603   2.445   2.866
 9164WAT     H227735   4.652   2.348   2.988
 9165WAT      O27736   1.828   5.840   0.857
 9165WAT     H127737   1.766   5.764   0.877
 9165WAT     H227738   1.848   5.842   0.759
 9166WAT      O27739   8.487   5.926   0.173
 9166WAT     H127740   8.424   5.989   0.218
 9166WAT     H227741   8.489   5.839   0.223
 9167WAT      O27742   6.258   1.880   3.264
 9167WAT     H127743   6.333   1.936   3.299
 9167WAT     H227744   6.176   1.898   3.317
 9168WAT      O27745   6.602   2.958   7.839
 9168WAT     H127746   6.659   2.907   7.904
 9168WAT     H227747   6.631   2.937   7.746
 9169WAT      O27748   4.343   1.330   9.073
 9169WAT     H127749   4.377   1.424   9.078
 9169WAT     H227750   4.245   1.330   9.057
 9170WAT      O27751   1.186   4.680   5.007
 9170WAT     H127752   1.217   4.771   4.977
 9170WAT     H227753   1.189   4.676   5.107
 9171WAT      O27754   3.247   9.582   5.030
 9171WAT     H127755   3.323   9.647   5.029
 9171WAT     H227756   3.169   9.620   4.980
 9172WAT      O27757   3.617   9.409   2.937
 9172WAT     H127758   3.551   9.339   2.910
 9172WAT     H227759   3.600   9.492   2.883
 9173WAT      O27760   1.589   1.402   0.587
 9173WAT     H127761   1.515   1.458   0.549
 9173WAT     H227762   1.649   1.372   0.512
 9174WAT      O27763   7.490   1.250   3.008
 9174WAT     H127764   7.502   1.313   3.085
 9174WAT     H227765   7.539   1.165   3.026
 9175WAT      O27766   7.439   8.727   0.570
 9175WAT     H127767   7.440   8.823   0.543
 9175WAT     H227768   7.514   8.679   0.526
 9176WAT      O27769   4.680   3.197   5.034
 9176WAT     H127770   4.639   3.112   5.004
 9176WAT     H227771   4.718   3.246   4.955
 9177WAT      O27772   8.552   6.927   7.267
 9177WAT     H127773   8.540   6.831   7.244
 9177WAT     H227774   8.635   6.962   7.224
 9178WAT      O27775   4.564   6.493   1.048
 9178WAT     H127776   4.634   6.425   1.028
 9178WAT     H227777   4.518   6.469   1.134
 9179WAT      O27778   4.282   4.659   6.645
 9179WAT     H127779   4.336   4.666   6.729
 9179WAT     H227780   4.307   4.575   6.597
 9180WAT      O27781   0.264   2.174   6.639
 9180WAT     H127782   0.350   2.213   6.607
 9180WAT     H227783   0.250   2.084   6.597
 9181WAT      O27784   7.463   9.331   8.542
 9181WAT     H127785   7.376   9.300   8.580
 9181WAT     H227786   7.536   9.270   8.574
 9182WAT      O27787   3.234   0.337   8.053
 9182WAT     H127788   3.266   0.243   8.066
 9182WAT     H227789   3.194   0.347   7.962
 9183WAT      O27790   0.978   7.391   2.220
 9183WAT     H127791   0.975   7.462   2.150
 9183WAT     H227792   0.957   7.303   2.178
 9184WAT      O27793   7.340   1.634   0.331
 9184WAT     H127794   7.275   1.557   0.327
 9184WAT     H227795   7.433   1.599   0.320
 9185WAT      O27796   9.463   0.744   4.879
 9185WAT     H127797   9.536   0.679   4.857
 9185WAT     H227798   9.480   0.831   4.832
 9186WAT      O27799   9.193   3.727   7.474
 9186WAT     H127800   9.226   3.637   7.446
 9186WAT     H227801   9.265   3.795   7.459
 9187WAT      O27802   9.520   5.991   1.524
 9187WAT     H127803   9.436   6.000   1.470
 9187WAT     H227804   9.506   6.029   1.615
 9188WAT      O27805   7.787   5.996   9.689
 9188WAT     H127806   7.742   6.054   9.621
 9188WAT     H227807   7.723   5.979   9.764
 9189WAT      O27808   9.226   8.539   0.148
 9189WAT     H127809   9.185   8.503   0.064
 9189WAT     H227810   9.325   8.525   0.144
 9190WAT      O27811   5.162   1.370   6.373
 9190WAT     H127812   5.238   1.377   6.309
 9190WAT     H227813   5.124   1.277   6.369
 9191WAT      O27814   6.503   9.374   1.758
 9191WAT     H127815   6.582   9.353   1.700
 9191WAT     H227816   6.510   9.468   1.792
 9192WAT      O27817   1.628   7.970   0.743
 9192WAT     H127818   1.719   7.942   0.711
 9192WAT     H227819   1.597   8.049   0.690
 9193WAT      O27820   4.755   0.696   8.679
 9193WAT     H127821   4.677   0.725   8.735
 9193WAT     H227822   4.723   0.638   8.604
 9194WAT      O27823   9.580   2.040   9.842
 9194WAT     H127824   9.520   2.075   9.913
 9194WAT     H227825   9.667   2.091   9.842
 9195WAT      O27826   6.024   2.089   5.139
 9195WAT     H127827   5.942   2.059   5.090
 9195WAT     H227828   6.008   2.087   5.237
 9196WAT      O27829   0.870   2.474   3.172
 9196WAT     H127830   0.938   2.403   3.192
 9196WAT     H227831   0.848   2.472   3.075
 9197WAT      O27832   4.450   9.565   1.679
 9197WAT     H127833   4.519   9.561   1.607
 9197WAT     H227834   4.441   9.659   1.712
 9198WAT      O27835   3.886   1.283   8.259
 9198WAT     H127836   3.849   1.336   8.183
 9198WAT     H227837   3.912   1.192   8.227
 9199WAT      O27838   1.291   3.332   4.663
 9199WAT     H127839   1.335   3.303   4.748
 9199WAT     H227840   1.209   3.277   4.647
 9200WAT      O27841   7.816   3.104   3.030
 9200WAT     H127842   7.759   3.165   2.974
 9200WAT     H227843   7.758   3.033   3.072
 9201WAT      O27844   4.724   2.733   9.554
 9201WAT     H127845   4.641   2.785   9.575
 9201WAT     H227846   4.792   2.749   9.626
 9202WAT      O27847   4.780   7.447   2.107
 9202WAT     H127848   4.689   7.408   2.090
 9202WAT     H227849   4.785   7.481   2.201
 9203WAT      O27850   3.728   4.771   3.559
 9203WAT     H127851   3.788   4.692   3.546
 9203WAT     H227852   3.771   4.835   3.623
 9204WAT      O27853   2.000   1.973   1.829
 9204WAT     H127854   1.992   2.064   1.788
 9204WAT     H227855   2.079   1.971   1.890
 9205WAT      O27856   8.398   5.541   2.430
 9205WAT     H127857   8.456   5.517   2.508
 9205WAT     H227858   8.392   5.463   2.368
 9206WAT      O27859   2.333   3.928   6.400
 9206WAT     H127860   2.291   3.992   6.336
 9206WAT     H227861   2.330   3.965   6.492
 9207WAT      O27862   4.680   9.134   0.115
 9207WAT     H127863   4.724   9.078   0.045
 9207WAT     H227864   4.600   9.179   0.076
 9208WAT      O27865   4.335   1.605   6.889
 9208WAT     H127866   4.346   1.514   6.930
 9208WAT     H227867   4.424   1.649   6.881
 9209WAT      O27868   2.072   6.671   5.733
 9209WAT     H127869   2.091   6.676   5.831
 9209WAT     H227870   1.980   6.706   5.715
 9210WAT      O27871   8.901   7.117   3.449
 9210WAT     H127872   8.829   7.165   3.398
 9210WAT     H227873   8.988   7.128   3.401
 9211WAT      O27874   7.148   8.518   7.623
 9211WAT     H127875   7.220   8.573   7.665
 9211WAT     H227876   7.059   8.551   7.654
 9212WAT      O27877   1.977   1.465   8.293
 9212WAT     H127878   1.981   1.367   8.313
 9212WAT     H227879   1.882   1.496   8.300
 9213WAT      O27880   2.781   5.241   8.285
 9213WAT     H127881   2.694   5.191   8.285
 9213WAT     H227882   2.817   5.245   8.378
 9214WAT      O27883   1.056   7.373   6.013
 9214WAT     H127884   1.097   7.290   5.976
 9214WAT     H227885   1.121   7.419   6.073
 9215WAT      O27886   1.929   6.612   2.331
 9215WAT     H127887   1.869   6.568   2.397
 9215WAT     H227888   1.910   6.710   2.328
 9216WAT      O27889   0.223   5.122   0.389
 9216WAT     H127890   0.134   5.123   0.435
 9216WAT     H227891   0.287   5.065   0.441
 9217WAT      O27892   2.176   6.330   8.197
 9217WAT     H127893   2.242   6.385   8.247
 9217WAT     H227894   2.085   6.371   8.206
 9218WAT      O27895   2.431   3.946   4.843
 9218WAT     H127896   2.519   3.987   4.819
 9218WAT     H227897   2.423   3.857   4.798
 9219WAT      O27898   8.627   4.630   6.280
 9219WAT     H127899   8.698   4.640   6.349
 9219WAT     H227900   8.573   4.548   6.299
 9220WAT      O27901   4.203   2.300   9.410
 9220WAT     H127902   4.204   2.400   9.403
 9220WAT     H227903   4.147   2.262   9.337
 9221WAT      O27904   9.392   4.197   8.647
 9221WAT     H127905   9.348   4.108   8.644
 9221WAT     H227906   9.387   4.240   8.557
 9222WAT      O27907   5.611   3.966   5.708
 9222WAT     H127908   5.636   3.922   5.794
 9222WAT     H227909   5.537   3.914   5.664
 9223WAT      O27910   7.902   6.127   8.308
 9223WAT     H127911   7.994   6.124   8.345
 9223WAT     H227912   7.847   6.192   8.361
 9224WAT      O27913   5.488   5.572   4.065
 9224WAT     H127914   5.427   5.522   4.127
 9224WAT     H227915   5.517   5.511   3.991
 9225WAT      O27916   1.166   9.265   6.576
 9225WAT     H127917   1.231   9.192   6.595
 9225WAT     H227918   1.103   9.237   6.503
 9226WAT      O27919   6.423   2.038   5.853
 9226WAT     H127920   6.419   1.942   5.822
 9226WAT     H227921   6.343   2.058   5.909
 9227WAT      O27922   1.131   9.201   0.538
 9227WAT     H127923   1.079   9.125   0.579
 9227WAT     H227924   1.158   9.265   0.610
 9228WAT      O27925   2.934   2.085   3.501
 9228WAT     H127926   2.846   2.125   3.527
 9228WAT     H227927   2.923   1.987   3.488
 9229WAT      O27928   3.749   0.976   7.582
 9229WAT     H127929   3.764   1.042   7.655
 9229WAT     H227930   3.676   1.007   7.523
 9230WAT      O27931   3.807   1.516   5.715
 9230WAT     H127932   3.882   1.579   5.736
 9230WAT     H227933   3.789   1.457   5.793
 9231WAT      O27934   7.433   4.138   3.057
 9231WAT     H127935   7.469   4.049   3.029
 9231WAT     H227936   7.360   4.165   2.995
 9232WAT      O27937   4.394   8.663   9.232
 9232WAT     H127938   4.490   8.646   9.254
 9232WAT     H227939   4.385   8.685   9.135
 9233WAT      O27940   0.294   8.632   3.992
 9233WAT     H127941   0.236   8.697   4.041
 9233WAT     H227942   0.295   8.545   4.041
 9234WAT      O27943   4.982   0.891   4.065
 9234WAT     H127944   4.976   0.879   4.165
 9234WAT     H227945   5.026   0.978   4.045
 9235WAT      O27946   4.049   7.665   2.658
 9235WAT     H127947   4.023   7.613   2.740
 9235WAT     H227948   4.055   7.762   2.682
 9236WAT      O27949   4.547   3.498   6.235
 9236WAT     H127950   4.591   3.469   6.150
 9236WAT     H227951   4.462   3.547   6.214
 9237WAT      O27952   4.163   5.974   9.003
 9237WAT     H127953   4.102   6.053   8.993
 9237WAT     H227954   4.256   6.007   9.023
 9238WAT      O27955   4.184   7.807   5.667
 9238WAT     H127956   4.273   7.850   5.682
 9238WAT     H227957   4.196   7.721   5.618
 9239WAT      O27958   4.453   1.444   8.585
 9239WAT     H127959   4.503   1.468   8.502
 9239WAT     H227960   4.425   1.348   8.580
 9240WAT      O27961   7.957   5.736   7.689
 9240WAT     H127962   7.976   5.714   7.785
 9240WAT     H227963   7.927   5.654   7.642
 9241WAT      O27964   8.574   7.018   2.448
 9241WAT     H127965   8.591   7.003   2.351
 9241WAT     H227966   8.661   7.038   2.494
 9242WAT      O27967   3.231   2.221   2.011
 9242WAT     H127968   3.225   2.236   2.110
 9242WAT     H227969   3.186   2.296   1.963
 9243WAT      O27970   3.465   7.117   3.234
 9243WAT     H127971   3.550   7.064   3.232
 9243WAT     H227972   3.450   7.158   3.144
 9244WAT      O27973   0.348   6.646   3.102
 9244WAT     H127974   0.320   6.551   3.085
 9244WAT     H227975   0.435   6.645   3.153
 9245WAT      O27976   7.608   1.950   6.053
 9245WAT     H127977   7.674   1.895   6.001
 9245WAT     H227978   7.519   1.906   6.051
 9246WAT      O27979   3.328   3.200   1.989
 9246WAT     H127980   3.275   3.249   1.920
 9246WAT     H227981   3.274   3.124   2.025
 9247WAT      O27982   2.203   7.039   5.861
 9247WAT     H127983   2.271   6.967   5.853
 9247WAT     H227984   2.138   7.015   5.934
 9248WAT      O27985   0.356   2.183   3.651
 9248WAT     H127986   0.337   2.103   3.707
 9248WAT     H227987   0.445   2.221   3.676
 9249WAT      O27988   8.418   4.506   8.914
 9249WAT     H127989   8.373   4.568   8.850
 9249WAT     H227990   8.427   4.551   9.003
 9250WAT      O27991   2.271   5.266   6.797
 9250WAT     H127992   2.303   5.232   6.886
 9250WAT     H227993   2.202   5.337   6.811
 9251WAT      O27994   3.506   4.146   3.267
 9251WAT     H127995   3.573   4.196   3.213
 9251WAT     H227996   3.511   4.049   3.244
 9252WAT      O27997   0.680   8.462   7.377
 9252WAT     H127998   0.760   8.490   7.325
 9252WAT     H227999   0.694   8.484   7.474
 9253WAT      O28000   3.339   6.842   2.060
 9253WAT     H128001   3.379   6.920   2.108
 9253WAT     H228002   3.320   6.769   2.126
 9254WAT      O28003   9.738   7.127   1.208
 9254WAT     H128004   9.681   7.204   1.238
 9254WAT     H228005   9.834   7.147   1.227
 9255WAT      O28006   7.912   9.771   3.218
 9255WAT     H128007   7.938   9.822   3.300
 9255WAT     H228008   7.833   9.816   3.175
 9256WAT      O28009   1.196   0.989   9.814
 9256WAT     H128010   1.270   1.055   9.826
 9256WAT     H228011   1.108   1.035   9.817
 9257WAT      O28012   2.093   2.513   6.092
 9257WAT     H128013   1.998   2.491   6.115
 9257WAT     H228014   2.153   2.484   6.167
 9258WAT      O28015   1.552   1.250   2.864
 9258WAT     H128016   1.462   1.281   2.833
 9258WAT     H228017   1.584   1.307   2.939
 9259WAT      O28018   7.653   9.574   1.976
 9259WAT     H128019   7.705   9.659   1.984
 9259WAT     H228020   7.592   9.565   2.055
 9260WAT      O28021   5.651   8.954   6.929
 9260WAT     H128022   5.625   8.976   7.023
 9260WAT     H228023   5.739   8.907   6.928
 9261WAT      O28024   5.063   8.680   9.309
 9261WAT     H128025   5.120   8.643   9.382
 9261WAT     H228026   5.050   8.778   9.323
 9262WAT      O28027   5.387   8.932   8.007
 9262WAT     H128028   5.478   8.938   8.048
 9262WAT     H228029   5.333   8.863   8.054
 9263WAT      O28030   2.741   4.298   8.125
 9263WAT     H128031   2.741   4.377   8.064
 9263WAT     H228032   2.649   4.283   8.161
 9264WAT      O28033   7.068   1.199   9.679
 9264WAT     H128034   7.007   1.279   9.679
 9264WAT     H228035   7.152   1.222   9.630
 9265WAT      O28036   6.300   7.642   3.445
 9265WAT     H128037   6.259   7.707   3.383
 9265WAT     H228038   6.345   7.569   3.393
 9266WAT      O28039   8.161   6.074   5.549
 9266WAT     H128040   8.157   5.976   5.532
 9266WAT     H228041   8.251   6.099   5.584
 9267WAT      O28042   1.617   2.049   8.800
 9267WAT     H128043   1.569   2.031   8.714
 9267WAT     H228044   1.663   1.965   8.831
 9268WAT      O28045   8.193   0.400   3.085
 9268WAT     H128046   8.099   0.370   3.100
 9268WAT     H228047   8.247   0.324   3.049
 9269WAT      O28048   2.719   6.754   6.609
 9269WAT     H128049   2.688   6.692   6.680
 9269WAT     H228050   2.640   6.800   6.568
 9270WAT      O28051   2.607   2.480   8.411
 9270WAT     H128052   2.549   2.404   8.381
 9270WAT     H228053   2.675   2.446   8.475
 9271WAT      O28054   4.475   0.427   0.644
 9271WAT     H128055   4.502   0.487   0.569
 9271WAT     H228056   4.386   0.385   0.623
 9272WAT      O28057   3.939   6.050   9.247
 9272WAT     H128058   3.991   5.965   9.245
 9272WAT     H228059   3.954   6.097   9.334
 9273WAT      O28060   4.095   6.833   3.864
 9273WAT     H128061   4.078   6.903   3.795
 9273WAT     H228062   4.150   6.759   3.825
 9274WAT      O28063   6.693   1.631   7.639
 9274WAT     H128064   6.640   1.697   7.692
 9274WAT     H228065   6.722   1.672   7.553
 9275WAT      O28066   6.517   8.051   0.623
 9275WAT     H128067   6.482   8.074   0.714
 9275WAT     H228068   6.494   7.956   0.601
 9276WAT      O28069   0.244   6.809   8.332
 9276WAT     H128070   0.266   6.762   8.246
 9276WAT     H228071   0.328   6.843   8.374
 9277WAT      O28072   2.026   6.470   6.523
 9277WAT     H128073   2.021   6.372   6.502
 9277WAT     H228074   2.028   6.482   6.622
 9278WAT      O28075   7.013   1.156   2.684
 9278WAT     H128076   6.968   1.097   2.617
 9278WAT     H228077   6.982   1.131   2.776
 9279WAT      O28078   7.179   5.869   8.768
 9279WAT     H128079   7.223   5.953   8.737
 9279WAT     H228080   7.124   5.831   8.694
 9280WAT      O28081   8.151   7.322   5.690
 9280WAT     H128082   8.136   7.346   5.594
 9280WAT     H228083   8.067   7.282   5.727
 9281WAT      O28084   6.635   8.138   3.379
 9281WAT     H128085   6.570   8.070   3.346
 9281WAT     H228086   6.725   8.096   3.390
 9282WAT      O28087   6.686   3.862   3.841
 9282WAT     H128088   6.621   3.851   3.916
 9282WAT     H228089   6.773   3.820   3.865
 9283WAT      O28090   0.393   2.807   2.736
 9283WAT     H128091   0.462   2.847   2.677
 9283WAT     H228092   0.335   2.879   2.774
 9284WAT      O28093   7.660   9.262   0.021
 9284WAT     H128094   7.603   9.330   0.067
 9284WAT     H228095   7.606   9.216  -0.050
 9285WAT      O28096   8.055   8.883   5.330
 9285WAT     H128097   8.084   8.849   5.241
 9285WAT     H228098   8.045   8.983   5.327
 9286WAT      O28099   3.036   5.228   9.328
 9286WAT     H128100   2.976   5.269   9.259
 9286WAT     H228101   3.054   5.133   9.304
 9287WAT      O28102   4.012   7.723   0.675
 9287WAT     H128103   3.975   7.694   0.764
 9287WAT     H228104   3.974   7.665   0.603
 9288WAT      O28105   6.682   7.849   7.248
 9288WAT     H128106   6.683   7.859   7.148
 9288WAT     H228107   6.591   7.822   7.278
 9289WAT      O28108   8.513   3.992   7.948
 9289WAT     H128109   8.550   3.902   7.970
 9289WAT     H228110   8.461   3.988   7.863
 9290WAT      O28111   9.432   9.030   9.780
 9290WAT     H128112   9.374   9.092   9.727
 9290WAT     H228113   9.389   8.941   9.788
 9291WAT      O28114   5.167   3.019   2.303
 9291WAT     H128115   5.184   3.106   2.349
 9291WAT     H228116   5.254   2.980   2.272
 9292WAT      O28117   3.676   2.661   7.179
 9292WAT     H128118   3.669   2.579   7.235
 9292WAT     H228119   3.596   2.668   7.119
 9293WAT      O28120   8.123   8.034   5.568
 9293WAT     H128121   8.130   8.060   5.471
 9293WAT     H228122   8.146   7.938   5.579
 9294WAT      O28123   2.354   7.245   5.592
 9294WAT     H128124   2.363   7.236   5.691
 9294WAT     H228125   2.350   7.342   5.567
 9295WAT      O28126   0.218   7.795   2.075
 9295WAT     H128127   0.148   7.833   2.015
 9295WAT     H228128   0.303   7.847   2.064
 9296WAT      O28129   7.265   0.496   6.901
 9296WAT     H128130   7.263   0.397   6.909
 9296WAT     H228131   7.321   0.534   6.975
 9297WAT      O28132   6.498   9.029   2.858
 9297WAT     H128133   6.518   9.073   2.945
 9297WAT     H228134   6.465   9.098   2.793
 9298WAT      O28135   0.817   4.048   6.844
 9298WAT     H128136   0.882   3.999   6.902
 9298WAT     H228137   0.851   4.048   6.750
 9299WAT      O28138   8.667   6.940   5.729
 9299WAT     H128139   8.645   6.917   5.634
 9299WAT     H228140   8.585   6.932   5.785
 9300WAT      O28141   3.588   4.205   6.645
 9300WAT     H128142   3.552   4.265   6.717
 9300WAT     H228143   3.521   4.199   6.571
 9301WAT      O28144   8.810   3.511   6.134
 9301WAT     H128145   8.867   3.429   6.128
 9301WAT     H228146   8.763   3.512   6.223
 9302WAT      O28147   3.473   1.144   6.573
 9302WAT     H128148   3.482   1.234   6.531
 9302WAT     H228149   3.435   1.154   6.666
 9303WAT      O28150   1.574   6.571   2.314
 9303WAT     H128151   1.659   6.539   2.357
 9303WAT     H228152   1.594   6.649   2.256
 9304WAT      O28153   5.184   7.232   1.012
 9304WAT     H128154   5.139   7.151   0.975
 9304WAT     H228155   5.146   7.254   1.101
 9305WAT      O28156   6.359   9.381   6.151
 9305WAT     H128157   6.424   9.457   6.151
 9305WAT     H228158   6.332   9.361   6.057
 9306WAT      O28159   3.636   7.777   7.498
 9306WAT     H128160   3.644   7.685   7.460
 9306WAT     H228161   3.724   7.804   7.539
 9307WAT      O28162   6.368   4.610   0.414
 9307WAT     H128163   6.447   4.576   0.364
 9307WAT     H228164   6.396   4.686   0.473
 9308WAT      O28165   3.033   0.086   5.968
 9308WAT     H128166   3.040   0.182   5.993
 9308WAT     H228167   2.946   0.049   5.999
 9309WAT      O28168   0.596   0.890   9.630
 9309WAT     H128169   0.648   0.967   9.592
 9309WAT     H228170   0.594   0.815   9.564
 9310WAT      O28171   2.200   5.306   7.321
 9310WAT     H128172   2.272   5.267   7.379
 9310WAT     H228173   2.112   5.298   7.367
 9311WAT      O28174   5.834   4.242   8.309
 9311WAT     H128175   5.879   4.194   8.234
 9311WAT     H228176   5.736   4.252   8.288
 9312WAT      O28177   2.454   4.707   1.494
 9312WAT     H128178   2.523   4.669   1.555
 9312WAT     H228179   2.384   4.754   1.547
 9313WAT      O28180   9.539   9.493   1.692
 9313WAT     H128181   9.544   9.582   1.736
 9313WAT     H228182   9.448   9.479   1.653
 9314WAT      O28183   3.577   2.099   0.507
 9314WAT     H128184   3.604   2.147   0.590
 9314WAT     H228185   3.647   2.113   0.436
 9315WAT      O28186   0.084   4.918   5.942
 9315WAT     H128187   0.047   4.893   5.853
 9315WAT     H228188   0.040   4.863   6.013
 9316WAT      O28189   1.903   2.469   3.638
 9316WAT     H128190   1.999   2.465   3.610
 9316WAT     H228191   1.877   2.564   3.655
 9317WAT      O28192   4.468   8.968   6.392
 9317WAT     H128193   4.384   8.988   6.441
 9317WAT     H228194   4.530   9.046   6.398
 9318WAT      O28195   8.781   8.290   3.666
 9318WAT     H128196   8.852   8.306   3.735
 9318WAT     H228197   8.816   8.317   3.576
 9319WAT      O28198   9.565   8.717   5.821
 9319WAT     H128199   9.580   8.647   5.750
 9319WAT     H228200   9.522   8.675   5.901
 9320WAT      O28201   5.476   3.630   5.933
 9320WAT     H128202   5.422   3.704   5.891
 9320WAT     H228203   5.529   3.583   5.863
 9321WAT      O28204   4.164   3.312   4.674
 9321WAT     H128205   4.164   3.292   4.772
 9321WAT     H228206   4.103   3.389   4.655
 9322WAT      O28207   8.222   8.554   4.377
 9322WAT     H128208   8.131   8.589   4.401
 9322WAT     H228209   8.250   8.486   4.445
 9323WAT      O28210   8.826   7.965   3.836
 9323WAT     H128211   8.773   8.003   3.760
 9323WAT     H228212   8.780   7.884   3.872
 9324WAT      O28213   6.299   6.147   2.038
 9324WAT     H128214   6.286   6.226   1.978
 9324WAT     H228215   6.235   6.153   2.114
 9325WAT      O28216   0.085   3.257   5.645
 9325WAT     H128217   0.144   3.308   5.708
 9325WAT     H228218  -0.008   3.253   5.682
 9326WAT      O28219   3.999   2.072   2.273
 9326WAT     H128220   4.020   2.077   2.371
 9326WAT     H228221   3.946   1.989   2.255
 9327WAT      O28222   0.867   9.064   6.973
 9327WAT     H128223   0.919   9.052   6.888
 9327WAT     H228224   0.811   8.983   6.989
 9328WAT      O28225   8.942   9.636   7.266
 9328WAT     H128226   8.947   9.646   7.167
 9328WAT     H228227   9.034   9.631   7.304
 9329WAT      O28228   4.401   1.183   6.756
 9329WAT     H128229   4.349   1.102   6.785
 9329WAT     H228230   4.345   1.265   6.766
 9330WAT      O28231   4.077   5.934   3.714
 9330WAT     H128232   4.151   5.927   3.782
 9330WAT     H228233   4.103   5.884   3.632
 9331WAT      O28234   8.943   3.607   0.595
 9331WAT     H128235   8.925   3.550   0.675
 9331WAT     H228236   9.037   3.640   0.599
 9332WAT      O28237   2.638   2.187   2.811
 9332WAT     H128238   2.724   2.152   2.772
 9332WAT     H228239   2.566   2.119   2.799
 9333WAT      O28240   2.898   2.855   5.796
 9333WAT     H128241   2.815   2.843   5.741
 9333WAT     H228242   2.872   2.866   5.892
 9334WAT      O28243   0.941   8.615   1.226
 9334WAT     H128244   0.844   8.604   1.207
 9334WAT     H228245   0.995   8.575   1.151
 9335WAT      O28246   1.718   6.408   7.781
 9335WAT     H128247   1.750   6.316   7.760
 9335WAT     H228248   1.691   6.454   7.696
 9336WAT      O28249   1.649   2.134   1.393
 9336WAT     H128250   1.557   2.171   1.407
 9336WAT     H228251   1.712   2.177   1.457
 9337WAT      O28252   1.440   9.501   0.642
 9337WAT     H128253   1.471   9.449   0.562
 9337WAT     H228254   1.389   9.581   0.612
 9338WAT      O28255   3.591   7.966   0.609
 9338WAT     H128256   3.637   7.928   0.529
 9338WAT     H228257   3.507   8.013   0.580
 9339WAT      O28258   9.799   1.422   8.785
 9339WAT     H128259   9.819   1.505   8.733
 9339WAT     H228260   9.724   1.372   8.742
 9340WAT      O28261   0.756   6.485   8.300
 9340WAT     H128262   0.773   6.392   8.268
 9340WAT     H228263   0.808   6.550   8.245
 9341WAT      O28264   5.340   7.504   6.795
 9341WAT     H128265   5.353   7.485   6.697
 9341WAT     H228266   5.429   7.513   6.840
 9342WAT      O28267   0.354   9.354   0.629
 9342WAT     H128268   0.360   9.428   0.562
 9342WAT     H228269   0.429   9.361   0.694
 9343WAT      O28270   6.223   5.489   1.937
 9343WAT     H128271   6.159   5.547   1.888
 9343WAT     H228272   6.172   5.421   1.990
 9344WAT      O28273   1.682   1.280   6.993
 9344WAT     H128274   1.614   1.285   6.920
 9344WAT     H228275   1.652   1.214   7.062
 9345WAT      O28276   9.154   8.820   3.003
 9345WAT     H128277   9.250   8.798   3.020
 9345WAT     H228278   9.109   8.841   3.090
 9346WAT      O28279   5.764   9.410   2.657
 9346WAT     H128280   5.670   9.413   2.625
 9346WAT     H228281   5.821   9.362   2.590
 9347WAT      O28282   1.789   4.482   1.492
 9347WAT     H128283   1.865   4.545   1.473
 9347WAT     H228284   1.728   4.479   1.413
 9348WAT      O28285   9.099   4.880   2.639
 9348WAT     H128286   9.163   4.804   2.627
 9348WAT     H228287   9.005   4.846   2.629
 9349WAT      O28288   7.984   7.116   5.909
 9349WAT     H128289   7.991   7.019   5.884
 9349WAT     H228290   7.931   7.164   5.840
 9350WAT      O28291   2.554   3.804   0.738
 9350WAT     H128292   2.652   3.807   0.716
 9350WAT     H228293   2.503   3.781   0.655
 9351WAT      O28294   2.338   3.560   1.375
 9351WAT     H128295   2.293   3.596   1.293
 9351WAT     H228296   2.326   3.625   1.450
 9352WAT      O28297   3.893   7.181   6.344
 9352WAT     H128298   3.856   7.245   6.412
 9352WAT     H228299   3.946   7.231   6.276
 9353WAT      O28300   9.641   1.688   7.983
 9353WAT     H128301   9.716   1.724   8.038
 9353WAT     H228302   9.558   1.682   8.038
 9354WAT      O28303   3.593   1.473   6.128
 9354WAT     H128304   3.604   1.565   6.090
 9354WAT     H228305   3.509   1.469   6.182
 9355WAT      O28306   0.828   3.106   6.484
 9355WAT     H128307   0.872   3.065   6.404
 9355WAT     H228308   0.729   3.105   6.471
 9356WAT      O28309   9.588   4.004   9.289
 9356WAT     H128310   9.614   4.082   9.346
 9356WAT     H228311   9.617   4.020   9.195
 9357WAT      O28312   8.998   9.158   7.715
 9357WAT     H128313   9.011   9.258   7.720
 9357WAT     H228314   8.902   9.138   7.696
 9358WAT      O28315   5.338   4.088   5.477
 9358WAT     H128316   5.270   4.146   5.432
 9358WAT     H228317   5.335   4.104   5.576
 9359WAT      O28318   4.743   7.292   1.710
 9359WAT     H128319   4.714   7.231   1.784
 9359WAT     H228320   4.806   7.361   1.746
 9360WAT      O28321   3.023   6.926   8.515
 9360WAT     H128322   2.980   6.850   8.466
 9360WAT     H228323   2.953   6.978   8.565
 9361WAT      O28324   5.353   3.321   8.674
 9361WAT     H128325   5.362   3.236   8.727
 9361WAT     H228326   5.259   3.330   8.642
 9362WAT      O28327   1.489   5.768   5.553
 9362WAT     H128328   1.434   5.736   5.631
 9362WAT     H228329   1.483   5.702   5.479
 9363WAT      O28330   4.835   5.528   6.906
 9363WAT     H128331   4.757   5.475   6.871
 9363WAT     H228332   4.878   5.578   6.831
 9364WAT      O28333   8.798   2.587   6.700
 9364WAT     H128334   8.874   2.640   6.663
 9364WAT     H228335   8.748   2.543   6.625
 9365WAT      O28336   8.401   3.997   6.277
 9365WAT     H128337   8.476   4.030   6.219
 9365WAT     H228338   8.432   3.993   6.372
 9366WAT      O28339   6.366   7.355   1.214
 9366WAT     H128340   6.353   7.340   1.116
 9366WAT     H228341   6.444   7.301   1.246
 9367WAT      O28342   8.625   7.237   7.089
 9367WAT     H128343   8.527   7.232   7.111
 9367WAT     H228344   8.664   7.145   7.091
 9368WAT      O28345   6.067   8.045   4.985
 9368WAT     H128346   6.091   8.070   5.078
 9368WAT     H228347   6.133   7.978   4.950
 9369WAT      O28348   9.605   0.171   5.585
 9369WAT     H128349   9.652   0.191   5.671
 9369WAT     H228350   9.592   0.255   5.534
 9370WAT      O28351   3.306   2.417   8.942
 9370WAT     H128352   3.398   2.388   8.915
 9370WAT     H228353   3.285   2.382   9.034
 9371WAT      O28354   7.499   0.317   4.395
 9371WAT     H128355   7.556   0.399   4.398
 9371WAT     H228356   7.442   0.318   4.313
 9372WAT      O28357   3.322   8.000   6.717
 9372WAT     H128358   3.269   7.965   6.795
 9372WAT     H228359   3.260   8.031   6.645
 9373WAT      O28360   6.389   9.665   5.532
 9373WAT     H128361   6.451   9.635   5.605
 9373WAT     H228362   6.407   9.761   5.510
 9374WAT      O28363   4.984   2.811   5.889
 9374WAT     H128364   4.913   2.843   5.951
 9374WAT     H228365   5.011   2.885   5.828
 9375WAT      O28366   8.199   1.430   1.635
 9375WAT     H128367   8.249   1.516   1.645
 9375WAT     H228368   8.217   1.372   1.715
 9376WAT      O28369   8.259   2.175   8.686
 9376WAT     H128370   8.263   2.147   8.590
 9376WAT     H228371   8.290   2.270   8.694
 9377WAT      O28372   8.240   7.178   2.275
 9377WAT     H128373   8.227   7.276   2.263
 9377WAT     H228374   8.283   7.160   2.363
 9378WAT      O28375   6.365   9.514   6.390
 9378WAT     H128376   6.348   9.461   6.473
 9378WAT     H228377   6.358   9.455   6.310
 9379WAT      O28378   7.413   8.363   5.574
 9379WAT     H128379   7.415   8.340   5.476
 9379WAT     H228380   7.318   8.367   5.605
 9380WAT      O28381   5.801   9.092   5.217
 9380WAT     H128382   5.837   9.000   5.207
 9380WAT     H228383   5.876   9.157   5.223
 9381WAT      O28384   5.655   8.395   9.485
 9381WAT     H128385   5.676   8.423   9.391
 9381WAT     H228386   5.615   8.471   9.535
 9382WAT      O28387   0.530   0.594   2.990
 9382WAT     H128388   0.503   0.502   3.018
 9382WAT     H228389   0.613   0.589   2.935
 9383WAT      O28390   5.867   1.007   8.584
 9383WAT     H128391   5.810   1.043   8.658
 9383WAT     H228392   5.812   0.946   8.526
 9384WAT      O28393   2.717   9.764   9.512
 9384WAT     H128394   2.808   9.763   9.552
 9384WAT     H228395   2.708   9.687   9.449
 9385WAT      O28396   1.494   1.943   0.409
 9385WAT     H128397   1.444   2.008   0.467
 9385WAT     H228398   1.482   1.968   0.313
 9386WAT      O28399   7.189   5.822   7.846
 9386WAT     H128400   7.235   5.767   7.915
 9386WAT     H228401   7.200   5.919   7.869
 9387WAT      O28402   3.368   9.764   8.291
 9387WAT     H128403   3.387   9.826   8.367
 9387WAT     H228404   3.276   9.725   8.302
 9388WAT      O28405   0.084   7.519   3.496
 9388WAT     H128406   0.160   7.457   3.481
 9388WAT     H228407   0.067   7.572   3.413
 9389WAT      O28408   3.145   5.375   1.735
 9389WAT     H128409   3.186   5.462   1.763
 9389WAT     H228410   3.097   5.334   1.813
 9390WAT      O28411   5.006   8.197   7.659
 9390WAT     H128412   4.912   8.189   7.695
 9390WAT     H228413   5.025   8.292   7.636
 9391WAT      O28414   3.363   0.951   0.869
 9391WAT     H128415   3.396   0.878   0.929
 9391WAT     H228416   3.431   1.024   0.865
 9392WAT      O28417   9.054   9.405   2.016
 9392WAT     H128418   9.117   9.335   1.983
 9392WAT     H228419   8.961   9.383   1.987
 9393WAT      O28420   6.749   8.913   7.061
 9393WAT     H128421   6.710   8.953   7.145
 9393WAT     H228422   6.685   8.927   6.986
 9394WAT      O28423   0.288   1.207   7.594
 9394WAT     H128424   0.315   1.301   7.613
 9394WAT     H228425   0.287   1.192   7.495
 9395WAT      O28426   6.932   6.071   8.623
 9395WAT     H128427   6.853   6.092   8.681
 9395WAT     H228428   6.901   6.034   8.536
 9396WAT      O28429   0.621   3.848   4.301
 9396WAT     H128430   0.669   3.925   4.342
 9396WAT     H228431   0.570   3.879   4.220
 9397WAT      O28432   5.393   5.294   7.771
 9397WAT     H128433   5.361   5.379   7.813
 9397WAT     H228434   5.415   5.310   7.675
 9398WAT      O28435   8.760   0.630   2.672
 9398WAT     H128436   8.717   0.606   2.759
 9398WAT     H228437   8.808   0.550   2.636
 9399WAT      O28438   7.898   3.774   3.246
 9399WAT     H128439   7.844   3.721   3.311
 9399WAT     H228440   7.904   3.869   3.277
 9400WAT      O28441   1.725   5.911   3.425
 9400WAT     H128442   1.704   6.008   3.435
 9400WAT     H228443   1.683   5.860   3.500
 9401WAT      O28444   8.247   1.693   3.984
 9401WAT     H128445   8.245   1.660   4.079
 9401WAT     H228446   8.235   1.792   3.983
 9402WAT      O28447   4.617   3.930   6.139
 9402WAT     H128448   4.641   3.995   6.211
 9402WAT     H228449   4.528   3.890   6.159
 9403WAT      O28450   0.624   3.369   5.804
 9403WAT     H128451   0.556   3.298   5.782
 9403WAT     H228452   0.636   3.428   5.724
 9404WAT      O28453   5.572   2.720   9.748
 9404WAT     H128454   5.663   2.680   9.745
 9404WAT     H228455   5.512   2.665   9.806
 9405WAT      O28456   7.440   4.759   9.180
 9405WAT     H128457   7.348   4.788   9.153
 9405WAT     H228458   7.456   4.666   9.148
 9406WAT      O28459   8.169   5.859   5.166
 9406WAT     H128460   8.082   5.823   5.199
 9406WAT     H228461   8.183   5.830   5.071
 9407WAT      O28462   8.438   2.121   0.578
 9407WAT     H128463   8.349   2.151   0.544
 9407WAT     H228464   8.484   2.068   0.507
 9408WAT      O28465   7.016   2.054   6.377
 9408WAT     H128466   6.978   2.146   6.370
 9408WAT     H228467   7.067   2.033   6.293
 9409WAT      O28468   8.011   5.640   1.944
 9409WAT     H128469   7.926   5.628   1.996
 9409WAT     H228470   7.993   5.694   1.862
 9410WAT      O28471   9.790   5.709   5.246
 9410WAT     H128472   9.854   5.785   5.251
 9410WAT     H228473   9.837   5.628   5.210
 9411WAT      O28474   3.152   4.666   5.122
 9411WAT     H128475   3.121   4.681   5.216
 9411WAT     H228476   3.076   4.682   5.059
 9412WAT      O28477   6.461   5.329   7.747
 9412WAT     H128478   6.412   5.328   7.659
 9412WAT     H228479   6.503   5.239   7.762
 9413WAT      O28480   1.360   9.226   6.887
 9413WAT     H128481   1.413   9.189   6.963
 9413WAT     H228482   1.280   9.168   6.871
 9414WAT      O28483   5.795   9.565   9.851
 9414WAT     H128484   5.805   9.470   9.880
 9414WAT     H228485   5.759   9.568   9.758
 9415WAT      O28486   1.388   2.272   7.070
 9415WAT     H128487   1.474   2.296   7.025
 9415WAT     H228488   1.363   2.178   7.048
 9416WAT      O28489   0.647   5.054   9.220
 9416WAT     H128490   0.664   4.956   9.214
 9416WAT     H228491   0.716   5.096   9.279
 9417WAT      O28492   5.586   8.931   5.437
 9417WAT     H128493   5.509   8.904   5.378
 9417WAT     H228494   5.657   8.974   5.380
 9418WAT      O28495   8.208   8.788   6.668
 9418WAT     H128496   8.233   8.803   6.572
 9418WAT     H228497   8.111   8.764   6.674
 9419WAT      O28498   0.649   5.497   6.757
 9419WAT     H128499   0.680   5.461   6.845
 9419WAT     H228500   0.604   5.585   6.771
 9420WAT      O28501   2.630   4.539   0.811
 9420WAT     H128502   2.580   4.457   0.836
 9420WAT     H228503   2.703   4.516   0.747
 9421WAT      O28504   8.682   6.698   4.288
 9421WAT     H128505   8.694   6.601   4.309
 9421WAT     H228506   8.764   6.734   4.243
 9422WAT      O28507   0.668   4.816   8.228
 9422WAT     H128508   0.763   4.817   8.257
 9422WAT     H228509   0.614   4.761   8.291
 9423WAT      O28510   5.421   8.629   2.062
 9423WAT     H128511   5.447   8.693   2.135
 9423WAT     H228512   5.408   8.538   2.101
 9424WAT      O28513   5.573   8.672   2.718
 9424WAT     H128514   5.641   8.619   2.769
 9424WAT     H228515   5.493   8.615   2.702
 9425WAT      O28516   1.386   2.508   9.100
 9425WAT     H128517   1.443   2.468   9.172
 9425WAT     H228518   1.425   2.486   9.011
 9426WAT      O28519   5.747   5.728   3.359
 9426WAT     H128520   5.771   5.813   3.406
 9426WAT     H228521   5.797   5.652   3.401
 9427WAT      O28522   3.652   3.679   8.001
 9427WAT     H128523   3.629   3.770   7.967
 9427WAT     H228524   3.735   3.683   8.056
 9428WAT      O28525   0.298   8.139   7.140
 9428WAT     H128526   0.271   8.229   7.176
 9428WAT     H228527   0.308   8.145   7.041
 9429WAT      O28528   3.142   6.586   1.949
 9429WAT     H128529   3.042   6.576   1.947
 9429WAT     H228530   3.184   6.509   1.901
 9430WAT      O28531   6.993   0.417   0.573
 9430WAT     H128532   6.917   0.450   0.518
 9430WAT     H228533   7.044   0.495   0.611
 9431WAT      O28534   0.547   3.948   3.235
 9431WAT     H128535   0.523   3.931   3.330
 9431WAT     H228536   0.645   3.969   3.229
 9432WAT      O28537   7.980   2.006   8.435
 9432WAT     H128538   7.958   2.042   8.345
 9432WAT     H228539   8.077   2.020   8.453
 9433WAT      O28540   9.472   2.053   9.385
 9433WAT     H128541   9.555   2.029   9.334
 9433WAT     H228542   9.485   2.029   9.481
 9434WAT      O28543   7.280   8.150   1.024
 9434WAT     H128544   7.206   8.093   1.059
 9434WAT     H228545   7.256   8.247   1.038
 9435WAT      O28546   2.612   3.149   2.240
 9435WAT     H128547   2.614   3.247   2.218
 9435WAT     H228548   2.545   3.133   2.313
 9436WAT      O28549   5.920   3.338   2.978
 9436WAT     H128550   5.940   3.332   2.880
 9436WAT     H228551   5.833   3.294   2.998
 9437WAT      O28552   7.608   8.539   7.119
 9437WAT     H128553   7.704   8.513   7.116
 9437WAT     H228554   7.587   8.581   7.207
 9438WAT      O28555   1.237   4.995   0.683
 9438WAT     H128556   1.171   5.034   0.619
 9438WAT     H228557   1.232   4.895   0.679
 9439WAT      O28558   3.327   9.071   9.153
 9439WAT     H128559   3.358   9.139   9.086
 9439WAT     H228560   3.405   9.038   9.205
 9440WAT      O28561   7.350   8.164   9.167
 9440WAT     H128562   7.361   8.086   9.104
 9440WAT     H228563   7.409   8.239   9.138
 9441WAT      O28564   4.204   4.210   7.895
 9441WAT     H128565   4.194   4.216   7.796
 9441WAT     H228566   4.174   4.296   7.937
 9442WAT      O28567   6.500   8.766   1.205
 9442WAT     H128568   6.515   8.839   1.272
 9442WAT     H228569   6.402   8.745   1.199
 9443WAT      O28570   9.163   2.248   8.385
 9443WAT     H128571   9.187   2.163   8.339
 9443WAT     H228572   9.066   2.248   8.410
 9444WAT      O28573   0.464   4.194   8.081
 9444WAT     H128574   0.416   4.148   8.006
 9444WAT     H228575   0.504   4.279   8.047
 9445WAT      O28576   8.025   2.000   1.508
 9445WAT     H128577   8.036   1.902   1.488
 9445WAT     H228578   7.934   2.016   1.546
 9446WAT      O28579   9.073   8.806   8.978
 9446WAT     H128580   9.018   8.788   9.059
 9446WAT     H228581   9.069   8.903   8.955
 9447WAT      O28582   3.544   0.994   6.208
 9447WAT     H128583   3.614   1.033   6.268
 9447WAT     H228584   3.458   0.983   6.259
 9448WAT      O28585   5.059   3.580   7.778
 9448WAT     H128586   5.006   3.595   7.861
 9448WAT     H228587   5.151   3.550   7.802
 9449WAT      O28588   3.425   0.621   3.725
 9449WAT     H128589   3.357   0.647   3.657
 9449WAT     H228590   3.475   0.540   3.694
 9450WAT      O28591   8.252   7.746   8.217
 9450WAT     H128592   8.264   7.820   8.152
 9450WAT     H228593   8.187   7.679   8.181
 9451WAT      O28594   8.939   4.789   3.120
 9451WAT     H128595   8.868   4.764   3.185
 9451WAT     H228596   9.015   4.724   3.127
 9452WAT      O28597   5.869   7.419   6.505
 9452WAT     H128598   5.875   7.475   6.422
 9452WAT     H228599   5.774   7.413   6.534
 9453WAT      O28600   7.147   0.466   9.434
 9453WAT     H128601   7.177   0.506   9.521
 9453WAT     H228602   7.113   0.373   9.450
 9454WAT      O28603   7.092   7.014   7.086
 9454WAT     H128604   7.048   7.088   7.136
 9454WAT     H228605   7.180   7.045   7.049
 9455WAT      O28606   6.371   3.526   9.118
 9455WAT     H128607   6.350   3.436   9.079
 9455WAT     H228608   6.426   3.578   9.052
 9456WAT      O28609   8.708   1.594   8.630
 9456WAT     H128610   8.696   1.545   8.716
 9456WAT     H228611   8.660   1.682   8.635
 9457WAT      O28612   5.126   6.541   6.300
 9457WAT     H128613   5.071   6.623   6.316
 9457WAT     H228614   5.137   6.490   6.385
 9458WAT      O28615   0.737   4.067   7.355
 9458WAT     H128616   0.692   4.019   7.279
 9458WAT     H228617   0.732   4.166   7.339
 9459WAT      O28618   6.092   3.631   4.333
 9459WAT     H128619   6.093   3.717   4.383
 9459WAT     H228620   6.122   3.557   4.393
 9460WAT      O28621   3.672   2.111   1.525
 9460WAT     H128622   3.720   2.139   1.442
 9460WAT     H228623   3.624   2.025   1.508
 9461WAT      O28624   6.707   6.968   6.894
 9461WAT     H128625   6.752   6.984   6.806
 9461WAT     H228626   6.768   6.914   6.953
 9462WAT      O28627   5.909   7.129   8.900
 9462WAT     H128628   5.876   7.155   8.809
 9462WAT     H228629   6.007   7.112   8.897
 9463WAT      O28630   6.161   7.450   0.696
 9463WAT     H128631   6.252   7.493   0.697
 9463WAT     H228632   6.128   7.440   0.790
 9464WAT      O28633   3.531   9.445   1.711
 9464WAT     H128634   3.463   9.446   1.637
 9464WAT     H228635   3.483   9.443   1.799
 9465WAT      O28636   4.846   1.271   9.753
 9465WAT     H128637   4.833   1.369   9.740
 9465WAT     H228638   4.758   1.224   9.746
 9466WAT      O28639   4.060   0.408   5.628
 9466WAT     H128640   4.054   0.458   5.714
 9466WAT     H228641   4.156   0.382   5.612
 9467WAT      O28642   2.939   5.420   2.207
 9467WAT     H128643   2.916   5.457   2.298
 9467WAT     H228644   3.001   5.484   2.161
 9468WAT      O28645   1.350   8.460   7.296
 9468WAT     H128646   1.324   8.405   7.217
 9468WAT     H228647   1.274   8.521   7.320
 9469WAT      O28648   0.488   8.691   6.965
 9469WAT     H128649   0.430   8.770   6.982
 9469WAT     H228650   0.490   8.633   7.047
 9470WAT      O28651   7.577   3.997   7.885
 9470WAT     H128652   7.659   4.056   7.885
 9470WAT     H228653   7.601   3.907   7.921
 9471WAT      O28654   7.641   3.760   7.144
 9471WAT     H128655   7.582   3.761   7.225
 9471WAT     H228656   7.730   3.797   7.167
 9472WAT      O28657   7.836   8.262   0.542
 9472WAT     H128658   7.798   8.309   0.621
 9472WAT     H228659   7.762   8.221   0.489
 9473WAT      O28660   9.684   5.435   7.271
 9473WAT     H128661   9.648   5.521   7.309
 9473WAT     H228662   9.609   5.368   7.266
 9474WAT      O28663   5.338   7.104   6.479
 9474WAT     H128664   5.266   7.161   6.518
 9474WAT     H228665   5.317   7.085   6.383
 9475WAT      O28666   1.341   7.368   2.146
 9475WAT     H128667   1.308   7.458   2.175
 9475WAT     H228668   1.273   7.298   2.171
 9476WAT      O28669   6.329   5.748   2.586
 9476WAT     H128670   6.262   5.822   2.579
 9476WAT     H228671   6.306   5.690   2.665
 9477WAT      O28672   4.121   2.172   3.109
 9477WAT     H128673   4.191   2.243   3.121
 9477WAT     H228674   4.062   2.197   3.032
 9478WAT      O28675   4.510   4.392   1.378
 9478WAT     H128676   4.464   4.304   1.389
 9478WAT     H228677   4.444   4.459   1.343
 9479WAT      O28678   6.502   1.669   0.988
 9479WAT     H128679   6.528   1.602   0.918
 9479WAT     H228680   6.486   1.623   1.075
 9480WAT      O28681   4.422   9.763   7.381
 9480WAT     H128682   4.350   9.706   7.342
 9480WAT     H228683   4.509   9.713   7.378
 9481WAT      O28684   1.991   4.179   5.022
 9481WAT     H128685   1.945   4.091   5.025
 9481WAT     H228686   2.085   4.167   4.991
 9482WAT      O28687   3.016   0.154   8.554
 9482WAT     H128688   2.987   0.171   8.648
 9482WAT     H228689   3.098   0.208   8.535
 9483WAT      O28690   4.610   6.711   9.094
 9483WAT     H128691   4.655   6.799   9.081
 9483WAT     H228692   4.657   6.641   9.040
 9484WAT      O28693   2.996   0.495   8.397
 9484WAT     H128694   3.058   0.418   8.415
 9484WAT     H228695   2.975   0.497   8.299
 9485WAT      O28696   8.954   0.288   8.963
 9485WAT     H128697   8.878   0.324   8.908
 9485WAT     H228698   9.033   0.273   8.903
 9486WAT      O28699   4.209   7.669   3.590
 9486WAT     H128700   4.182   7.609   3.666
 9486WAT     H228701   4.242   7.613   3.514
 9487WAT      O28702   1.973   3.129   4.809
 9487WAT     H128703   1.910   3.092   4.740
 9487WAT     H228704   2.002   3.055   4.870
 9488WAT      O28705   3.592   3.660   2.936
 9488WAT     H128706   3.648   3.741   2.951
 9488WAT     H228707   3.562   3.657   2.841
 9489WAT      O28708   6.060   9.151   7.883
 9489WAT     H128709   6.122   9.136   7.806
 9489WAT     H228710   6.068   9.075   7.947
 9490WAT      O28711   5.851   8.346   6.460
 9490WAT     H128712   5.863   8.334   6.558
 9490WAT     H228713   5.913   8.417   6.427
 9491WAT      O28714   7.130   8.774   5.952
 9491WAT     H128715   7.162   8.865   5.979
 9491WAT     H228716   7.203   8.708   5.967
 9492WAT      O28717   2.204   8.462   4.516
 9492WAT     H128718   2.194   8.422   4.607
 9492WAT     H228719   2.124   8.439   4.460
 9493WAT      O28720   4.436   8.619   5.570
 9493WAT     H128721   4.428   8.709   5.612
 9493WAT     H228722   4.532   8.591   5.569
 9494WAT      O28723   5.691   2.188   8.679
 9494WAT     H128724   5.616   2.253   8.693
 9494WAT     H228725   5.670   2.102   8.725
 9495WAT      O28726   0.347   0.874   4.033
 9495WAT     H128727   0.303   0.826   3.958
 9495WAT     H228728   0.321   0.971   4.032
 9496WAT      O28729   1.823   4.416   7.815
 9496WAT     H128730   1.784   4.427   7.724
 9496WAT     H228731   1.779   4.339   7.861
 9497WAT      O28732   7.094   1.422   6.887
 9497WAT     H128733   7.092   1.386   6.980
 9497WAT     H228734   7.173   1.384   6.838
 9498WAT      O28735   9.857   0.552   3.250
 9498WAT     H128736   9.804   0.477   3.290
 9498WAT     H228737   9.826   0.639   3.288
 9499WAT      O28738   2.050   9.822   9.570
 9499WAT     H128739   2.054   9.859   9.477
 9499WAT     H228740   1.971   9.762   9.579
 9500WAT      O28741   6.076   1.682   9.885
 9500WAT     H128742   6.088   1.677   9.984
 9500WAT     H228743   6.009   1.614   9.856
 9501WAT      O28744   2.795   3.859   1.669
 9501WAT     H128745   2.739   3.783   1.637
 9501WAT     H228746   2.826   3.912   1.591
 9502WAT      O28747   0.267   4.371   9.696
 9502WAT     H128748   0.316   4.334   9.617
 9502WAT     H228749   0.333   4.411   9.760
 9503WAT      O28750   3.827   5.979   8.503
 9503WAT     H128751   3.748   6.021   8.458
 9503WAT     H228752   3.846   6.027   8.589
 9504WAT      O28753   1.974   5.738   0.074
 9504WAT     H128754   1.878   5.709   0.078
 9504WAT     H228755   2.033   5.658   0.085
 9505WAT      O28756   8.163   5.038   5.520
 9505WAT     H128757   8.175   4.939   5.532
 9505WAT     H228758   8.145   5.058   5.424
 9506WAT      O28759   7.291   1.953   0.802
 9506WAT     H128760   7.294   1.883   0.873
 9506WAT     H228761   7.241   1.918   0.723
 9507WAT      O28762   6.625   5.592   5.652
 9507WAT     H128763   6.562   5.660   5.689
 9507WAT     H228764   6.617   5.507   5.704
 9508WAT      O28765   9.020   0.435   4.596
 9508WAT     H128766   9.052   0.417   4.689
 9508WAT     H228767   8.940   0.495   4.599
 9509WAT      O28768   3.073   1.464   8.181
 9509WAT     H128769   3.064   1.523   8.101
 9509WAT     H228770   3.139   1.391   8.162
 9510WAT      O28771   8.589   9.283   6.384
 9510WAT     H128772   8.627   9.372   6.358
 9510WAT     H228773   8.591   9.221   6.306
 9511WAT      O28774   4.233   2.171   5.912
 9511WAT     H128775   4.281   2.164   5.825
 9511WAT     H228776   4.232   2.081   5.956
 9512WAT      O28777   0.196   8.155   9.286
 9512WAT     H128778   0.127   8.201   9.230
 9512WAT     H228779   0.159   8.068   9.320
 9513WAT      O28780   8.506   2.458   2.344
 9513WAT     H128781   8.531   2.503   2.258
 9513WAT     H228782   8.579   2.471   2.412
 9514WAT      O28783   7.156   6.950   0.948
 9514WAT     H128784   7.230   6.885   0.930
 9514WAT     H228785   7.160   6.979   1.044
 9515WAT      O28786   2.453   7.536   4.651
 9515WAT     H128787   2.426   7.496   4.738
 9515WAT     H228788   2.501   7.467   4.596
 9516WAT      O28789   8.661   0.020   2.540
 9516WAT     H128790   8.685  -0.066   2.585
 9516WAT     H228791   8.625  -0.000   2.448
 9517WAT      O28792   9.226   0.354   4.837
 9517WAT     H128793   9.318   0.322   4.816
 9517WAT     H228794   9.177   0.283   4.888
 9518WAT      O28795   0.789   9.207   1.525
 9518WAT     H128796   0.848   9.160   1.589
 9518WAT     H228797   0.835   9.215   1.436
 9519WAT      O28798   3.154   8.352   5.262
 9519WAT     H128799   3.108   8.339   5.350
 9519WAT     H228800   3.231   8.416   5.273
 9520WAT      O28801   4.870   4.827   1.490
 9520WAT     H128802   4.770   4.821   1.487
 9520WAT     H228803   4.909   4.774   1.415
 9521WAT      O28804   9.312   0.725   7.779
 9521WAT     H128805   9.255   0.647   7.752
 9521WAT     H228806   9.408   0.698   7.775
 9522WAT      O28807   0.516   1.458   5.538
 9522WAT     H128808   0.437   1.417   5.582
 9522WAT     H228809   0.583   1.485   5.608
 9523WAT      O28810   3.733   4.722   6.698
 9523WAT     H128811   3.714   4.705   6.795
 9523WAT     H228812   3.773   4.813   6.688
 9524WAT      O28813   4.562   3.652   5.281
 9524WAT     H128814   4.616   3.682   5.359
 9524WAT     H228815   4.467   3.682   5.292
 9525WAT      O28816   6.260   1.941   9.513
 9525WAT     H128817   6.294   1.906   9.425
 9525WAT     H228818   6.336   1.950   9.577
 9526WAT      O28819   8.768   7.582   1.789
 9526WAT     H128820   8.830   7.649   1.830
 9526WAT     H228821   8.675   7.599   1.820
 9527WAT      O28822   4.627   6.626   2.619
 9527WAT     H128823   4.696   6.555   2.638
 9527WAT     H228824   4.626   6.645   2.521
 9528WAT      O28825   3.254   7.131   0.571
 9528WAT     H128826   3.268   7.165   0.664
 9528WAT     H228827   3.278   7.034   0.567
 9529WAT      O28828   6.017   5.082   5.087
 9529WAT     H128829   6.073   5.124   5.015
 9529WAT     H228830   5.941   5.031   5.045
 9530WAT      O28831   6.950   6.909   5.133
 9530WAT     H128832   6.876   6.908   5.065
 9530WAT     H228833   6.919   6.863   5.216
 9531WAT      O28834   9.221   2.795   6.465
 9531WAT     H128835   9.207   2.725   6.395
 9531WAT     H228836   9.206   2.885   6.425
 9532WAT      O28837   5.998   2.270   8.276
 9532WAT     H128838   6.082   2.223   8.249
 9532WAT     H228839   5.953   2.217   8.348
 9533WAT      O28840   6.337   8.473   2.127
 9533WAT     H128841   6.430   8.438   2.124
 9533WAT     H228842   6.273   8.399   2.106
 9534WAT      O28843   2.664   6.612   5.522
 9534WAT     H128844   2.702   6.574   5.438
 9534WAT     H228845   2.572   6.576   5.538
 9535WAT      O28846   0.888   8.376   8.950
 9535WAT     H128847   0.946   8.405   8.874
 9535WAT     H228848   0.921   8.290   8.987
 9536WAT      O28849   0.424   7.334   2.213
 9536WAT     H128850   0.457   7.376   2.298
 9536WAT     H228851   0.332   7.299   2.227
 9537WAT      O28852   2.013   6.512   0.696
 9537WAT     H128853   1.913   6.516   0.705
 9537WAT     H228854   2.036   6.479   0.604
 9538WAT      O28855   1.438   7.616   5.569
 9538WAT     H128856   1.524   7.571   5.543
 9538WAT     H228857   1.431   7.703   5.521
 9539WAT      O28858   8.637   1.433   1.086
 9539WAT     H128859   8.656   1.526   1.053
 9539WAT     H228860   8.604   1.437   1.180
 9540WAT      O28861   7.825   7.009   6.117
 9540WAT     H128862   7.861   7.075   6.051
 9540WAT     H228863   7.781   7.057   6.193
 9541WAT      O28864   5.400   8.895   5.914
 9541WAT     H128865   5.456   8.819   5.947
 9541WAT     H228866   5.456   8.978   5.907
 9542WAT      O28867   5.616   9.300   5.109
 9542WAT     H128868   5.671   9.229   5.153
 9542WAT     H228869   5.522   9.268   5.099
 9543WAT      O28870   4.520   2.283   7.112
 9543WAT     H128871   4.455   2.356   7.092
 9543WAT     H228872   4.475   2.212   7.166
 9544WAT      O28873   4.459   6.868   2.679
 9544WAT     H128874   4.520   6.947   2.672
 9544WAT     H228875   4.508   6.786   2.650
 9545WAT      O28876   4.139   8.370   2.314
 9545WAT     H128877   4.134   8.313   2.395
 9545WAT     H228878   4.141   8.312   2.232
 9546WAT      O28879   8.017   8.024   7.006
 9546WAT     H128880   7.933   7.990   7.050
 9546WAT     H228881   8.051   7.956   6.942
 9547WAT      O28882   2.752   2.431   4.260
 9547WAT     H128883   2.840   2.451   4.304
 9547WAT     H228884   2.718   2.514   4.215
 9548WAT      O28885   8.703   9.452   8.213
 9548WAT     H128886   8.725   9.529   8.154
 9548WAT     H228887   8.730   9.366   8.169
 9549WAT      O28888   6.526   8.776   9.470
 9549WAT     H128889   6.610   8.826   9.493
 9549WAT     H228890   6.450   8.839   9.464
 9550WAT      O28891   7.933   1.362   1.577
 9550WAT     H128892   7.897   1.421   1.504
 9550WAT     H228893   8.032   1.370   1.580
 9551WAT      O28894   2.811   6.869   9.129
 9551WAT     H128895   2.782   6.943   9.190
 9551WAT     H228896   2.802   6.899   9.034
 9552WAT      O28897   0.243   1.056   8.556
 9552WAT     H128898   0.188   0.999   8.495
 9552WAT     H228899   0.242   1.151   8.523
 9553WAT      O28900   3.631   0.629   0.750
 9553WAT     H128901   3.603   0.678   0.833
 9553WAT     H228902   3.573   0.549   0.737
 9554WAT      O28903   7.350   2.605   5.151
 9554WAT     H128904   7.291   2.542   5.202
 9554WAT     H228905   7.315   2.615   5.057
 9555WAT      O28906   8.225   4.369   8.503
 9555WAT     H128907   8.262   4.353   8.595
 9555WAT     H228908   8.235   4.465   8.480
 9556WAT      O28909   8.619   6.639   8.441
 9556WAT     H128910   8.532   6.626   8.393
 9556WAT     H228911   8.681   6.564   8.419
 9557WAT      O28912   4.047   5.402   8.038
 9557WAT     H128913   4.146   5.385   8.033
 9557WAT     H228914   4.028   5.466   8.113
 9558WAT      O28915   8.317   9.531   4.141
 9558WAT     H128916   8.219   9.517   4.158
 9558WAT     H228917   8.353   9.455   4.087
 9559WAT      O28918   8.579   2.115   4.382
 9559WAT     H128919   8.619   2.023   4.379
 9559WAT     H228920   8.633   2.173   4.443
 9560WAT      O28921   2.212   2.165   3.010
 9560WAT     H128922   2.265   2.167   3.095
 9560WAT     H228923   2.182   2.072   2.992
 9561WAT      O28924   4.602   0.670   3.982
 9561WAT     H128925   4.680   0.729   3.967
 9561WAT     H228926   4.536   0.715   4.043
 9562WAT      O28927   5.395   4.288   0.949
 9562WAT     H128928   5.464   4.355   0.975
 9562WAT     H228929   5.406   4.206   1.004
 9563WAT      O28930   2.238   1.031   6.471
 9563WAT     H128931   2.223   1.007   6.375
 9563WAT     H228932   2.253   1.130   6.478
 9564WAT      O28933   9.738   5.267   1.239
 9564WAT     H128934   9.756   5.311   1.327
 9564WAT     H228935   9.723   5.337   1.169
 9565WAT      O28936   8.642   9.074   4.041
 9565WAT     H128937   8.719   9.010   4.052
 9565WAT     H228938   8.608   9.068   3.948
 9566WAT      O28939   8.761   0.383   1.872
 9566WAT     H128940   8.813   0.445   1.813
 9566WAT     H228941   8.678   0.429   1.904
 9567WAT      O28942   8.082   4.000   4.975
 9567WAT     H128943   8.101   4.096   4.995
 9567WAT     H228944   8.017   3.994   4.899
 9568WAT      O28945   4.594   7.671   3.693
 9568WAT     H128946   4.625   7.669   3.598
 9568WAT     H228947   4.536   7.592   3.711
 9569WAT      O28948   8.843   4.906   7.503
 9569WAT     H128949   8.763   4.865   7.459
 9569WAT     H228950   8.819   4.934   7.596
 9570WAT      O28951   1.230   4.316   5.254
 9570WAT     H128952   1.283   4.257   5.192
 9570WAT     H228953   1.180   4.260   5.319
 9571WAT      O28954   0.766   6.127   1.423
 9571WAT     H128955   0.736   6.082   1.340
 9571WAT     H228956   0.706   6.204   1.443
 9572WAT      O28957   1.202   9.726   7.608
 9572WAT     H128958   1.231   9.819   7.631
 9572WAT     H228959   1.111   9.729   7.566
 9573WAT      O28960   1.681   2.871   6.145
 9573WAT     H128961   1.692   2.816   6.228
 9573WAT     H228962   1.585   2.894   6.132
 9574WAT      O28963   3.503   1.013   2.953
 9574WAT     H128964   3.575   1.046   3.013
 9574WAT     H228965   3.542   0.953   2.883
 9575WAT      O28966   0.222   6.854   8.635
 9575WAT     H128967   0.298   6.818   8.581
 9575WAT     H228968   0.174   6.779   8.681
 9576WAT      O28969   0.147   6.244   3.090
 9576WAT     H128970   0.119   6.339   3.073
 9576WAT     H228971   0.066   6.186   3.096
 9577WAT      O28972   0.253   3.942   9.715
 9577WAT     H128973   0.296   3.858   9.748
 9577WAT     H228974   0.176   3.965   9.774
 9578WAT      O28975   3.657   2.733   6.394
 9578WAT     H128976   3.717   2.739   6.473
 9578WAT     H228977   3.572   2.781   6.413
 9579WAT      O28978   6.495   2.446   0.961
 9579WAT     H128979   6.416   2.385   0.951
 9579WAT     H228980   6.574   2.393   0.993
 9580WAT      O28981   7.619   5.145   1.531
 9580WAT     H128982   7.680   5.105   1.600
 9580WAT     H228983   7.634   5.244   1.528
 9581WAT      O28984   8.958   9.097   9.575
 9581WAT     H128985   8.905   9.062   9.498
 9581WAT     H228986   8.937   9.044   9.657
 9582WAT      O28987   4.354   0.288   7.947
 9582WAT     H128988   4.359   0.201   7.997
 9582WAT     H228989   4.271   0.336   7.973
 9583WAT      O28990   7.602   1.996   6.317
 9583WAT     H128991   7.605   2.015   6.219
 9583WAT     H228992   7.515   1.952   6.339
 9584WAT      O28993   0.304   5.071   7.338
 9584WAT     H128994   0.289   5.047   7.242
 9584WAT     H228995   0.311   4.988   7.392
 9585WAT      O28996   1.614   4.794   6.702
 9585WAT     H128997   1.619   4.696   6.717
 9585WAT     H228998   1.579   4.812   6.609
 9586WAT      O28999   6.767   3.409   1.295
 9586WAT     H129000   6.740   3.477   1.363
 9586WAT     H229001   6.864   3.389   1.303
 9587WAT      O29002   8.531   9.137   4.276
 9587WAT     H129003   8.544   9.110   4.180
 9587WAT     H229004   8.540   9.057   4.335
 9588WAT      O29005   5.466   5.665   1.321
 9588WAT     H129006   5.450   5.627   1.230
 9588WAT     H229007   5.392   5.728   1.344
 9589WAT      O29008   5.899   6.698   2.655
 9589WAT     H129009   5.882   6.754   2.736
 9589WAT     H229010   5.993   6.714   2.622
 9590WAT      O29011   0.796   9.824   2.580
 9590WAT     H129012   0.829   9.812   2.673
 9590WAT     H229013   0.793   9.922   2.558
 9591WAT      O29014   0.009   4.328   7.982
 9591WAT     H129015   0.097   4.327   7.933
 9591WAT     H229016   0.020   4.280   8.069
 9592WAT      O29017   3.550   2.152   4.985
 9592WAT     H129018   3.566   2.164   5.083
 9592WAT     H229019   3.629   2.108   4.943
 9593WAT      O29020   3.071   3.890   9.732
 9593WAT     H129021   3.027   3.978   9.750
 9593WAT     H229022   3.068   3.870   9.634
 9594WAT      O29023   4.774   4.505   9.420
 9594WAT     H129024   4.759   4.590   9.470
 9594WAT     H229025   4.693   4.485   9.364
 9595WAT      O29026   5.230   6.962   0.136
 9595WAT     H129027   5.217   6.868   0.166
 9595WAT     H229028   5.193   6.973   0.044
 9596WAT      O29029   3.025   8.694   4.043
 9596WAT     H129030   3.041   8.754   3.965
 9596WAT     H229031   3.106   8.638   4.059
 9597WAT      O29032   8.825   3.145   9.023
 9597WAT     H129033   8.794   3.052   9.042
 9597WAT     H229034   8.889   3.174   9.094
 9598WAT      O29035   6.068   1.659   1.332
 9598WAT     H129036   6.078   1.615   1.421
 9598WAT     H229037   6.052   1.757   1.344
 9599WAT      O29038   8.540   0.259   7.577
 9599WAT     H129039   8.566   0.268   7.673
 9599WAT     H229040   8.452   0.211   7.571
 9600WAT      O29041   8.135   6.069   6.341
 9600WAT     H129042   8.189   6.081   6.258
 9600WAT     H229043   8.186   6.012   6.406
 9601WAT      O29044   1.371   5.926   4.889
 9601WAT     H129045   1.315   5.899   4.968
 9601WAT     H229046   1.402   5.845   4.840
 9602WAT      O29047   6.692   5.019   8.649
 9602WAT     H129048   6.650   5.061   8.568
 9602WAT     H229049   6.771   5.073   8.677
 9603WAT      O29050   0.770   7.121   7.877
 9603WAT     H129051   0.804   7.098   7.786
 9603WAT     H229052   0.830   7.188   7.919
 9604WAT      O29053   9.206   1.829   0.632
 9604WAT     H129054   9.277   1.792   0.691
 9604WAT     H229055   9.204   1.928   0.640
 9605WAT      O29056   0.700   1.156   2.078
 9605WAT     H129057   0.749   1.208   2.007
 9605WAT     H229058   0.603   1.177   2.073
 9606WAT      O29059   9.231   8.987   6.172
 9606WAT     H129060   9.251   9.078   6.208
 9606WAT     H229061   9.174   8.996   6.091
 9607WAT      O29062   0.550   7.895   7.062
 9607WAT     H129063   0.607   7.945   6.996
 9607WAT     H229064   0.460   7.880   7.022
 9608WAT      O29065   0.774   6.183   9.647
 9608WAT     H129066   0.706   6.117   9.677
 9608WAT     H229067   0.765   6.268   9.699
 9609WAT      O29068   1.559   6.947   4.497
 9609WAT     H129069   1.537   6.968   4.402
 9609WAT     H229070   1.638   7.002   4.526
 9610WAT      O29071   3.836   5.396   8.885
 9610WAT     H129072   3.877   5.437   8.967
 9610WAT     H229073   3.895   5.324   8.850
 9611WAT      O29074   1.603   7.724   8.082
 9611WAT     H129075   1.566   7.653   8.142
 9611WAT     H229076   1.673   7.776   8.130
 9612WAT      O29077   0.346   0.548   0.243
 9612WAT     H129078   0.420   0.490   0.210
 9612WAT     H229079   0.267   0.491   0.265
 9613WAT      O29080   3.697   2.700   8.601
 9613WAT     H129081   3.710   2.605   8.629
 9613WAT     H229082   3.617   2.737   8.649
 9614WAT      O29083   6.151   2.031   4.592
 9614WAT     H129084   6.251   2.040   4.595
 9614WAT     H229085   6.126   1.962   4.523
 9615WAT      O29086   3.277   3.054   6.427
 9615WAT     H129087   3.323   2.969   6.455
 9615WAT     H229088   3.181   3.034   6.407
 9616WAT      O29089   1.035   9.191   6.360
 9616WAT     H129090   1.038   9.097   6.394
 9616WAT     H229091   1.068   9.194   6.266
 9617WAT      O29092   1.103   0.315   2.853
 9617WAT     H129093   1.088   0.354   2.762
 9617WAT     H229094   1.015   0.295   2.896
 9618WAT      O29095   1.958   3.099   7.198
 9618WAT     H129096   1.867   3.072   7.231
 9618WAT     H229097   1.987   3.037   7.125
 9619WAT      O29098   2.770   4.928   8.495
 9619WAT     H129099   2.727   4.988   8.562
 9619WAT     H229100   2.742   4.833   8.513
 9620WAT      O29101   7.590   5.103   8.345
 9620WAT     H129102   7.541   5.189   8.358
 9620WAT     H229103   7.531   5.037   8.299
 9621WAT      O29104   4.633   5.126   4.256
 9621WAT     H129105   4.556   5.138   4.319
 9621WAT     H229106   4.603   5.077   4.175
 9622WAT      O29107   9.019   9.726   8.742
 9622WAT     H129108   9.089   9.658   8.723
 9622WAT     H229109   8.944   9.684   8.793
 9623WAT      O29110   3.404   1.075   5.986
 9623WAT     H129111   3.459   1.135   5.928
 9623WAT     H229112   3.462   1.032   6.055
 9624WAT      O29113   0.101   2.931   0.671
 9624WAT     H129114   0.065   2.938   0.764
 9624WAT     H229115   0.157   3.012   0.652
 9625WAT      O29116   7.812   4.365   2.498
 9625WAT     H129117   7.734   4.322   2.451
 9625WAT     H229118   7.867   4.294   2.543
 9626WAT      O29119   1.024   3.825   7.241
 9626WAT     H129120   0.996   3.757   7.174
 9626WAT     H229121   1.060   3.779   7.323
 9627WAT      O29122   4.888   8.350   1.065
 9627WAT     H129123   4.889   8.384   0.970
 9627WAT     H229124   4.847   8.259   1.067
 9628WAT      O29125   2.187   9.811   5.695
 9628WAT     H129126   2.157   9.846   5.606
 9628WAT     H229127   2.122   9.840   5.766
 9629WAT      O29128   4.884   1.700   3.965
 9629WAT     H129129   4.950   1.718   4.038
 9629WAT     H229130   4.912   1.749   3.883
 9630WAT      O29131   3.044   3.826   8.722
 9630WAT     H129132   2.999   3.776   8.796
 9630WAT     H229133   2.984   3.826   8.641
 9631WAT      O29134   3.740   4.007   7.577
 9631WAT     H129135   3.779   3.937   7.638
 9631WAT     H229136   3.764   3.985   7.482
 9632WAT      O29137   1.931   8.862   8.456
 9632WAT     H129138   2.029   8.846   8.447
 9632WAT     H229139   1.910   8.887   8.550
 9633WAT      O29140   4.051   1.152   3.616
 9633WAT     H129141   4.026   1.074   3.560
 9633WAT     H229142   3.987   1.159   3.693
 9634WAT      O29143   3.737   8.460   0.413
 9634WAT     H129144   3.738   8.518   0.494
 9634WAT     H229145   3.678   8.381   0.429
 9635WAT      O29146   7.822   6.105   7.844
 9635WAT     H129147   7.908   6.091   7.795
 9635WAT     H229148   7.842   6.141   7.935
 9636WAT      O29149   8.282   5.599   9.837
 9636WAT     H129150   8.347   5.629   9.767
 9636WAT     H229151   8.238   5.678   9.878
 9637WAT      O29152   5.103   1.654   0.971
 9637WAT     H129153   5.085   1.678   1.066
 9637WAT     H229154   5.031   1.594   0.937
 9638WAT      O29155   3.524   8.238   7.803
 9638WAT     H129156   3.541   8.167   7.736
 9638WAT     H229157   3.579   8.319   7.782
 9639WAT      O29158   7.203   2.123   3.103
 9639WAT     H129159   7.121   2.107   3.158
 9639WAT     H229160   7.182   2.189   3.030
 9640WAT      O29161   3.755   2.704   1.871
 9640WAT     H129162   3.843   2.752   1.861
 9640WAT     H229163   3.715   2.691   1.780
 9641WAT      O29164   0.707   1.327   3.680
 9641WAT     H129165   0.636   1.394   3.700
 9641WAT     H229166   0.685   1.278   3.595
 9642WAT      O29167   4.121   2.128   7.416
 9642WAT     H129168   4.205   2.150   7.465
 9642WAT     H229169   4.121   2.176   7.328
 9643WAT      O29170   0.821   1.852   4.921
 9643WAT     H129171   0.792   1.804   5.003
 9643WAT     H229172   0.841   1.948   4.943
 9644WAT      O29173   1.020   5.466   2.579
 9644WAT     H129174   1.050   5.378   2.615
 9644WAT     H229175   1.095   5.531   2.582
 9645WAT      O29176   1.181   0.824   0.177
 9645WAT     H129177   1.189   0.724   0.180
 9645WAT     H229178   1.101   0.849   0.123
 9646WAT      O29179   9.123   0.927   0.139
 9646WAT     H129180   9.217   0.957   0.122
 9646WAT     H229181   9.069   0.937   0.055
 9647WAT      O29182   3.835   8.719   5.464
 9647WAT     H129183   3.870   8.626   5.474
 9647WAT     H229184   3.862   8.755   5.375
 9648WAT      O29185   2.373   0.785   4.609
 9648WAT     H129186   2.316   0.711   4.642
 9648WAT     H229187   2.393   0.848   4.684
 9649WAT      O29188   7.704   4.779   3.367
 9649WAT     H129189   7.726   4.742   3.277
 9649WAT     H229190   7.621   4.835   3.361
 9650WAT      O29191   8.416   4.090   5.105
 9650WAT     H129192   8.359   4.160   5.148
 9650WAT     H229193   8.379   4.000   5.127
 9651WAT      O29194   4.883   7.496   8.557
 9651WAT     H129195   4.853   7.581   8.601
 9651WAT     H229196   4.962   7.516   8.498
 9652WAT      O29197   9.816   3.599   1.661
 9652WAT     H129198   9.875   3.680   1.668
 9652WAT     H229199   9.858   3.533   1.598
 9653WAT      O29200   0.703   6.544   8.785
 9653WAT     H129201   0.765   6.621   8.802
 9653WAT     H229202   0.679   6.501   8.872
 9654WAT      O29203   3.313   8.353   2.949
 9654WAT     H129204   3.343   8.277   2.891
 9654WAT     H229205   3.380   8.367   3.022
 9655WAT      O29206   7.413   6.250   1.128
 9655WAT     H129207   7.321   6.259   1.165
 9655WAT     H229208   7.408   6.218   1.033
 9656WAT      O29209   9.198   4.477   8.213
 9656WAT     H129210   9.279   4.450   8.162
 9656WAT     H229211   9.141   4.536   8.156
 9657WAT      O29212   1.715   9.522   1.394
 9657WAT     H129213   1.760   9.436   1.372
 9657WAT     H229214   1.694   9.572   1.310
 9658WAT      O29215   2.737   9.156   1.622
 9658WAT     H129216   2.774   9.108   1.701
 9658WAT     H229217   2.729   9.094   1.544
 9659WAT      O29218   2.953   0.922   3.653
 9659WAT     H129219   3.008   0.857   3.706
 9659WAT     H229220   2.911   0.989   3.714
 9660WAT      O29221   1.007   8.303   7.445
 9660WAT     H129222   0.928   8.242   7.440
 9660WAT     H229223   1.015   8.354   7.359
 9661WAT      O29224   0.402   9.479   5.313
 9661WAT     H129225   0.313   9.434   5.305
 9661WAT     H229226   0.468   9.416   5.355
 9662WAT      O29227   9.814   7.552   3.734
 9662WAT     H129228   9.847   7.609   3.809
 9662WAT     H229229   9.862   7.577   3.650
 9663WAT      O29230   9.632   4.304   2.674
 9663WAT     H129231   9.609   4.222   2.726
 9663WAT     H229232   9.700   4.358   2.725
 9664WAT      O29233   7.777   6.326   7.352
 9664WAT     H129234   7.728   6.336   7.438
 9664WAT     H229235   7.713   6.298   7.280
 9665WAT      O29236   3.610   7.071   1.245
 9665WAT     H129237   3.532   7.132   1.237
 9665WAT     H229238   3.690   7.113   1.203
 9666WAT      O29239   4.427   2.565   9.505
 9666WAT     H129240   4.505   2.504   9.493
 9666WAT     H229241   4.459   2.658   9.524
 9667WAT      O29242   6.934   5.420   7.139
 9667WAT     H129243   7.003   5.487   7.110
 9667WAT     H229244   6.912   5.435   7.235
 9668WAT      O29245   1.997   5.590   8.094
 9668WAT     H129246   1.904   5.590   8.132
 9668WAT     H229247   2.056   5.648   8.150
 9669WAT      O29248   9.705   3.865   7.388
 9669WAT     H129249   9.631   3.799   7.402
 9669WAT     H229250   9.690   3.945   7.447
 9670WAT      O29251   9.128   1.756   8.643
 9670WAT     H129252   9.088   1.679   8.592
 9670WAT     H229253   9.088   1.842   8.611
 9671WAT      O29254   3.281   6.877   9.489
 9671WAT     H129255   3.335   6.846   9.567
 9671WAT     H229256   3.187   6.892   9.517
 9672WAT      O29257   3.717   4.702   7.006
 9672WAT     H129258   3.752   4.616   6.969
 9672WAT     H229259   3.772   4.728   7.086
 9673WAT      O29260   5.542   3.814   0.506
 9673WAT     H129261   5.518   3.904   0.471
 9673WAT     H229262   5.476   3.746   0.471
 9674WAT      O29263   0.967   8.896   6.099
 9674WAT     H129264   0.905   8.962   6.056
 9674WAT     H229265   1.055   8.896   6.052
 9675WAT      O29266   1.017   9.758   6.350
 9675WAT     H129267   1.058   9.767   6.260
 9675WAT     H229268   1.000   9.662   6.370
 9676WAT      O29269   5.154   8.278   5.806
 9676WAT     H129270   5.061   8.286   5.770
 9676WAT     H229271   5.192   8.189   5.782
 9677WAT      O29272   6.483   3.436   1.269
 9677WAT     H129273   6.452   3.373   1.340
 9677WAT     H229274   6.568   3.403   1.229
 9678WAT      O29275   4.129   4.298   6.162
 9678WAT     H129276   4.034   4.305   6.131
 9678WAT     H229277   4.144   4.363   6.236
 9679WAT      O29278   4.576   0.818   1.874
 9679WAT     H129279   4.631   0.805   1.957
 9679WAT     H229280   4.484   0.784   1.890
 9680WAT      O29281   7.141   6.191   6.794
 9680WAT     H129282   7.138   6.127   6.871
 9680WAT     H229283   7.085   6.271   6.816
 9681WAT      O29284   2.649   3.361   0.055
 9681WAT     H129285   2.708   3.431   0.094
 9681WAT     H229286   2.693   3.271   0.064
 9682WAT      O29287   3.534   5.865   8.224
 9682WAT     H129288   3.455   5.851   8.284
 9682WAT     H229289   3.610   5.808   8.256
 9683WAT      O29290   7.205   3.431   7.213
 9683WAT     H129291   7.280   3.475   7.165
 9683WAT     H229292   7.205   3.460   7.309
 9684WAT      O29293   9.033   7.747   0.830
 9684WAT     H129294   9.112   7.779   0.881
 9684WAT     H229295   9.064   7.700   0.747
 9685WAT      O29296   7.804   5.414   7.093
 9685WAT     H129297   7.719   5.361   7.101
 9685WAT     H229298   7.836   5.412   6.998
 9686WAT      O29299   6.900   4.527   3.159
 9686WAT     H129300   6.910   4.499   3.255
 9686WAT     H229301   6.809   4.567   3.146
 9687WAT      O29302   8.560   4.724   7.206
 9687WAT     H129303   8.537   4.793   7.275
 9687WAT     H229304   8.641   4.755   7.155
 9688WAT      O29305   0.304   9.185   6.558
 9688WAT     H129306   0.209   9.199   6.530
 9688WAT     H229307   0.359   9.159   6.479
 9689WAT      O29308   7.414   5.588   8.311
 9689WAT     H129309   7.404   5.492   8.338
 9689WAT     H229310   7.327   5.622   8.274
 9690WAT      O29311   5.469   9.006   2.208
 9690WAT     H129312   5.371   9.000   2.227
 9690WAT     H229313   5.506   9.090   2.249
 9691WAT      O29314   4.643   2.599   7.414
 9691WAT     H129315   4.621   2.671   7.348
 9691WAT     H229316   4.576   2.526   7.408
 9692WAT      O29317   6.169   9.572   8.492
 9692WAT     H129318   6.095   9.594   8.555
 9692WAT     H229319   6.143   9.492   8.437
 9693WAT      O29320   0.538   2.875   0.633
 9693WAT     H129321   0.628   2.891   0.593
 9693WAT     H229322   0.545   2.870   0.732
 9694WAT      O29323   9.451   0.067   8.624
 9694WAT     H129324   9.477   0.135   8.693
 9694WAT     H229325   9.530   0.008   8.605
 9695WAT      O29326   8.050   5.877   8.132
 9695WAT     H129327   7.965   5.900   8.178
 9695WAT     H229328   8.032   5.810   8.060
 9696WAT      O29329   0.745   4.105   5.907
 9696WAT     H129330   0.759   4.183   5.968
 9696WAT     H229331   0.678   4.130   5.837
 9697WAT      O29332   7.823   6.186   2.450
 9697WAT     H129333   7.806   6.268   2.504
 9697WAT     H229334   7.910   6.195   2.402
 9698WAT      O29335   4.383   7.592   0.512
 9698WAT     H129336   4.342   7.670   0.559
 9698WAT     H229337   4.318   7.516   0.510
 9699WAT      O29338   5.295   4.760   7.857
 9699WAT     H129339   5.273   4.784   7.951
 9699WAT     H229340   5.373   4.698   7.855
 9700WAT      O29341   6.804   8.892   4.535
 9700WAT     H129342   6.822   8.809   4.483
 9700WAT     H229343   6.778   8.966   4.472
 9701WAT      O29344   4.777   1.081   3.777
 9701WAT     H129345   4.697   1.126   3.818
 9701WAT     H229346   4.857   1.141   3.785
 9702WAT      O29347   2.795   2.971   2.896
 9702WAT     H129348   2.743   2.927   2.822
 9702WAT     H229349   2.757   3.062   2.915
 9703WAT      O29350   7.785   3.399   2.024
 9703WAT     H129351   7.776   3.496   2.049
 9703WAT     H229352   7.820   3.392   1.931
 9704WAT      O29353   6.982   5.268   5.665
 9704WAT     H129354   6.959   5.362   5.689
 9704WAT     H229355   6.916   5.233   5.598
 9705WAT      O29356   5.853   4.628   5.807
 9705WAT     H129357   5.855   4.572   5.724
 9705WAT     H229358   5.827   4.722   5.784
 9706WAT      O29359   9.183   4.882   0.535
 9706WAT     H129360   9.097   4.840   0.563
 9706WAT     H229361   9.254   4.859   0.601
 9707WAT      O29362   7.397   7.358   7.885
 9707WAT     H129363   7.473   7.391   7.941
 9707WAT     H229364   7.409   7.388   7.791
 9708WAT      O29365   8.135   9.378   6.871
 9708WAT     H129366   8.186   9.448   6.822
 9708WAT     H229367   8.177   9.288   6.854
 9709WAT      O29368   4.529   5.178   0.709
 9709WAT     H129369   4.453   5.142   0.763
 9709WAT     H229370   4.517   5.152   0.613
 9710WAT      O29371   9.149   0.676   9.478
 9710WAT     H129372   9.095   0.717   9.404
 9710WAT     H229373   9.088   0.635   9.545
 9711WAT      O29374   5.095   6.218   4.720
 9711WAT     H129375   5.034   6.260   4.653
 9711WAT     H229376   5.174   6.279   4.736
 9712WAT      O29377   7.188   2.624   2.027
 9712WAT     H129378   7.136   2.689   1.971
 9712WAT     H229379   7.142   2.535   2.025
 9713WAT      O29380   2.092   0.085   9.308
 9713WAT     H129381   2.096   0.182   9.333
 9713WAT     H229382   2.183   0.054   9.281
 9714WAT      O29383   7.845   4.361   1.497
 9714WAT     H129384   7.755   4.384   1.535
 9714WAT     H229385   7.896   4.445   1.478
 9715WAT      O29386   4.472   7.769   6.841
 9715WAT     H129387   4.520   7.831   6.778
 9715WAT     H229388   4.490   7.674   6.815
 9716WAT      O29389   8.470   6.138   5.245
 9716WAT     H129390   8.371   6.135   5.250
 9716WAT     H229391   8.503   6.223   5.287
 9717WAT      O29392   9.293   1.426   6.887
 9717WAT     H129393   9.254   1.478   6.811
 9717WAT     H229394   9.360   1.360   6.852
 9718WAT      O29395   9.214   2.070   0.902
 9718WAT     H129396   9.269   2.061   0.819
 9718WAT     H229397   9.121   2.097   0.878
 9719WAT      O29398   6.880   7.628   6.596
 9719WAT     H129399   6.887   7.721   6.633
 9719WAT     H229400   6.827   7.571   6.658
 9720WAT      O29401   7.811   0.235   7.221
 9720WAT     H129402   7.879   0.210   7.290
 9720WAT     H229403   7.755   0.156   7.200
 9721WAT      O29404   4.592   7.128   6.064
 9721WAT     H129405   4.683   7.156   6.094
 9721WAT     H229406   4.576   7.033   6.090
 9722WAT      O29407   0.732   3.837   5.973
 9722WAT     H129408   0.751   3.929   5.938
 9722WAT     H229409   0.792   3.818   6.050
 9723WAT      O29410   3.944   1.088   5.303
 9723WAT     H129411   3.920   0.991   5.291
 9723WAT     H229412   4.030   1.107   5.254
 9724WAT      O29413   1.007   8.859   8.594
 9724WAT     H129414   1.062   8.858   8.511
 9724WAT     H229415   1.015   8.948   8.638
 9725WAT      O29416   7.818   1.262   8.362
 9725WAT     H129417   7.856   1.282   8.272
 9725WAT     H229418   7.740   1.321   8.380
 9726WAT      O29419   6.079   1.367   9.622
 9726WAT     H129420   6.010   1.385   9.692
 9726WAT     H229421   6.129   1.283   9.645
 9727WAT      O29422   4.432   1.445   0.753
 9727WAT     H129423   4.338   1.476   0.741
 9727WAT     H229424   4.438   1.347   0.735
 9728WAT      O29425   5.204   5.808   4.197
 9728WAT     H129426   5.282   5.811   4.135
 9728WAT     H229427   5.137   5.877   4.170
 9729WAT      O29428   9.521   8.193   4.600
 9729WAT     H129429   9.448   8.156   4.658
 9729WAT     H229430   9.501   8.289   4.579
 9730WAT      O29431   0.141   8.042   5.010
 9730WAT     H129432   0.057   8.002   4.974
 9730WAT     H229433   0.118   8.107   5.083
 9731WAT      O29434   1.517   7.696   9.123
 9731WAT     H129435   1.599   7.732   9.167
 9731WAT     H229436   1.477   7.624   9.179
 9732WAT      O29437   6.789   9.240   2.293
 9732WAT     H129438   6.881   9.279   2.291
 9732WAT     H229439   6.725   9.303   2.250
 9733WAT      O29440   5.809   5.377   6.602
 9733WAT     H129441   5.893   5.338   6.566
 9733WAT     H229442   5.793   5.467   6.561
 9734WAT      O29443   2.545   3.752   4.181
 9734WAT     H129444   2.562   3.663   4.140
 9734WAT     H229445   2.536   3.821   4.109
 9735WAT      O29446   2.790   9.753   5.574
 9735WAT     H129447   2.721   9.705   5.628
 9735WAT     H229448   2.818   9.836   5.621
 9736WAT      O29449   7.346   3.750   7.725
 9736WAT     H129450   7.337   3.651   7.738
 9736WAT     H229451   7.275   3.783   7.664
 9737WAT      O29452   1.225   9.301   4.012
 9737WAT     H129453   1.299   9.240   3.985
 9737WAT     H229454   1.238   9.330   4.106
 9738WAT      O29455   5.808   6.188   8.995
 9738WAT     H129456   5.740   6.184   9.068
 9738WAT     H229457   5.898   6.208   9.035
 9739WAT      O29458   6.763   0.900   9.803
 9739WAT     H129459   6.741   0.995   9.779
 9739WAT     H229460   6.857   0.896   9.837
 9740WAT      O29461   4.443   8.441   6.859
 9740WAT     H129462   4.348   8.463   6.882
 9740WAT     H229463   4.449   8.414   6.763
 9741WAT      O29464   6.979   3.738   8.482
 9741WAT     H129465   6.952   3.746   8.386
 9741WAT     H229466   6.948   3.650   8.517
 9742WAT      O29467   5.644   4.377   6.723
 9742WAT     H129468   5.573   4.388   6.654
 9742WAT     H229469   5.720   4.440   6.703
 9743WAT      O29470   2.319   5.684   1.344
 9743WAT     H129471   2.236   5.718   1.389
 9743WAT     H229472   2.377   5.639   1.411
 9744WAT      O29473   6.027   7.756   3.912
 9744WAT     H129474   6.018   7.684   3.981
 9744WAT     H229475   6.104   7.736   3.852
 9745WAT      O29476   6.101   8.862   0.857
 9745WAT     H129477   6.100   8.941   0.919
 9745WAT     H229478   6.007   8.833   0.839
 9746WAT      O29479   4.315   2.383   0.790
 9746WAT     H129480   4.250   2.359   0.862
 9746WAT     H229481   4.347   2.477   0.803
 9747WAT      O29482   0.622   6.644   8.028
 9747WAT     H129483   0.656   6.551   8.016
 9747WAT     H229484   0.631   6.694   7.942
 9748WAT      O29485   9.314   7.064   1.422
 9748WAT     H129486   9.355   6.973   1.428
 9748WAT     H229487   9.357   7.115   1.347
 9749WAT      O29488   2.989   8.941   8.737
 9749WAT     H129489   3.076   8.904   8.769
 9749WAT     H229490   2.914   8.898   8.789
 9750WAT      O29491   8.348   6.566   3.284
 9750WAT     H129492   8.395   6.480   3.266
 9750WAT     H229493   8.328   6.612   3.197
 9751WAT      O29494   6.818   3.740   6.171
 9751WAT     H129495   6.869   3.798   6.108
 9751WAT     H229496   6.863   3.651   6.178
 9752WAT      O29497   9.110   2.887   5.859
 9752WAT     H129498   9.085   2.792   5.877
 9752WAT     H229499   9.050   2.924   5.788
 9753WAT      O29500   8.349   5.777   2.911
 9753WAT     H129501   8.429   5.810   2.961
 9753WAT     H229502   8.353   5.677   2.903
 9754WAT      O29503   5.873   7.406   3.931
 9754WAT     H129504   5.957   7.353   3.924
 9754WAT     H229505   5.885   7.480   3.997
 9755WAT      O29506   5.480   9.503   6.970
 9755WAT     H129507   5.443   9.515   7.062
 9755WAT     H229508   5.514   9.591   6.937
 9756WAT      O29509   9.337   7.510   5.081
 9756WAT     H129510   9.277   7.586   5.104
 9756WAT     H229511   9.288   7.424   5.096
 9757WAT      O29512   4.543   9.528   5.517
 9757WAT     H129513   4.526   9.624   5.541
 9757WAT     H229514   4.608   9.489   5.582
 9758WAT      O29515   6.685   3.794   5.905
 9758WAT     H129516   6.698   3.794   6.004
 9758WAT     H229517   6.595   3.757   5.883
 9759WAT      O29518   1.996   6.212   6.415
 9759WAT     H129519   1.920   6.248   6.361
 9759WAT     H229520   1.962   6.151   6.485
 9760WAT      O29521   5.195   5.494   8.113
 9760WAT     H129522   5.190   5.565   8.183
 9760WAT     H229523   5.114   5.498   8.055
 9761WAT      O29524   4.382   9.133   7.589
 9761WAT     H129525   4.344   9.152   7.679
 9761WAT     H229526   4.356   9.207   7.526
 9762WAT      O29527   8.464   8.154   1.514
 9762WAT     H129528   8.384   8.166   1.573
 9762WAT     H229529   8.435   8.144   1.419
 9763WAT      O29530   8.766   6.969   5.160
 9763WAT     H129531   8.846   6.968   5.221
 9763WAT     H229532   8.712   6.886   5.174
 9764WAT      O29533   4.334   2.201   9.631
 9764WAT     H129534   4.315   2.264   9.706
 9764WAT     H229535   4.308   2.245   9.544
 9765WAT      O29536   1.106   4.147   0.397
 9765WAT     H129537   1.121   4.103   0.308
 9765WAT     H229538   1.048   4.228   0.384
 9766WAT      O29539   4.830   0.459   7.074
 9766WAT     H129540   4.805   0.429   7.166
 9766WAT     H229541   4.907   0.404   7.042
 9767WAT      O29542   5.080   1.742   4.149
 9767WAT     H129543   5.135   1.731   4.065
 9767WAT     H229544   5.117   1.818   4.202
 9768WAT      O29545   7.138   1.595   2.946
 9768WAT     H129546   7.165   1.520   3.006
 9768WAT     H229547   7.130   1.679   3.000
 9769WAT      O29548   8.816   4.648   6.018
 9769WAT     H129549   8.736   4.594   5.991
 9769WAT     H229550   8.889   4.587   6.050
 9770WAT      O29551   5.898   1.776   8.669
 9770WAT     H129552   5.819   1.829   8.700
 9770WAT     H229553   5.883   1.744   8.576
 9771WAT      O29554   2.673   3.872   9.087
 9771WAT     H129555   2.670   3.971   9.078
 9771WAT     H229556   2.696   3.847   9.181
 9772WAT      O29557   4.885   3.186   5.217
 9772WAT     H129558   4.952   3.115   5.200
 9772WAT     H229559   4.809   3.178   5.152
 9773WAT      O29560   9.131   1.782   2.460
 9773WAT     H129561   9.074   1.863   2.451
 9773WAT     H229562   9.226   1.806   2.441
 9774WAT      O29563   0.747   4.501   7.138
 9774WAT     H129564   0.740   4.600   7.144
 9774WAT     H229565   0.774   4.464   7.226
 9775WAT      O29566   6.213   5.488   5.071
 9775WAT     H129567   6.132   5.510   5.015
 9775WAT     H229568   6.200   5.525   5.163
 9776WAT      O29569   0.201   6.187   2.362
 9776WAT     H129570   0.188   6.286   2.362
 9776WAT     H229571   0.119   6.143   2.324
 9777WAT      O29572   5.894   2.830   3.012
 9777WAT     H129573   5.884   2.907   2.948
 9777WAT     H229574   5.917   2.865   3.103
 9778WAT      O29575   2.807   0.020   3.151
 9778WAT     H129576   2.870  -0.056   3.137
 9778WAT     H229577   2.751   0.032   3.069
 9779WAT      O29578   3.144   8.465   9.449
 9779WAT     H129579   3.121   8.522   9.529
 9779WAT     H229580   3.078   8.483   9.376
 9780WAT      O29581   4.718   2.857   4.598
 9780WAT     H129582   4.625   2.893   4.599
 9780WAT     H229583   4.765   2.883   4.682
 9781WAT      O29584   6.988   0.767   1.341
 9781WAT     H129585   6.997   0.809   1.251
 9781WAT     H229586   6.932   0.685   1.334
 9782WAT      O29587   4.080   6.204   3.835
 9782WAT     H129588   4.106   6.207   3.738
 9782WAT     H229589   4.159   6.176   3.890
 9783WAT      O29590   9.169   2.232   3.099
 9783WAT     H129591   9.173   2.315   3.045
 9783WAT     H229592   9.128   2.158   3.045
 9784WAT      O29593   4.128   6.711   5.062
 9784WAT     H129594   4.140   6.808   5.084
 9784WAT     H229595   4.105   6.702   4.965
 9785WAT      O29596   2.277   8.435   7.105
 9785WAT     H129597   2.333   8.403   7.181
 9785WAT     H229598   2.198   8.375   7.094
 9786WAT      O29599   3.368   7.516   9.421
 9786WAT     H129600   3.331   7.433   9.462
 9786WAT     H229601   3.445   7.493   9.361
 9787WAT      O29602   6.895   4.638   6.046
 9787WAT     H129603   6.871   4.647   5.949
 9787WAT     H229604   6.853   4.555   6.082
 9788WAT      O29605   1.974   7.946   2.160
 9788WAT     H129606   1.897   7.884   2.143
 9788WAT     H229607   2.005   7.935   2.254
 9789WAT      O29608   2.193   3.746   1.572
 9789WAT     H129609   2.230   3.736   1.664
 9789WAT     H229610   2.217   3.836   1.536
 9790WAT      O29611   4.403   2.799   7.639
 9790WAT     H129612   4.397   2.731   7.566
 9790WAT     H229613   4.319   2.854   7.640
 9791WAT      O29614   9.102   1.285   9.500
 9791WAT     H129615   9.180   1.246   9.549
 9791WAT     H229616   9.048   1.212   9.459
 9792WAT      O29617   3.756   9.471   3.213
 9792WAT     H129618   3.763   9.376   3.241
 9792WAT     H229619   3.688   9.479   3.140
 9793WAT      O29620   0.770   1.658   4.655
 9793WAT     H129621   0.763   1.660   4.755
 9793WAT     H229622   0.864   1.675   4.628
 9794WAT      O29623   6.604   8.416   2.211
 9794WAT     H129624   6.630   8.474   2.289
 9794WAT     H229625   6.637   8.458   2.126
 9795WAT      O29626   4.272   8.319   8.734
 9795WAT     H129627   4.228   8.282   8.815
 9795WAT     H229628   4.328   8.398   8.758
 9796WAT      O29629   7.910   4.665   1.001
 9796WAT     H129630   7.854   4.636   0.923
 9796WAT     H229631   7.955   4.752   0.980
 9797WAT      O29632   4.452   6.274   0.057
 9797WAT     H129633   4.415   6.347   0.114
 9797WAT     H229634   4.546   6.296   0.031
 9798WAT      O29635   6.073   5.185   9.349
 9798WAT     H129636   5.996   5.196   9.411
 9798WAT     H229637   6.040   5.178   9.255
 9799WAT      O29638   6.051   2.053   3.350
 9799WAT     H129639   6.004   2.116   3.411
 9799WAT     H229640   6.110   2.104   3.288
 9800WAT      O29641   0.889   4.248   4.165
 9800WAT     H129642   0.830   4.167   4.161
 9800WAT     H229643   0.909   4.279   4.072
 9801WAT      O29644   4.727   7.500   4.239
 9801WAT     H129645   4.689   7.532   4.152
 9801WAT     H229646   4.808   7.554   4.261
 9802WAT      O29647   2.624   8.261   7.915
 9802WAT     H129648   2.545   8.323   7.913
 9802WAT     H229649   2.708   8.314   7.901
 9803WAT      O29650   7.972   0.647   8.424
 9803WAT     H129651   7.963   0.638   8.325
 9803WAT     H229652   7.884   0.625   8.467
 9804WAT      O29653   8.995   9.665   1.018
 9804WAT     H129654   9.077   9.713   0.987
 9804WAT     H229655   8.946   9.723   1.084
 9805WAT      O29656   3.153   4.614   7.658
 9805WAT     H129657   3.154   4.583   7.753
 9805WAT     H229658   3.161   4.714   7.655
 9806WAT      O29659   9.517   2.481   4.386
 9806WAT     H129660   9.557   2.562   4.429
 9806WAT     H229661   9.557   2.469   4.295
 9807WAT      O29662   4.859   3.654   9.073
 9807WAT     H129663   4.792   3.645   9.146
 9807WAT     H229664   4.849   3.579   9.008
 9808WAT      O29665   3.278   9.166   8.060
 9808WAT     H129666   3.221   9.248   8.063
 9808WAT     H229667   3.274   9.125   7.969
 9809WAT      O29668   0.647   6.318   7.037
 9809WAT     H129669   0.559   6.304   7.083
 9809WAT     H229670   0.647   6.268   6.950
 9810WAT      O29671   4.032   5.448   7.749
 9810WAT     H129672   4.080   5.478   7.831
 9810WAT     H229673   4.025   5.348   7.748
 9811WAT      O29674   7.109   5.603   0.818
 9811WAT     H129675   7.075   5.654   0.897
 9811WAT     H229676   7.193   5.554   0.843
 9812WAT      O29677   0.345   1.319   5.682
 9812WAT     H129678   0.273   1.255   5.655
 9812WAT     H229679   0.325   1.354   5.774
 9813WAT      O29680   4.173   6.029   0.834
 9813WAT     H129681   4.167   6.109   0.895
 9813WAT     H229682   4.102   6.036   0.764
 9814WAT      O29683   9.222   2.785   3.268
 9814WAT     H129684   9.266   2.786   3.179
 9814WAT     H229685   9.122   2.791   3.256
 9815WAT      O29686   8.261   6.892   5.175
 9815WAT     H129687   8.193   6.944   5.226
 9815WAT     H229688   8.237   6.796   5.174
 9816WAT      O29689   5.300   8.893   9.164
 9816WAT     H129690   5.396   8.914   9.183
 9816WAT     H229691   5.284   8.795   9.180
 9817WAT      O29692   4.674   7.634   2.810
 9817WAT     H129693   4.640   7.689   2.886
 9817WAT     H229694   4.665   7.537   2.832
 9818WAT      O29695   1.934   5.558   5.681
 9818WAT     H129696   2.008   5.589   5.741
 9818WAT     H229697   1.972   5.502   5.608
 9819WAT      O29698   9.814   4.584   0.900
 9819WAT     H129699   9.841   4.511   0.963
 9819WAT     H229700   9.773   4.659   0.951
 9820WAT      O29701   5.879   2.433   3.741
 9820WAT     H129702   5.781   2.426   3.722
 9820WAT     H229703   5.904   2.529   3.751
 9821WAT      O29704   3.571   5.478   2.050
 9821WAT     H129705   3.486   5.487   2.101
 9821WAT     H229706   3.643   5.532   2.094
 9822WAT      O29707   5.969   5.797   6.646
 9822WAT     H129708   6.068   5.813   6.651
 9822WAT     H229709   5.933   5.784   6.738
 9823WAT      O29710   4.691   5.859   5.314
 9823WAT     H129711   4.753   5.923   5.359
 9823WAT     H229712   4.628   5.821   5.380
 9824WAT      O29713   9.871   1.226   4.237
 9824WAT     H129714   9.778   1.215   4.201
 9824WAT     H229715   9.888   1.323   4.254
 9825WAT      O29716   2.923   2.923   0.738
 9825WAT     H129717   2.887   2.935   0.646
 9825WAT     H229718   2.986   2.846   0.739
 9826WAT      O29719   0.635   0.304   1.591
 9826WAT     H129720   0.705   0.342   1.531
 9826WAT     H229721   0.575   0.243   1.539
 9827WAT      O29722   5.843   1.160   5.000
 9827WAT     H129723   5.874   1.155   5.095
 9827WAT     H229724   5.805   1.251   4.982
 9828WAT      O29725   2.837   0.703   4.869
 9828WAT     H129726   2.824   0.802   4.868
 9828WAT     H229727   2.872   0.676   4.959
 9829WAT      O29728   1.398   4.470   3.331
 9829WAT     H129729   1.431   4.393   3.277
 9829WAT     H229730   1.473   4.507   3.386
 9830WAT      O29731   3.270   6.150   3.282
 9830WAT     H129732   3.312   6.084   3.219
 9830WAT     H229733   3.262   6.239   3.237
 9831WAT      O29734   0.964   5.299   9.680
 9831WAT     H129735   0.888   5.265   9.736
 9831WAT     H229736   0.936   5.381   9.631
 9832WAT      O29737   7.464   8.126   4.579
 9832WAT     H129738   7.427   8.183   4.506
 9832WAT     H229739   7.389   8.096   4.639
 9833WAT      O29740   3.910   1.351   2.703
 9833WAT     H129741   3.922   1.450   2.701
 9833WAT     H229742   3.889   1.318   2.611
 9834WAT      O29743   3.405   8.866   2.210
 9834WAT     H129744   3.459   8.877   2.127
 9834WAT     H229745   3.409   8.771   2.240
 9835WAT      O29746   8.883   4.109   3.650
 9835WAT     H129747   8.836   4.165   3.719
 9835WAT     H229748   8.821   4.089   3.575
 9836WAT      O29749   2.260   9.838   1.436
 9836WAT     H129750   2.331   9.807   1.373
 9836WAT     H229751   2.193   9.765   1.448
 9837WAT      O29752   1.006   2.473   6.088
 9837WAT     H129753   0.930   2.419   6.124
 9837WAT     H229754   1.087   2.416   6.081
 9838WAT      O29755   4.143   5.664   7.495
 9838WAT     H129756   4.163   5.698   7.586
 9838WAT     H229757   4.064   5.712   7.458
 9839WAT      O29758   9.477   1.991   8.661
 9839WAT     H129759   9.478   2.003   8.561
 9839WAT     H229760   9.405   2.048   8.700
 9840WAT      O29761   5.591   5.842   1.748
 9840WAT     H129762   5.543   5.929   1.764
 9840WAT     H229763   5.594   5.823   1.650
 9841WAT      O29764   7.608   3.388   9.248
 9841WAT     H129765   7.549   3.347   9.318
 9841WAT     H229766   7.683   3.437   9.292
 9842WAT      O29767   6.618   4.204   2.038
 9842WAT     H129768   6.638   4.248   2.126
 9842WAT     H229769   6.670   4.119   2.031
 9843WAT      O29770   7.224   0.483   2.361
 9843WAT     H129771   7.286   0.471   2.439
 9843WAT     H229772   7.130   0.473   2.392
 9844WAT      O29773   3.606   1.108   1.866
 9844WAT     H129774   3.537   1.058   1.918
 9844WAT     H229775   3.595   1.206   1.881
 9845WAT      O29776   5.685   5.556   3.724
 9845WAT     H129777   5.723   5.649   3.729
 9845WAT     H229778   5.719   5.511   3.641
 9846WAT      O29779   4.273   8.031   4.179
 9846WAT     H129780   4.302   8.091   4.104
 9846WAT     H229781   4.273   8.083   4.264
 9847WAT      O29782   3.584   7.722   2.985
 9847WAT     H129783   3.519   7.759   2.920
 9847WAT     H229784   3.650   7.793   3.012
 9848WAT      O29785   8.350   1.664   6.014
 9848WAT     H129786   8.398   1.750   5.997
 9848WAT     H229787   8.339   1.614   5.928
 9849WAT      O29788   5.111   3.886   8.707
 9849WAT     H129789   5.205   3.918   8.720
 9849WAT     H229790   5.068   3.873   8.796
 9850WAT      O29791   0.367   6.033   6.204
 9850WAT     H129792   0.392   6.043   6.300
 9850WAT     H229793   0.268   6.030   6.195
 9851WAT      O29794   5.093   4.298   2.043
 9851WAT     H129795   5.101   4.235   2.120
 9851WAT     H229796   5.052   4.384   2.074
 9852WAT      O29797   8.824   1.454   0.878
 9852WAT     H129798   8.894   1.502   0.931
 9852WAT     H229799   8.777   1.387   0.936
 9853WAT      O29800   3.768   0.527   2.114
 9853WAT     H129801   3.674   0.526   2.149
 9853WAT     H229802   3.820   0.598   2.160
 9854WAT      O29803   4.554   5.304   5.194
 9854WAT     H129804   4.508   5.352   5.119
 9854WAT     H229805   4.570   5.209   5.166
 9855WAT      O29806   0.683   1.187   8.736
 9855WAT     H129807   0.605   1.144   8.783
 9855WAT     H229808   0.658   1.206   8.641
 9856WAT      O29809   7.661   5.464   1.255
 9856WAT     H129810   7.688   5.560   1.254
 9856WAT     H229811   7.640   5.433   1.162
 9857WAT      O29812   4.427   1.319   7.374
 9857WAT     H129813   4.508   1.280   7.330
 9857WAT     H229814   4.412   1.412   7.341
 9858WAT      O29815   8.556   8.958   2.830
 9858WAT     H129816   8.639   8.943   2.777
 9858WAT     H229817   8.480   8.979   2.769
 9859WAT      O29818   2.379   1.584   7.389
 9859WAT     H129819   2.440   1.662   7.376
 9859WAT     H229820   2.424   1.500   7.359
 9860WAT      O29821   5.380   6.708   0.590
 9860WAT     H129822   5.465   6.759   0.578
 9860WAT     H229823   5.340   6.689   0.501
 9861WAT      O29824   6.078   8.442   8.660
 9861WAT     H129825   6.063   8.462   8.563
 9861WAT     H229826   6.053   8.522   8.715
 9862WAT      O29827   1.205   6.359   7.209
 9862WAT     H129828   1.259   6.442   7.195
 9862WAT     H229829   1.161   6.364   7.299
 9863WAT      O29830   4.505   0.406   1.517
 9863WAT     H129831   4.434   0.359   1.570
 9863WAT     H229832   4.475   0.415   1.422
 9864WAT      O29833   5.535   9.437   2.517
 9864WAT     H129834   5.452   9.414   2.568
 9864WAT     H229835   5.533   9.534   2.494
 9865WAT      O29836   6.155   6.513   0.382
 9865WAT     H129837   6.072   6.567   0.375
 9865WAT     H229838   6.142   6.425   0.336
 9866WAT      O29839   5.125   0.867   5.324
 9866WAT     H129840   5.186   0.840   5.399
 9866WAT     H229841   5.147   0.959   5.294
 9867WAT      O29842   2.752   4.927   7.233
 9867WAT     H129843   2.690   4.898   7.161
 9867WAT     H229844   2.708   4.918   7.322
 9868WAT      O29845   9.285   6.434   4.547
 9868WAT     H129846   9.324   6.381   4.622
 9868WAT     H229847   9.193   6.401   4.526
 9869WAT      O29848   0.593   7.890   8.010
 9869WAT     H129849   0.688   7.921   8.017
 9869WAT     H229850   0.578   7.852   7.919
 9870WAT      O29851   6.467   9.805   6.354
 9870WAT     H129852   6.476   9.712   6.389
 9870WAT     H229853   6.552   9.856   6.371
 9871WAT      O29854   8.301   1.349   2.386
 9871WAT     H129855   8.284   1.326   2.482
 9871WAT     H229856   8.214   1.368   2.341
 9872WAT      O29857   4.915   4.553   7.237
 9872WAT     H129858   4.878   4.487   7.303
 9872WAT     H229859   4.979   4.613   7.283
 9873WAT      O29860   2.493   4.189   8.422
 9873WAT     H129861   2.562   4.168   8.491
 9873WAT     H229862   2.405   4.150   8.450
 9874WAT      O29863   1.380   7.572   3.880
 9874WAT     H129864   1.398   7.558   3.783
 9874WAT     H229865   1.462   7.611   3.923
 9875WAT      O29866   2.551   2.426   3.684
 9875WAT     H129867   2.603   2.341   3.690
 9875WAT     H229868   2.464   2.415   3.731
 9876WAT      O29869   0.281   7.697   2.375
 9876WAT     H129870   0.341   7.652   2.309
 9876WAT     H229871   0.329   7.711   2.461
 9877WAT      O29872   8.371   6.537   5.812
 9877WAT     H129873   8.314   6.598   5.867
 9877WAT     H229874   8.444   6.500   5.869
 9878WAT      O29875   4.749   3.282   7.964
 9878WAT     H129876   4.770   3.215   7.893
 9878WAT     H229877   4.753   3.238   8.053
 9879WAT      O29878   5.905   7.117   9.633
 9879WAT     H129879   5.885   7.179   9.557
 9879WAT     H229880   5.935   7.029   9.597
 9880WAT      O29881   1.271   0.326   3.069
 9880WAT     H129882   1.228   0.347   2.981
 9880WAT     H229883   1.230   0.383   3.141
 9881WAT      O29884   1.026   0.095   0.888
 9881WAT     H129885   0.973   0.159   0.833
 9881WAT     H229886   0.999   0.103   0.984
 9882WAT      O29887   5.153   6.588   0.686
 9882WAT     H129888   5.252   6.599   0.691
 9882WAT     H229889   5.114   6.595   0.778
 9883WAT      O29890   3.123   6.137   3.500
 9883WAT     H129891   3.103   6.040   3.516
 9883WAT     H229892   3.195   6.145   3.431
 9884WAT      O29893   9.408   9.812   5.869
 9884WAT     H129894   9.335   9.768   5.921
 9884WAT     H229895   9.431   9.900   5.912
 9885WAT      O29896   9.405   8.828   3.070
 9885WAT     H129897   9.410   8.859   3.165
 9885WAT     H229898   9.465   8.884   3.013
 9886WAT      O29899   0.437   0.898   2.107
 9886WAT     H129900   0.532   0.923   2.124
 9886WAT     H229901   0.404   0.839   2.180
 9887WAT      O29902   4.338   3.832   7.175
 9887WAT     H129903   4.384   3.884   7.247
 9887WAT     H229904   4.248   3.871   7.157
 9888WAT      O29905   9.237   3.040   4.320
 9888WAT     H129906   9.162   2.974   4.310
 9888WAT     H229907   9.294   3.037   4.238
 9889WAT      O29908   5.563   5.283   2.590
 9889WAT     H129909   5.523   5.240   2.509
 9889WAT     H229910   5.578   5.380   2.572
 9890WAT      O29911   7.524   9.095   9.661
 9890WAT     H129912   7.456   9.024   9.639
 9890WAT     H229913   7.476   9.179   9.685
 9891WAT      O29914   7.706   5.056   2.828
 9891WAT     H129915   7.665   4.996   2.895
 9891WAT     H229916   7.754   5.002   2.759
 9892WAT      O29917   0.191   9.032   5.562
 9892WAT     H129918   0.166   9.127   5.581
 9892WAT     H229919   0.285   9.028   5.528
 9893WAT      O29920   6.286   7.115   6.292
 9893WAT     H129921   6.236   7.145   6.373
 9893WAT     H229922   6.378   7.086   6.318
 9894WAT      O29923   7.199   3.006   1.354
 9894WAT     H129924   7.185   2.910   1.379
 9894WAT     H229925   7.164   3.023   1.262
 9895WAT      O29926   7.794   5.714   9.029
 9895WAT     H129927   7.715   5.776   9.033
 9895WAT     H229928   7.865   5.745   9.092
 9896WAT      O29929   1.915   0.085   7.240
 9896WAT     H129930   1.838   0.096   7.303
 9896WAT     H229931   1.880   0.074   7.146
 9897WAT      O29932   6.260   5.305   5.882
 9897WAT     H129933   6.169   5.321   5.844
 9897WAT     H229934   6.287   5.209   5.867
 9898WAT      O29935   2.341   8.670   7.682
 9898WAT     H129936   2.297   8.748   7.727
 9898WAT     H229937   2.291   8.647   7.599
 9899WAT      O29938   0.481   7.152   4.796
 9899WAT     H129939   0.521   7.120   4.882
 9899WAT     H229940   0.384   7.126   4.794
 9900WAT      O29941   9.156   5.396   1.713
 9900WAT     H129942   9.155   5.296   1.717
 9900WAT     H229943   9.207   5.425   1.632
 9901WAT      O29944   3.119   2.303   6.155
 9901WAT     H129945   3.157   2.248   6.080
 9901WAT     H229946   3.029   2.267   6.179
 9902WAT      O29947   0.969   3.331   0.675
 9902WAT     H129948   1.040   3.292   0.616
 9902WAT     H229949   0.883   3.283   0.660
 9903WAT      O29950   7.071   3.386   3.507
 9903WAT     H129951   6.978   3.361   3.533
 9903WAT     H229952   7.092   3.478   3.540
 9904WAT      O29953   7.536   3.468   3.229
 9904WAT     H129954   7.632   3.440   3.232
 9904WAT     H229955   7.486   3.409   3.166
 9905WAT      O29956   4.640   4.512   8.772
 9905WAT     H129957   4.603   4.448   8.840
 9905WAT     H229958   4.731   4.482   8.744
 9906WAT      O29959   0.329   2.767   4.866
 9906WAT     H129960   0.326   2.860   4.830
 9906WAT     H229961   0.246   2.718   4.839
 9907WAT      O29962   9.161   0.244   9.281
 9907WAT     H129963   9.198   0.167   9.229
 9907WAT     H229964   9.204   0.248   9.371
 9908WAT      O29965   7.989   6.604   1.104
 9908WAT     H129966   8.006   6.511   1.139
 9908WAT     H229967   8.067   6.663   1.128
 9909WAT      O29968   0.510   1.193   3.516
 9909WAT     H129969   0.572   1.207   3.439
 9909WAT     H229970   0.423   1.158   3.483
 9910WAT      O29971   9.098   3.403   3.354
 9910WAT     H129972   9.145   3.487   3.381
 9910WAT     H229973   9.165   3.333   3.331
 9911WAT      O29974   9.588   4.420   3.484
 9911WAT     H129975   9.649   4.493   3.453
 9911WAT     H229976   9.582   4.350   3.414
 9912WAT      O29977   8.732   9.326   9.473
 9912WAT     H129978   8.832   9.318   9.467
 9912WAT     H229979   8.702   9.403   9.416
 9913WAT      O29980   1.367   9.239   1.599
 9913WAT     H129981   1.300   9.166   1.586
 9913WAT     H229982   1.460   9.201   1.590
 9914WAT      O29983   6.818   0.683   3.160
 9914WAT     H129984   6.858   0.774   3.145
 9914WAT     H229985   6.809   0.637   3.072
 9915WAT      O29986   3.716   8.167   2.800
 9915WAT     H129987   3.774   8.086   2.793
 9915WAT     H229988   3.727   8.209   2.889
 9916WAT      O29989   6.872   2.588   4.777
 9916WAT     H129990   6.945   2.569   4.843
 9916WAT     H229991   6.793   2.530   4.796
 9917WAT      O29992   1.939   2.475   4.802
 9917WAT     H129993   1.976   2.383   4.808
 9917WAT     H229994   1.874   2.481   4.726
 9918WAT      O29995   7.848   9.073   0.006
 9918WAT     H129996   7.941   9.101  -0.019
 9918WAT     H229997   7.791   9.155   0.016
 9919WAT      O29998   5.164   1.832   8.778
 9919WAT     H129999   5.206   1.743   8.759
 9919WAT     H230000   5.071   1.834   8.741
 9920WAT      O30001   9.341   2.063   1.655
 9920WAT     H130002   9.293   2.042   1.570
 9920WAT     H230003   9.367   2.160   1.656
 9921WAT      O30004   5.969   4.275   3.547
 9921WAT     H130005   5.993   4.204   3.614
 9921WAT     H230006   5.871   4.296   3.554
 9922WAT      O30007   8.525   0.975   2.489
 9922WAT     H130008   8.517   0.880   2.522
 9922WAT     H230009   8.599   1.021   2.538
 9923WAT      O30010   3.557   6.232   2.901
 9923WAT     H130011   3.495   6.158   2.876
 9923WAT     H230012   3.525   6.318   2.863
 9924WAT      O30013   6.710   4.679   7.004
 9924WAT     H130014   6.701   4.617   6.926
 9924WAT     H230015   6.745   4.767   6.973
 9925WAT      O30016   3.718   5.262   1.945
 9925WAT     H130017   3.630   5.265   1.898
 9925WAT     H230018   3.719   5.333   2.016
 9926WAT      O30019   0.506   7.502   2.400
 9926WAT     H130020   0.582   7.564   2.378
 9926WAT     H230021   0.480   7.515   2.496
 9927WAT      O30022   9.701   7.489   9.102
 9927WAT     H130023   9.648   7.495   9.018
 9927WAT     H230024   9.644   7.519   9.179
 9928WAT      O30025   4.285   6.307   5.092
 9928WAT     H130026   4.253   6.236   5.029
 9928WAT     H230027   4.335   6.265   5.167
 9929WAT      O30028   8.969   3.773   8.412
 9929WAT     H130029   8.947   3.870   8.424
 9929WAT     H230030   9.062   3.755   8.444
 9930WAT      O30031   4.880   2.983   6.095
 9930WAT     H130032   4.964   2.946   6.133
 9930WAT     H230033   4.847   3.058   6.154
 9931WAT      O30034   8.699   2.192   5.911
 9931WAT     H130035   8.623   2.150   5.860
 9931WAT     H230036   8.669   2.279   5.949
 9932WAT      O30037   7.363   0.423   3.443
 9932WAT     H130038   7.361   0.412   3.344
 9932WAT     H230039   7.302   0.355   3.485
 9933WAT      O30040   3.082   5.808   8.614
 9933WAT     H130041   3.175   5.773   8.624
 9933WAT     H230042   3.062   5.872   8.688
 9934WAT      O30043   4.141   5.041   2.078
 9934WAT     H130044   4.120   5.131   2.117
 9934WAT     H230045   4.227   5.046   2.027
 9935WAT      O30046   6.632   2.980   7.557
 9935WAT     H130047   6.717   3.031   7.574
 9935WAT     H230048   6.652   2.899   7.502
 9936WAT      O30049   9.570   8.988   2.937
 9936WAT     H130050   9.606   9.016   3.025
 9936WAT     H230051   9.584   9.061   2.870
 9937WAT      O30052   0.762   3.958   0.530
 9937WAT     H130053   0.663   3.940   0.535
 9937WAT     H230054   0.797   3.973   0.623
 9938WAT      O30055   0.919   2.481   9.333
 9938WAT     H130056   0.928   2.385   9.359
 9938WAT     H230057   0.952   2.539   9.408
 9939WAT      O30058   2.112   4.002   3.810
 9939WAT     H130059   2.149   4.092   3.788
 9939WAT     H230060   2.095   3.997   3.909
 9940WAT      O30061   7.393   8.346   4.311
 9940WAT     H130062   7.297   8.335   4.289
 9940WAT     H230063   7.430   8.424   4.260
 9941WAT      O30064   0.216   7.109   3.616
 9941WAT     H130065   0.203   7.099   3.715
 9941WAT     H230066   0.260   7.197   3.598
 9942WAT      O30067   1.996   8.008   3.459
 9942WAT     H130068   2.063   8.061   3.510
 9942WAT     H230069   1.906   8.017   3.502
 9943WAT      O30070   1.995   8.320   6.388
 9943WAT     H130071   1.958   8.271   6.466
 9943WAT     H230072   2.093   8.337   6.401
 9944WAT      O30073   9.266   5.339   2.456
 9944WAT     H130074   9.284   5.300   2.365
 9944WAT     H230075   9.230   5.267   2.516
 9945WAT      O30076   3.305   5.270   9.343
 9945WAT     H130077   3.221   5.317   9.313
 9945WAT     H230078   3.281   5.201   9.412
 9946WAT      O30079   1.671   6.007   4.850
 9946WAT     H130080   1.665   5.966   4.759
 9946WAT     H230081   1.616   5.954   4.915
 9947WAT      O30082   3.204   0.144   9.655
 9947WAT     H130083   3.257   0.069   9.694
 9947WAT     H230084   3.107   0.121   9.658
 9948WAT      O30085   4.083   9.830   6.528
 9948WAT     H130086   3.999   9.800   6.573
 9948WAT     H230087   4.119   9.911   6.575
 9949WAT      O30088   2.985   9.681   4.958
 9949WAT     H130089   2.917   9.609   4.977
 9949WAT     H230090   2.951   9.740   4.885
 9950WAT      O30091   0.961   7.889   4.055
 9950WAT     H130092   1.038   7.844   4.010
 9950WAT     H230093   0.950   7.852   4.148
 9951WAT      O30094   7.961   3.408   9.021
 9951WAT     H130095   7.981   3.311   9.035
 9951WAT     H230096   8.013   3.463   9.086
 9952WAT      O30097   4.048   1.977   6.081
 9952WAT     H130098   3.967   1.938   6.036
 9952WAT     H230099   4.023   2.009   6.172
 9953WAT      O30100   9.097   1.869   1.090
 9953WAT     H130101   9.020   1.814   1.058
 9953WAT     H230102   9.145   1.908   1.011
 9954WAT      O30103   1.625   8.397   9.777
 9954WAT     H130104   1.572   8.313   9.789
 9954WAT     H230105   1.564   8.476   9.785
 9955WAT      O30106   9.464   4.747   5.221
 9955WAT     H130107   9.474   4.837   5.178
 9955WAT     H230108   9.425   4.758   5.313
 9956WAT      O30109   1.825   4.764   8.189
 9956WAT     H130110   1.924   4.759   8.172
 9956WAT     H230111   1.796   4.681   8.237
 9957WAT      O30112   2.117   1.642   2.958
 9957WAT     H130113   2.194   1.582   2.978
 9957WAT     H230114   2.032   1.591   2.967
 9958WAT      O30115   4.796   2.668   1.508
 9958WAT     H130116   4.825   2.751   1.555
 9958WAT     H230117   4.863   2.644   1.438
 9959WAT      O30118   8.622   2.145   7.770
 9959WAT     H130119   8.665   2.193   7.846
 9959WAT     H230120   8.576   2.063   7.803
 9960WAT      O30121   6.505   8.529   9.086
 9960WAT     H130122   6.442   8.460   9.050
 9960WAT     H230123   6.509   8.607   9.024
 9961WAT      O30124   5.801   1.921   2.155
 9961WAT     H130125   5.836   1.992   2.215
 9961WAT     H230126   5.761   1.963   2.074
 9962WAT      O30127   0.141   0.334   3.680
 9962WAT     H130128   0.054   0.352   3.635
 9962WAT     H230129   0.152   0.398   3.757
 9963WAT      O30130   2.389   8.937   0.046
 9963WAT     H130131   2.386   9.037   0.038
 9963WAT     H230132   2.305   8.905   0.089
 9964WAT      O30133   6.298   6.540   6.609
 9964WAT     H130134   6.315   6.635   6.582
 9964WAT     H230135   6.320   6.480   6.532
 9965WAT      O30136   4.798   7.387   0.077
 9965WAT     H130137   4.706   7.423   0.094
 9965WAT     H230138   4.857   7.408   0.155
 9966WAT      O30139   1.931   4.814   4.606
 9966WAT     H130140   1.928   4.899   4.554
 9966WAT     H230141   1.984   4.827   4.690
 9967WAT      O30142   4.939   1.911   8.631
 9967WAT     H130143   4.870   1.865   8.687
 9967WAT     H230144   4.945   2.007   8.659
 9968WAT      O30145   5.758   7.690   0.951
 9968WAT     H130146   5.664   7.658   0.960
 9968WAT     H230147   5.821   7.613   0.964
 9969WAT      O30148   9.883   8.492   4.822
 9969WAT     H130149   9.936   8.444   4.752
 9969WAT     H230150   9.831   8.565   4.779
 9970WAT      O30151   7.975   9.183   5.755
 9970WAT     H130152   7.948   9.223   5.842
 9970WAT     H230153   7.929   9.094   5.743
 9971WAT      O30154   8.111   5.786   0.023
 9971WAT     H130155   8.059   5.765  -0.060
 9971WAT     H230156   8.053   5.837   0.087
 9972WAT      O30157   7.576   7.577   3.068
 9972WAT     H130158   7.569   7.570   3.168
 9972WAT     H230159   7.651   7.639   3.045
 9973WAT      O30160   0.979   8.585   8.725
 9973WAT     H130161   0.897   8.528   8.730
 9973WAT     H230162   0.953   8.678   8.699
 9974WAT      O30163   3.565   7.043   9.191
 9974WAT     H130164   3.578   7.138   9.164
 9974WAT     H230165   3.589   6.983   9.115
 9975WAT      O30166   9.161   0.320   0.967
 9975WAT     H130167   9.202   0.371   1.044
 9975WAT     H230168   9.219   0.331   0.886
 9976WAT      O30169   8.569   8.878   9.136
 9976WAT     H130170   8.525   8.964   9.159
 9976WAT     H230171   8.651   8.895   9.081
 9977WAT      O30172   5.032   4.786   4.179
 9977WAT     H130173   5.001   4.866   4.231
 9977WAT     H230174   5.025   4.806   4.081
 9978WAT      O30175   7.844   3.844   1.901
 9978WAT     H130176   7.781   3.922   1.895
 9978WAT     H230177   7.887   3.844   1.992
 9979WAT      O30178   1.025   2.308   8.784
 9979WAT     H130179   1.037   2.342   8.878
 9979WAT     H230180   1.081   2.227   8.771
 9980WAT      O30181   0.436   4.513   2.003
 9980WAT     H130182   0.482   4.516   1.914
 9980WAT     H230183   0.337   4.509   1.989
 9981WAT      O30184   1.560   8.040   4.051
 9981WAT     H130185   1.559   7.998   4.142
 9981WAT     H230186   1.532   7.972   3.983
 9982WAT      O30187   6.874   8.967   3.695
 9982WAT     H130188   6.944   9.019   3.647
 9982WAT     H230189   6.784   8.989   3.657
 9983WAT      O30190   7.383   1.588   0.753
 9983WAT     H130191   7.417   1.661   0.811
 9983WAT     H230192   7.459   1.530   0.723
 9984WAT      O30193   8.380   6.281   8.058
 9984WAT     H130194   8.411   6.337   7.981
 9984WAT     H230195   8.292   6.316   8.091
 9985WAT      O30196   8.122   6.770   4.755
 9985WAT     H130197   8.140   6.868   4.752
 9985WAT     H230198   8.032   6.751   4.715
 9986WAT      O30199   3.768   9.819   3.028
 9986WAT     H130200   3.797   9.769   3.109
 9986WAT     H230201   3.702   9.764   2.976
 9987WAT      O30202   9.730   6.629   0.725
 9987WAT     H130203   9.720   6.715   0.775
 9987WAT     H230204   9.793   6.643   0.649
 9988WAT      O30205   2.825   4.175   7.732
 9988WAT     H130206   2.885   4.226   7.794
 9988WAT     H230207   2.730   4.194   7.756
 9989WAT      O30208   8.540   6.788   4.001
 9989WAT     H130209   8.570   6.872   4.046
 9989WAT     H230210   8.619   6.735   3.972
 9990WAT      O30211   3.421   4.771   2.464
 9990WAT     H130212   3.338   4.716   2.464
 9990WAT     H230213   3.422   4.831   2.384
 9991WAT      O30214   0.574   4.409   7.948
 9991WAT     H130215   0.626   4.485   7.987
 9991WAT     H230216   0.579   4.413   7.848
 9992WAT      O30217   0.436   6.679   8.562
 9992WAT     H130218   0.518   6.729   8.591
 9992WAT     H230219   0.420   6.602   8.624
 9993WAT      O30220   7.160   2.456   2.572
 9993WAT     H130221   7.154   2.552   2.599
 9993WAT     H230222   7.111   2.442   2.486
 9994WAT      O30223   0.516   2.615   5.595
 9994WAT     H130224   0.528   2.707   5.556
 9994WAT     H230225   0.456   2.561   5.536
 9995WAT      O30226   4.253   3.930   9.306
 9995WAT     H130227   4.271   4.016   9.259
 9995WAT     H230228   4.274   3.941   9.403
 9996WAT      O30229   2.248   8.088   1.583
 9996WAT     H130230   2.151   8.096   1.604
 9996WAT     H230231   2.264   8.115   1.488
 9997WAT      O30232   5.856   0.547   7.550
 9997WAT     H130233   5.804   0.472   7.508
 9997WAT     H230234   5.899   0.601   7.478
 9998WAT      O30235   5.525   5.061   6.802
 9998WAT     H130236   5.598   5.129   6.813
 9998WAT     H230237   5.448   5.103   6.755
 9999WAT      O30238   9.329   7.567   8.560
 9999WAT     H130239   9.301   7.502   8.489
 9999WAT     H230240   9.428   7.583   8.552
10000WAT      O30241   2.318   6.431   8.454
10000WAT     H130242   2.272   6.507   8.501
10000WAT     H230243   2.417   6.442   8.461
10001WAT      O30244   4.994   1.729   1.607
10001WAT     H130245   4.966   1.748   1.512
10001WAT     H230246   5.092   1.710   1.610
10002WAT      O30247   2.559   8.240   3.298
10002WAT     H130248   2.593   8.318   3.351
10002WAT     H230249   2.637   8.189   3.261
10003WAT      O30250   1.997   0.324   2.237
10003WAT     H130251   2.085   0.310   2.282
10003WAT     H230252   1.938   0.381   2.295
10004WAT      O30253   8.408   2.937   3.560
10004WAT     H130254   8.353   2.891   3.491
10004WAT     H230255   8.371   3.028   3.577
10005WAT      O30256   7.736   3.949   3.084
10005WAT     H130257   7.786   4.034   3.065
10005WAT     H230258   7.800   3.878   3.113
10006WAT      O30259   4.358   9.505   6.760
10006WAT     H130260   4.284   9.530   6.697
10006WAT     H230261   4.443   9.548   6.728
10007WAT      O30262   9.125   4.598   7.497
10007WAT     H130263   9.118   4.600   7.397
10007WAT     H230264   9.186   4.671   7.528
10008WAT      O30265   8.828   7.283   2.735
10008WAT     H130266   8.920   7.321   2.745
10008WAT     H230267   8.764   7.357   2.710
10009WAT      O30268   0.845   5.416   6.587
10009WAT     H130269   0.787   5.448   6.661
10009WAT     H230270   0.872   5.494   6.529
10010WAT      O30271   3.303   2.009   7.838
10010WAT     H130272   3.368   1.948   7.791
10010WAT     H230273   3.350   2.057   7.912
10011WAT      O30274   9.425   8.695   7.501
10011WAT     H130275   9.424   8.672   7.599
10011WAT     H230276   9.422   8.611   7.447
10012WAT      O30277   9.424   2.990   6.071
10012WAT     H130278   9.434   2.901   6.115
10012WAT     H230279   9.471   3.060   6.125
10013WAT      O30280   5.779   2.623   6.146
10013WAT     H130281   5.737   2.645   6.057
10013WAT     H230282   5.784   2.706   6.201
10014WAT      O30283   5.912   8.873   6.846
10014WAT     H130284   5.882   8.963   6.818
10014WAT     H230285   5.944   8.821   6.766
10015WAT      O30286   3.056   7.861   9.338
10015WAT     H130287   2.997   7.780   9.333
10015WAT     H230288   3.149   7.836   9.310
10016WAT      O30289   7.997   3.770   6.484
10016WAT     H130290   8.087   3.779   6.526
10016WAT     H230291   7.977   3.673   6.469
10017WAT      O30292   7.948   7.693   4.233
10017WAT     H130293   7.875   7.741   4.281
10017WAT     H230294   8.033   7.746   4.237
10018WAT      O30295   7.953   3.323   2.779
10018WAT     H130296   7.897   3.244   2.754
10018WAT     H230297   7.900   3.384   2.838
10019WAT      O30298   0.485   8.845   6.188
10019WAT     H130299   0.480   8.760   6.136
10019WAT     H230300   0.500   8.825   6.284
10020WAT      O30301   6.610   6.489   9.466
10020WAT     H130302   6.545   6.486   9.542
10020WAT     H230303   6.571   6.442   9.387
10021WAT      O30304   6.396   5.876   6.186
10021WAT     H130305   6.462   5.938   6.144
10021WAT     H230306   6.445   5.800   6.230
10022WAT      O30307   9.809   8.054   9.475
10022WAT     H130308   9.898   8.008   9.467
10022WAT     H230309   9.747   7.998   9.529
10023WAT      O30310   6.583   5.216   4.452
10023WAT     H130311   6.578   5.214   4.552
10023WAT     H230312   6.678   5.224   4.424
10024WAT      O30313   3.192   4.990   9.388
10024WAT     H130314   3.213   4.912   9.446
10024WAT     H230315   3.162   4.957   9.298
10025WAT      O30316   8.552   9.806   4.528
10025WAT     H130317   8.497   9.888   4.547
10025WAT     H230318   8.491   9.728   4.515
10026WAT      O30319   8.908   9.727   6.314
10026WAT     H130320   8.966   9.736   6.395
10026WAT     H230321   8.825   9.783   6.326
10027WAT      O30322   8.646   4.372   9.010
10027WAT     H130323   8.649   4.399   9.106
10027WAT     H230324   8.568   4.415   8.965
10028WAT      O30325   2.671   0.376   1.371
10028WAT     H130326   2.599   0.428   1.417
10028WAT     H230327   2.685   0.413   1.279
10029WAT      O30328   9.850   5.106   3.644
10029WAT     H130329   9.782   5.034   3.630
10029WAT     H230330   9.815   5.172   3.711
10030WAT      O30331   9.570   7.584   3.628
10030WAT     H130332   9.590   7.635   3.545
10030WAT     H230333   9.653   7.578   3.684
10031WAT      O30334   2.669   4.729   4.882
10031WAT     H130335   2.652   4.775   4.969
10031WAT     H230336   2.713   4.792   4.818
10032WAT      O30337   5.711   3.192   3.022
10032WAT     H130338   5.632   3.238   2.982
10032WAT     H230339   5.680   3.119   3.083
10033WAT      O30340   2.884   6.194   6.276
10033WAT     H130341   2.828   6.115   6.252
10033WAT     H230342   2.976   6.164   6.300
10034WAT      O30343   7.173   4.094   5.961
10034WAT     H130344   7.250   4.068   5.902
10034WAT     H230345   7.171   4.193   5.972
10035WAT      O30346   3.990   4.850   9.184
10035WAT     H130347   3.907   4.815   9.140
10035WAT     H230348   3.971   4.937   9.229
10036WAT      O30349   2.856   9.376   0.760
10036WAT     H130350   2.782   9.376   0.827
10036WAT     H230351   2.818   9.387   0.668
10037WAT      O30352   7.451   9.714   0.705
10037WAT     H130353   7.506   9.631   0.695
10037WAT     H230354   7.355   9.693   0.692
10038WAT      O30355   3.950   7.981   1.597
10038WAT     H130356   4.048   7.961   1.593
10038WAT     H230357   3.902   7.925   1.529
10039WAT      O30358   8.583   5.820   8.667
10039WAT     H130359   8.609   5.785   8.757
10039WAT     H230360   8.489   5.855   8.670
10040WAT      O30361   8.084   5.255   3.347
10040WAT     H130362   7.985   5.240   3.349
10040WAT     H230363   8.106   5.326   3.280
10041WAT      O30364   0.933   5.875   0.775
10041WAT     H130365   0.972   5.809   0.710
10041WAT     H230366   0.875   5.828   0.841
10042WAT      O30367   8.201   8.352   6.739
10042WAT     H130368   8.116   8.338   6.789
10042WAT     H230369   8.272   8.292   6.778
10043WAT      O30370   9.253   4.308   1.663
10043WAT     H130371   9.343   4.265   1.667
10043WAT     H230372   9.260   4.403   1.691
10044WAT      O30373   6.888   0.441   7.430
10044WAT     H130374   6.919   0.349   7.406
10044WAT     H230375   6.821   0.473   7.363
10045WAT      O30376   3.697   6.803   3.818
10045WAT     H130377   3.621   6.741   3.797
10045WAT     H230378   3.702   6.819   3.916
10046WAT      O30379   7.521   3.282   4.934
10046WAT     H130380   7.442   3.272   4.994
10046WAT     H230381   7.501   3.241   4.845
10047WAT      O30382   1.950   5.524   1.780
10047WAT     H130383   1.851   5.523   1.786
10047WAT     H230384   1.978   5.521   1.684
10048WAT      O30385   1.066   2.009   5.277
10048WAT     H130386   1.093   2.066   5.199
10048WAT     H230387   1.048   1.916   5.245
10049WAT      O30388   0.809   2.571   5.435
10049WAT     H130389   0.800   2.536   5.528
10049WAT     H230390   0.831   2.668   5.438
10050WAT      O30391   0.009   7.611   1.717
10050WAT     H130392   0.011   7.542   1.789
10050WAT     H230393   0.049   7.573   1.634
10051WAT      O30394   6.217   7.525   8.031
10051WAT     H130395   6.298   7.468   8.022
10051WAT     H230396   6.175   7.538   7.941
10052WAT      O30397   2.015   2.376   1.016
10052WAT     H130398   1.996   2.357   1.112
10052WAT     H230399   2.068   2.461   1.009
10053WAT      O30400   6.566   3.853   7.144
10053WAT     H130401   6.549   3.809   7.233
10053WAT     H230402   6.651   3.818   7.106
10054WAT      O30403   3.754   6.624   4.937
10054WAT     H130404   3.719   6.601   5.028
10054WAT     H230405   3.847   6.590   4.928
10055WAT      O30406   6.898   8.042   3.423
10055WAT     H130407   6.882   8.046   3.521
10055WAT     H230408   6.918   7.947   3.397
10056WAT      O30409   8.194   2.502   5.886
10056WAT     H130410   8.160   2.491   5.979
10056WAT     H230411   8.182   2.596   5.856
10057WAT      O30412   9.295   7.448   8.820
10057WAT     H130413   9.289   7.494   8.732
10057WAT     H230414   9.204   7.441   8.861
10058WAT      O30415   3.179   8.965   1.174
10058WAT     H130416   3.218   8.965   1.082
10058WAT     H230417   3.230   9.028   1.232
10059WAT      O30418   4.963   2.233   3.281
10059WAT     H130419   5.026   2.279   3.219
10059WAT     H230420   4.881   2.205   3.231
10060WAT      O30421   7.265   6.698   5.897
10060WAT     H130422   7.292   6.625   5.959
10060WAT     H230423   7.200   6.662   5.830
10061WAT      O30424   8.425   4.959   2.481
10061WAT     H130425   8.398   5.027   2.549
10061WAT     H230426   8.374   4.975   2.396
10062WAT      O30427   9.756   4.324   4.883
10062WAT     H130428   9.799   4.414   4.875
10062WAT     H230429   9.823   4.252   4.864
10063WAT      O30430   3.274   5.511   3.728
10063WAT     H130431   3.210   5.441   3.761
10063WAT     H230432   3.253   5.599   3.772
10064WAT      O30433   9.807   7.151   0.211
10064WAT     H130434   9.894   7.180   0.252
10064WAT     H230435   9.826   7.085   0.138
10065WAT      O30436   4.313   7.098   4.766
10065WAT     H130437   4.376   7.116   4.691
10065WAT     H230438   4.361   7.107   4.853
10066WAT      O30439   3.675   2.444   8.333
10066WAT     H130440   3.589   2.392   8.331
10066WAT     H230441   3.654   2.540   8.351
10067WAT      O30442   3.680   4.148   7.936
10067WAT     H130443   3.692   4.223   8.001
10067WAT     H230444   3.746   4.157   7.862
10068WAT      O30445   7.591   0.022   7.600
10068WAT     H130446   7.495   0.047   7.584
10068WAT     H230447   7.650   0.082   7.546
10069WAT      O30448   7.317   5.428   0.592
10069WAT     H130449   7.224   5.391   0.584
10069WAT     H230450   7.343   5.432   0.689
10070WAT      O30451   7.393   4.023   2.801
10070WAT     H130452   7.468   3.958   2.815
10070WAT     H230453   7.326   3.984   2.737
10071WAT      O30454   0.184   5.132   1.987
10071WAT     H130455   0.108   5.143   1.923
10071WAT     H230456   0.152   5.146   2.080
10072WAT      O30457   5.358   2.071   4.768
10072WAT     H130458   5.377   2.139   4.697
10072WAT     H230459   5.381   2.108   4.858
10073WAT      O30460   8.817   0.317   0.429
10073WAT     H130461   8.835   0.413   0.407
10073WAT     H230462   8.878   0.288   0.503
10074WAT      O30463   0.331   4.305   4.769
10074WAT     H130464   0.248   4.261   4.801
10074WAT     H230465   0.328   4.314   4.669
10075WAT      O30466   2.379   2.947   1.581
10075WAT     H130467   2.395   2.869   1.521
10075WAT     H230468   2.462   3.003   1.586
10076WAT      O30469   8.082   8.953   4.130
10076WAT     H130470   8.039   9.016   4.195
10076WAT     H230471   8.126   8.879   4.180
10077WAT      O30472   3.346   8.665   2.540
10077WAT     H130473   3.280   8.701   2.474
10077WAT     H230474   3.325   8.702   2.631
10078WAT      O30475   7.562   7.140   0.776
10078WAT     H130476   7.476   7.122   0.823
10078WAT     H230477   7.546   7.141   0.677
10079WAT      O30478   3.617   3.542   3.282
10079WAT     H130479   3.610   3.445   3.304
10079WAT     H230480   3.676   3.554   3.202
10080WAT      O30481   8.761   7.848   7.876
10080WAT     H130482   8.828   7.776   7.855
10080WAT     H230483   8.698   7.858   7.799
10081WAT      O30484   5.148   5.416   4.381
10081WAT     H130485   5.164   5.334   4.327
10081WAT     H230486   5.226   5.478   4.372
10082WAT      O30487   4.676   2.012   8.086
10082WAT     H130488   4.596   1.953   8.089
10082WAT     H230489   4.718   2.015   8.176
10083WAT      O30490   5.496   0.240   3.566
10083WAT     H130491   5.476   0.332   3.532
10083WAT     H230492   5.513   0.242   3.664
10084WAT      O30493   1.391   9.383   2.828
10084WAT     H130494   1.298   9.383   2.865
10084WAT     H230495   1.403   9.463   2.769
10085WAT      O30496   2.050   6.098   0.701
10085WAT     H130497   2.080   6.017   0.650
10085WAT     H230498   2.119   6.121   0.769
10086WAT      O30499   6.256   7.811   6.995
10086WAT     H130500   6.180   7.876   6.990
10086WAT     H230501   6.305   7.824   7.081
10087WAT      O30502   9.391   2.988   1.133
10087WAT     H130503   9.484   2.956   1.150
10087WAT     H230504   9.333   2.911   1.107
10088WAT      O30505   1.741   1.549   8.352
10088WAT     H130506   1.667   1.588   8.297
10088WAT     H230507   1.702   1.507   8.434
10089WAT      O30508   3.098   5.126   5.319
10089WAT     H130509   3.178   5.066   5.321
10089WAT     H230510   3.044   5.112   5.402
10090WAT      O30511   3.037   1.524   5.494
10090WAT     H130512   3.125   1.524   5.447
10090WAT     H230513   2.999   1.617   5.493
10091WAT      O30514   7.196   4.625   6.430
10091WAT     H130515   7.156   4.674   6.508
10091WAT     H230516   7.253   4.687   6.377
10092WAT      O30517   1.021   2.511   4.959
10092WAT     H130518   0.974   2.492   5.046
10092WAT     H230519   1.107   2.461   4.956
10093WAT      O30520   4.499   0.381   6.402
10093WAT     H130521   4.481   0.465   6.454
10093WAT     H230522   4.518   0.306   6.465
10094WAT      O30523   6.963   8.121   4.157
10094WAT     H130524   6.900   8.076   4.219
10094WAT     H230525   6.912   8.179   4.094
10095WAT      O30526   4.871   1.477   7.926
10095WAT     H130527   4.806   1.423   7.872
10095WAT     H230528   4.828   1.502   8.013
10096WAT      O30529   0.524   4.354   7.303
10096WAT     H130530   0.496   4.278   7.361
10096WAT     H230531   0.609   4.394   7.338
10097WAT      O30532   6.439   0.968   1.102
10097WAT     H130533   6.527   1.013   1.085
10097WAT     H230534   6.385   0.967   1.018
10098WAT      O30535   5.416   7.346   7.810
10098WAT     H130536   5.505   7.360   7.766
10098WAT     H230537   5.410   7.402   7.893
10099WAT      O30538   0.584   2.527   8.105
10099WAT     H130539   0.619   2.464   8.175
10099WAT     H230540   0.658   2.550   8.042
10100WAT      O30541   0.925   8.282   2.518
10100WAT     H130542   0.955   8.232   2.437
10100WAT     H230543   0.949   8.379   2.508
10101WAT      O30544   5.489   2.544   2.009
10101WAT     H130545   5.547   2.571   1.932
10101WAT     H230546   5.398   2.520   1.975
10102WAT      O30547   9.335   9.478   2.616
10102WAT     H130548   9.314   9.399   2.673
10102WAT     H230549   9.274   9.554   2.641
10103WAT      O30550   0.052   4.130   4.850
10103WAT     H130551   0.042   4.055   4.784
10103WAT     H230552   0.034   4.096   4.942
10104WAT      O30553   7.958   7.242   8.064
10104WAT     H130554   7.941   7.320   8.123
10104WAT     H230555   7.876   7.223   8.009
10105WAT      O30556   0.887   3.131   6.923
10105WAT     H130557   0.953   3.069   6.966
10105WAT     H230558   0.926   3.167   6.839
10106WAT      O30559   0.054   1.730   8.024
10106WAT     H130560   0.013   1.817   8.054
10106WAT     H230561   0.127   1.749   7.958
10107WAT      O30562   1.688   0.976   8.495
10107WAT     H130563   1.658   1.066   8.463
10107WAT     H230564   1.648   0.957   8.585
10108WAT      O30565   6.224   8.803   8.489
10108WAT     H130566   6.163   8.877   8.518
10108WAT     H230567   6.261   8.825   8.399
10109WAT      O30568   6.196   7.817   5.658
10109WAT     H130569   6.214   7.904   5.705
10109WAT     H230570   6.271   7.753   5.677
10110WAT      O30571   0.028   5.710   2.618
10110WAT     H130572  -0.021   5.638   2.668
10110WAT     H230573   0.113   5.731   2.666
10111WAT      O30574   2.489   6.467   1.309
10111WAT     H130575   2.513   6.390   1.368
10111WAT     H230576   2.566   6.489   1.249
10112WAT      O30577   4.245   1.461   1.794
10112WAT     H130578   4.233   1.560   1.791
10112WAT     H230579   4.159   1.418   1.823
10113WAT      O30580   6.686   2.552   0.775
10113WAT     H130581   6.636   2.525   0.858
10113WAT     H230582   6.640   2.515   0.695
10114WAT      O30583   0.537   4.670   4.632
10114WAT     H130584   0.446   4.713   4.629
10114WAT     H230585   0.547   4.621   4.719
10115WAT      O30586   5.331   7.397   1.444
10115WAT     H130587   5.431   7.396   1.449
10115WAT     H230588   5.294   7.330   1.509
10116WAT      O30589   7.513   8.892   1.049
10116WAT     H130590   7.434   8.859   0.996
10116WAT     H230591   7.513   8.848   1.138
10117WAT      O30592   7.317   3.298   3.379
10117WAT     H130593   7.225   3.332   3.395
10117WAT     H230594   7.319   3.241   3.297
10118WAT      O30595   5.351   2.368   9.675
10118WAT     H130596   5.314   2.276   9.682
10118WAT     H230597   5.338   2.402   9.581
10119WAT      O30598   4.456   7.292   8.393
10119WAT     H130599   4.546   7.293   8.437
10119WAT     H230600   4.385   7.295   8.463
10120WAT      O30601   1.517   8.963   0.322
10120WAT     H130602   1.522   8.894   0.394
10120WAT     H230603   1.422   8.978   0.297
10121WAT      O30604   6.598   0.580   1.261
10121WAT     H130605   6.532   0.506   1.251
10121WAT     H230606   6.552   0.662   1.297
10122WAT      O30607   3.537   9.484   0.310
10122WAT     H130608   3.505   9.538   0.233
10122WAT     H230609   3.523   9.535   0.395
10123WAT      O30610   0.178   7.950   1.455
10123WAT     H130611   0.100   7.903   1.414
10123WAT     H230612   0.217   7.893   1.528
10124WAT      O30613   0.664   6.734   7.771
10124WAT     H130614   0.751   6.698   7.805
10124WAT     H230615   0.681   6.800   7.698
10125WAT      O30616   2.182   5.368   0.957
10125WAT     H130617   2.132   5.444   0.999
10125WAT     H230618   2.199   5.297   1.025
10126WAT      O30619   0.341   1.139   2.118
10126WAT     H130620   0.391   1.054   2.099
10126WAT     H230621   0.245   1.128   2.092
10127WAT      O30622   1.144   2.900   8.496
10127WAT     H130623   1.206   2.822   8.506
10127WAT     H230624   1.167   2.951   8.413
10128WAT      O30625   2.039   6.093   9.273
10128WAT     H130626   2.009   6.188   9.279
10128WAT     H230627   2.003   6.042   9.351
10129WAT      O30628   8.033   0.762   9.686
10129WAT     H130629   7.950   0.798   9.642
10129WAT     H230630   8.018   0.754   9.784
10130WAT      O30631   9.156   2.693   2.321
10130WAT     H130632   9.085   2.642   2.370
10130WAT     H230633   9.147   2.676   2.222
10131WAT      O30634   4.310   2.433   5.014
10131WAT     H130635   4.287   2.452   4.919
10131WAT     H230636   4.234   2.459   5.073
10132WAT      O30637   5.411   8.871   3.374
10132WAT     H130638   5.371   8.951   3.420
10132WAT     H230639   5.438   8.803   3.442
10133WAT      O30640   6.165   7.763   9.371
10133WAT     H130641   6.161   7.785   9.469
10133WAT     H230642   6.075   7.728   9.342
10134WAT      O30643   2.201   3.605   6.934
10134WAT     H130644   2.217   3.673   6.862
10134WAT     H230645   2.133   3.539   6.903
10135WAT      O30646   8.037   2.277   3.202
10135WAT     H130647   8.132   2.247   3.200
10135WAT     H230648   8.002   2.286   3.109
10136WAT      O30649   5.810   0.046   8.290
10136WAT     H130650   5.897   0.020   8.247
10136WAT     H230651   5.812   0.143   8.313
10137WAT      O30652   2.665   3.721   3.267
10137WAT     H130653   2.675   3.817   3.239
10137WAT     H230654   2.610   3.717   3.351
10138WAT      O30655   5.464   2.398   2.257
10138WAT     H130656   5.484   2.448   2.173
10138WAT     H230657   5.452   2.462   2.332
10139WAT      O30658   9.050   5.618   6.529
10139WAT     H130659   9.108   5.666   6.594
10139WAT     H230660   8.957   5.611   6.566
10140WAT      O30661   6.416   5.219   8.510
10140WAT     H130662   6.502   5.186   8.472
10140WAT     H230663   6.344   5.151   8.494
10141WAT      O30664   4.502   9.452   3.309
10141WAT     H130665   4.417   9.456   3.361
10141WAT     H230666   4.505   9.528   3.244
10142WAT      O30667   6.574   9.573   0.338
10142WAT     H130668   6.587   9.526   0.426
10142WAT     H230669   6.645   9.642   0.327
10143WAT      O30670   4.753   4.030   7.808
10143WAT     H130671   4.745   4.123   7.771
10143WAT     H230672   4.824   3.980   7.758
10144WAT      O30673   5.581   6.070   2.411
10144WAT     H130674   5.606   6.044   2.504
10144WAT     H230675   5.623   6.158   2.388
10145WAT      O30676   3.554   8.500   2.460
10145WAT     H130677   3.476   8.553   2.493
10145WAT     H230678   3.639   8.547   2.484
10146WAT      O30679   2.352   8.092   2.816
10146WAT     H130680   2.322   8.091   2.721
10146WAT     H230681   2.272   8.095   2.876
10147WAT      O30682   2.829   1.889   4.695
10147WAT     H130683   2.811   1.841   4.780
10147WAT     H230684   2.746   1.894   4.640
10148WAT      O30685   4.770   8.309   0.075
10148WAT     H130686   4.845   8.297   0.010
10148WAT     H230687   4.696   8.361   0.031
10149WAT      O30688   4.953   0.592   0.602
10149WAT     H130689   4.984   0.661   0.667
10149WAT     H230690   4.877   0.540   0.643
10150WAT      O30691   5.446   5.201   4.762
10150WAT     H130692   5.350   5.200   4.731
10150WAT     H230693   5.471   5.111   4.797
10151WAT      O30694   6.651   5.319   8.123
10151WAT     H130695   6.578   5.250   8.126
10151WAT     H230696   6.662   5.351   8.029
10152WAT      O30697   2.608   3.740   4.497
10152WAT     H130698   2.602   3.671   4.425
10152WAT     H230699   2.522   3.744   4.546
10153WAT      O30700   4.701   0.183   3.858
10153WAT     H130701   4.747   0.245   3.922
10153WAT     H230702   4.605   0.173   3.886
10154WAT      O30703   7.483   0.379   9.827
10154WAT     H130704   7.439   0.365   9.915
10154WAT     H230705   7.528   0.295   9.798
10155WAT      O30706   1.183   8.673   7.635
10155WAT     H130707   1.282   8.676   7.645
10155WAT     H230708   1.143   8.612   7.703
10156WAT      O30709   6.307   6.380   1.261
10156WAT     H130710   6.221   6.429   1.270
10156WAT     H230711   6.311   6.335   1.172
10157WAT      O30712   7.863   4.596   1.265
10157WAT     H130713   7.914   4.670   1.309
10157WAT     H230714   7.870   4.605   1.166
10158WAT      O30715   5.152   0.893   8.974
10158WAT     H130716   5.239   0.844   8.963
10158WAT     H230717   5.108   0.902   8.885
10159WAT      O30718   4.640   4.817   6.901
10159WAT     H130719   4.698   4.793   6.823
10159WAT     H230720   4.648   4.746   6.971
10160WAT      O30721   5.989   8.631   7.069
10160WAT     H130722   6.030   8.720   7.047
10160WAT     H230723   6.039   8.588   7.144
10161WAT      O30724   7.013   9.656   7.821
10161WAT     H130725   7.052   9.652   7.729
10161WAT     H230726   7.010   9.751   7.851
10162WAT      O30727   5.377   8.431   4.529
10162WAT     H130728   5.284   8.453   4.560
10162WAT     H230729   5.440   8.501   4.562
10163WAT      O30730   5.705   3.463   9.492
10163WAT     H130731   5.775   3.403   9.529
10163WAT     H230732   5.723   3.557   9.522
10164WAT      O30733   8.209   7.632   2.406
10164WAT     H130734   8.275   7.700   2.438
10164WAT     H230735   8.203   7.636   2.306
10165WAT      O30736   3.438   2.080   0.887
10165WAT     H130737   3.534   2.062   0.866
10165WAT     H230738   3.431   2.144   0.963
10166WAT      O30739   2.946   7.722   4.976
10166WAT     H130740   2.856   7.711   5.019
10166WAT     H230741   3.014   7.739   5.046
10167WAT      O30742   4.982   5.407   4.892
10167WAT     H130743   4.934   5.352   4.960
10167WAT     H230744   4.917   5.467   4.845
10168WAT      O30745   8.126   3.399   8.336
10168WAT     H130746   8.078   3.435   8.256
10168WAT     H230747   8.088   3.440   8.418
10169WAT      O30748   0.343   8.054   0.457
10169WAT     H130749   0.387   7.966   0.473
10169WAT     H230750   0.413   8.124   0.443
10170WAT      O30751   6.140   8.374   4.958
10170WAT     H130752   6.202   8.393   4.881
10170WAT     H230753   6.103   8.281   4.949
10171WAT      O30754   1.302   5.413   5.444
10171WAT     H130755   1.360   5.456   5.374
10171WAT     H230756   1.348   5.417   5.532
10172WAT      O30757   0.066   0.913   8.406
10172WAT     H130758   0.011   0.981   8.359
10172WAT     H230759   0.096   0.843   8.341
10173WAT      O30760   1.422   3.778   9.599
10173WAT     H130761   1.433   3.834   9.682
10173WAT     H230762   1.510   3.737   9.575
10174WAT      O30763   1.403   2.434   5.368
10174WAT     H130764   1.418   2.337   5.351
10174WAT     H230765   1.400   2.450   5.466
10175WAT      O30766   0.800   6.623   4.509
10175WAT     H130767   0.780   6.539   4.560
10175WAT     H230768   0.719   6.650   4.458
10176WAT      O30769   3.704   2.943   3.089
10176WAT     H130770   3.675   2.960   3.183
10176WAT     H230771   3.798   2.975   3.078
10177WAT      O30772   8.423   3.073   0.764
10177WAT     H130773   8.332   3.033   0.770
10177WAT     H230774   8.478   3.043   0.842
10178WAT      O30775   4.592   2.361   7.610
10178WAT     H130776   4.683   2.385   7.577
10178WAT     H230777   4.578   2.403   7.700
10179WAT      O30778   4.288   1.545   4.673
10179WAT     H130779   4.190   1.537   4.657
10179WAT     H230780   4.323   1.626   4.626
10180WAT      O30781   5.375   3.666   2.022
10180WAT     H130782   5.379   3.710   2.111
10180WAT     H230783   5.380   3.735   1.950
10181WAT      O30784   0.464   4.668   5.711
10181WAT     H130785   0.563   4.653   5.719
10181WAT     H230786   0.447   4.750   5.657
10182WAT      O30787   8.804   3.374   0.528
10182WAT     H130788   8.830   3.350   0.434
10182WAT     H230789   8.858   3.453   0.558
10183WAT      O30790   0.290   8.204   6.859
10183WAT     H130791   0.323   8.295   6.833
10183WAT     H230792   0.341   8.134   6.809
10184WAT      O30793   0.699   5.549   2.285
10184WAT     H130794   0.692   5.550   2.385
10184WAT     H230795   0.730   5.638   2.252
10185WAT      O30796   6.020   4.503   2.207
10185WAT     H130797   6.047   4.513   2.303
10185WAT     H230798   5.963   4.581   2.181
10186WAT      O30799   9.801   1.561   6.590
10186WAT     H130800   9.701   1.558   6.592
10186WAT     H230801   9.832   1.586   6.499
10187WAT      O30802   0.627   9.033   0.688
10187WAT     H130803   0.538   9.059   0.725
10187WAT     H230804   0.700   9.077   0.740
10188WAT      O30805   8.017   4.683   0.275
10188WAT     H130806   7.936   4.707   0.220
10188WAT     H230807   8.065   4.767   0.301
10189WAT      O30808   1.693   3.348   1.563
10189WAT     H130809   1.767   3.281   1.555
10189WAT     H230810   1.688   3.402   1.479
10190WAT      O30811   7.680   4.315   0.682
10190WAT     H130812   7.661   4.309   0.584
10190WAT     H230813   7.779   4.311   0.697
10191WAT      O30814   3.217   6.366   8.288
10191WAT     H130815   3.238   6.269   8.302
10191WAT     H230816   3.269   6.421   8.353
10192WAT      O30817   9.690   4.838   1.070
10192WAT     H130818   9.641   4.903   1.128
10192WAT     H230819   9.736   4.770   1.127
10193WAT      O30820   9.613   7.586   8.574
10193WAT     H130821   9.645   7.680   8.565
10193WAT     H230822   9.691   7.524   8.569
10194WAT      O30823   9.004   5.073   5.735
10194WAT     H130824   9.054   5.119   5.808
10194WAT     H230825   8.966   4.987   5.769
10195WAT      O30826   8.137   5.307   4.154
10195WAT     H130827   8.203   5.234   4.140
10195WAT     H230828   8.085   5.290   4.237
10196WAT      O30829   6.514   1.734   6.112
10196WAT     H130830   6.584   1.664   6.123
10196WAT     H230831   6.546   1.819   6.154
10197WAT      O30832   5.558   4.128   5.991
10197WAT     H130833   5.635   4.192   5.997
10197WAT     H230834   5.593   4.034   5.987
10198WAT      O30835   1.417   3.120   4.401
10198WAT     H130836   1.488   3.095   4.335
10198WAT     H230837   1.414   3.220   4.410
10199WAT      O30838   6.434   5.054   2.726
10199WAT     H130839   6.486   5.042   2.811
10199WAT     H230840   6.398   4.966   2.696
10200WAT      O30841   8.840   8.756   0.457
10200WAT     H130842   8.928   8.713   0.439
10200WAT     H230843   8.790   8.767   0.371
10201WAT      O30844   3.503   3.550   1.603
10201WAT     H130845   3.508   3.498   1.688
10201WAT     H230846   3.583   3.610   1.596
10202WAT      O30847   7.607   2.291   5.657
10202WAT     H130848   7.652   2.204   5.677
10202WAT     H230849   7.508   2.276   5.649
10203WAT      O30850   3.422   9.429   4.629
10203WAT     H130851   3.410   9.368   4.550
10203WAT     H230852   3.418   9.376   4.713
10204WAT      O30853   4.320   8.070   7.079
10204WAT     H130854   4.286   8.148   7.026
10204WAT     H230855   4.291   7.985   7.035
10205WAT      O30856   4.631   0.436   2.345
10205WAT     H130857   4.604   0.532   2.331
10205WAT     H230858   4.694   0.409   2.272
10206WAT      O30859   5.107   7.314   4.022
10206WAT     H130860   5.088   7.298   3.925
10206WAT     H230861   5.032   7.278   4.078
10207WAT      O30862   2.109   4.965   2.327
10207WAT     H130863   2.201   4.986   2.359
10207WAT     H230864   2.047   4.963   2.406
10208WAT      O30865   0.675   5.840   6.466
10208WAT     H130866   0.696   5.928   6.424
10208WAT     H230867   0.629   5.782   6.399
10209WAT      O30868   4.221   1.617   5.875
10209WAT     H130869   4.241   1.706   5.916
10209WAT     H230870   4.195   1.552   5.946
10210WAT      O30871   8.000   9.111   7.692
10210WAT     H130872   8.042   9.134   7.604
10210WAT     H230873   7.911   9.068   7.676
10211WAT      O30874   8.993   8.832   7.790
10211WAT     H130875   9.079   8.796   7.757
10211WAT     H230876   8.922   8.820   7.719
10212WAT      O30877   7.824   0.069   6.267
10212WAT     H130878   7.790  -0.017   6.229
10212WAT     H230879   7.747   0.129   6.290
10213WAT      O30880   5.768   2.829   0.878
10213WAT     H130881   5.767   2.759   0.807
10213WAT     H230882   5.741   2.917   0.839
10214WAT      O30883   3.663   2.041   9.461
10214WAT     H130884   3.731   2.073   9.526
10214WAT     H230885   3.612   2.118   9.424
10215WAT      O30886   3.926   3.475   4.635
10215WAT     H130887   3.954   3.571   4.635
10215WAT     H230888   3.839   3.466   4.587
10216WAT      O30889   5.913   5.671   4.174
10216WAT     H130890   5.993   5.644   4.121
10216WAT     H230891   5.871   5.590   4.215
10217WAT      O30892   0.598   8.596   9.458
10217WAT     H130893   0.676   8.570   9.401
10217WAT     H230894   0.525   8.529   9.446
10218WAT      O30895   1.829   4.451   0.489
10218WAT     H130896   1.847   4.353   0.496
10218WAT     H230897   1.839   4.495   0.578
10219WAT      O30898   8.618   7.237   6.022
10219WAT     H130899   8.677   7.226   5.942
10219WAT     H230900   8.523   7.251   5.992
10220WAT      O30901   3.928   7.897   3.628
10220WAT     H130902   3.902   7.988   3.597
10220WAT     H230903   3.972   7.903   3.717
10221WAT      O30904   2.618   8.628   4.939
10221WAT     H130905   2.624   8.651   5.036
10221WAT     H230906   2.524   8.636   4.908
10222WAT      O30907   9.108   4.576   1.235
10222WAT     H130908   9.142   4.511   1.304
10222WAT     H230909   9.182   4.639   1.210
10223WAT      O30910   5.902   3.127   7.243
10223WAT     H130911   5.981   3.102   7.186
10223WAT     H230912   5.934   3.184   7.319
10224WAT      O30913   4.917   6.935   8.444
10224WAT     H130914   4.939   6.943   8.541
10224WAT     H230915   4.970   6.860   8.404
10225WAT      O30916   1.837   2.405   8.522
10225WAT     H130917   1.928   2.441   8.546
10225WAT     H230918   1.791   2.374   8.605
10226WAT      O30919   4.007   7.396   0.851
10226WAT     H130920   4.041   7.315   0.804
10226WAT     H230921   4.083   7.441   0.898
10227WAT      O30922   3.549   3.678   2.672
10227WAT     H130923   3.511   3.590   2.646
10227WAT     H230924   3.624   3.702   2.609
10228WAT      O30925   9.428   1.583   3.451
10228WAT     H130926   9.499   1.597   3.382
10228WAT     H230927   9.345   1.631   3.424
10229WAT      O30928   2.330   2.923   7.742
10229WAT     H130929   2.382   2.843   7.769
10229WAT     H230930   2.365   2.958   7.655
10230WAT      O30931   3.591   2.846   0.538
10230WAT     H130932   3.521   2.800   0.484
10230WAT     H230933   3.563   2.848   0.634
10231WAT      O30934   2.245   3.045   0.095
10231WAT     H130935   2.221   3.098   0.015
10231WAT     H230936   2.324   2.986   0.074
10232WAT      O30937   9.234   7.315   5.541
10232WAT     H130938   9.308   7.257   5.576
10232WAT     H230939   9.175   7.261   5.481
10233WAT      O30940   4.932   1.539   4.268
10233WAT     H130941   4.993   1.588   4.205
10233WAT     H230942   4.838   1.544   4.233
10234WAT      O30943   5.239   6.055   9.456
10234WAT     H130944   5.232   6.155   9.460
10234WAT     H230945   5.327   6.029   9.417
10235WAT      O30946   2.000   2.816   9.173
10235WAT     H130947   1.929   2.839   9.239
10235WAT     H230948   2.004   2.887   9.102
10236WAT      O30949   9.301   1.666   2.771
10236WAT     H130950   9.356   1.693   2.692
10236WAT     H230951   9.336   1.581   2.810
10237WAT      O30952   1.967   1.282   6.668
10237WAT     H130953   1.896   1.249   6.606
10237WAT     H230954   1.954   1.242   6.759
10238WAT      O30955   9.087   6.264   7.695
10238WAT     H130956   9.101   6.310   7.783
10238WAT     H230957   9.058   6.330   7.626
10239WAT      O30958   2.310   1.753   6.381
10239WAT     H130959   2.327   1.849   6.403
10239WAT     H230960   2.386   1.697   6.414
10240WAT      O30961   6.924   4.174   5.352
10240WAT     H130962   6.825   4.162   5.363
10240WAT     H230963   6.966   4.186   5.442
10241WAT      O30964   5.721   9.183   7.900
10241WAT     H130965   5.815   9.163   7.928
10241WAT     H230966   5.693   9.272   7.936
10242WAT      O30967   3.382   5.599   7.847
10242WAT     H130968   3.360   5.689   7.884
10242WAT     H230969   3.436   5.547   7.914
10243WAT      O30970   0.494   0.352   5.212
10243WAT     H130971   0.528   0.391   5.298
10243WAT     H230972   0.428   0.280   5.233
10244WAT      O30973   7.997   1.419   2.453
10244WAT     H130974   7.980   1.517   2.462
10244WAT     H230975   8.041   1.401   2.364
10245WAT      O30976   1.019   3.572   0.797
10245WAT     H130977   1.096   3.615   0.748
10245WAT     H230978   1.011   3.477   0.768
10246WAT      O30979   3.705   0.574   6.697
10246WAT     H130980   3.793   0.526   6.701
10246WAT     H230981   3.632   0.507   6.685
10247WAT      O30982   5.168   2.437   3.761
10247WAT     H130983   5.219   2.506   3.812
10247WAT     H230984   5.072   2.463   3.756
10248WAT      O30985   1.849   1.399   2.688
10248WAT     H130986   1.753   1.375   2.677
10248WAT     H230987   1.893   1.404   2.598
10249WAT      O30988   7.652   2.906   5.035
10249WAT     H130989   7.648   2.995   5.080
10249WAT     H230990   7.675   2.918   4.939
10250WAT      O30991   2.564   9.488   3.056
10250WAT     H130992   2.611   9.529   2.978
10250WAT     H230993   2.465   9.496   3.044
10251WAT      O30994   8.528   4.473   0.076
10251WAT     H130995   8.480   4.397   0.120
10251WAT     H230996   8.624   4.449   0.064
10252WAT      O30997   9.119   6.583   7.762
10252WAT     H130998   9.095   6.670   7.806
10252WAT     H230999   9.202   6.595   7.708
10253WAT      O31000   3.694   8.748   9.240
10253WAT     H131001   3.737   8.670   9.194
10253WAT     H231002   3.696   8.733   9.339
10254WAT      O31003   3.168   4.242   7.320
10254WAT     H131004   3.219   4.156   7.323
10254WAT     H231005   3.103   4.245   7.397
10255WAT      O31006   6.973   1.949   5.998
10255WAT     H131007   6.915   1.919   6.074
10255WAT     H231008   7.066   1.965   6.030
10256WAT      O31009   5.221   5.594   9.663
10256WAT     H131010   5.184   5.658   9.731
10256WAT     H231011   5.163   5.513   9.660
10257WAT      O31012   5.123   2.076   8.119
10257WAT     H131013   5.034   2.038   8.092
10257WAT     H231014   5.122   2.096   8.217
10258WAT      O31015   4.515   2.014   4.411
10258WAT     H131016   4.554   1.988   4.499
10258WAT     H231017   4.499   1.932   4.356
10259WAT      O31018   6.087   9.163   6.792
10259WAT     H131019   5.987   9.166   6.802
10259WAT     H231020   6.112   9.178   6.696
10260WAT      O31021   5.022   6.173   7.799
10260WAT     H131022   4.935   6.196   7.841
10260WAT     H231023   5.009   6.101   7.731
10261WAT      O31024   4.701   1.799   4.990
10261WAT     H131025   4.629   1.735   5.016
10261WAT     H231026   4.699   1.878   5.052
10262WAT      O31027   5.053   5.357   0.275
10262WAT     H131028   5.110   5.339   0.355
10262WAT     H231029   5.057   5.454   0.252
10263WAT      O31030   6.512   8.113   1.083
10263WAT     H131031   6.502   8.212   1.097
10263WAT     H231032   6.474   8.065   1.163
10264WAT      O31033   8.350   8.678   8.740
10264WAT     H131034   8.372   8.638   8.828
10264WAT     H231035   8.338   8.777   8.750
10265WAT      O31036   0.560   2.201   5.694
10265WAT     H131037   0.626   2.237   5.760
10265WAT     H231038   0.524   2.114   5.727
10266WAT      O31039   1.406   8.263   4.059
10266WAT     H131040   1.462   8.183   4.040
10266WAT     H231041   1.459   8.346   4.039
10267WAT      O31042   1.277   8.333   3.069
10267WAT     H131043   1.372   8.354   3.094
10267WAT     H231044   1.220   8.336   3.151
10268WAT      O31045   8.001   8.289   8.282
10268WAT     H131046   7.939   8.226   8.236
10268WAT     H231047   8.090   8.288   8.237
10269WAT      O31048   1.634   9.599   3.752
10269WAT     H131049   1.623   9.698   3.761
10269WAT     H231050   1.730   9.576   3.766
10270WAT      O31051   2.822   1.077   8.118
10270WAT     H131052   2.782   1.020   8.190
10270WAT     H231053   2.755   1.145   8.089
10271WAT      O31054   9.365   0.478   9.196
10271WAT     H131055   9.353   0.468   9.295
10271WAT     H231056   9.422   0.404   9.161
10272WAT      O31057   2.911   1.460   1.336
10272WAT     H131058   2.912   1.401   1.255
10272WAT     H231059   2.924   1.555   1.308
10273WAT      O31060   0.320   7.350   0.535
10273WAT     H131061   0.228   7.316   0.555
10273WAT     H231062   0.354   7.403   0.612
10274WAT      O31063   6.863   8.944   4.957
10274WAT     H131064   6.816   8.893   4.885
10274WAT     H231065   6.839   9.041   4.951
10275WAT      O31066   9.434   1.702   5.283
10275WAT     H131067   9.517   1.747   5.250
10275WAT     H231068   9.446   1.603   5.282
10276WAT      O31069   7.527   0.316   5.479
10276WAT     H131070   7.567   0.375   5.408
10276WAT     H231071   7.559   0.346   5.569
10277WAT      O31072   7.479   2.983   7.739
10277WAT     H131073   7.394   3.020   7.775
10277WAT     H231074   7.542   3.058   7.719
10278WAT      O31075   0.378   9.792   2.415
10278WAT     H131076   0.409   9.886   2.424
10278WAT     H231077   0.311   9.785   2.341
10279WAT      O31078   4.380   3.707   3.969
10279WAT     H131079   4.405   3.610   3.977
10279WAT     H231080   4.456   3.757   3.928
10280WAT      O31081   9.135   0.950   3.256
10280WAT     H131082   9.084   1.004   3.189
10280WAT     H231083   9.142   1.001   3.341
10281WAT      O31084   3.719   0.985   5.734
10281WAT     H131085   3.758   0.941   5.815
10281WAT     H231086   3.735   1.084   5.739
10282WAT      O31087   3.246   9.461   6.429
10282WAT     H131088   3.270   9.376   6.475
10282WAT     H231089   3.173   9.507   6.479
10283WAT      O31090   2.301   4.409   6.256
10283WAT     H131091   2.227   4.473   6.275
10283WAT     H231092   2.380   4.459   6.221
10284WAT      O31093   3.456   7.312   1.983
10284WAT     H131094   3.398   7.388   2.008
10284WAT     H231095   3.402   7.241   1.937
10285WAT      O31096   4.023   6.021   0.396
10285WAT     H131097   4.038   5.923   0.405
10285WAT     H231098   3.986   6.056   0.482
10286WAT      O31099   8.375   8.130   4.411
10286WAT     H131100   8.288   8.147   4.364
10286WAT     H231101   8.425   8.058   4.363
10287WAT      O31102   0.229   1.623   7.091
10287WAT     H131103   0.279   1.674   7.161
10287WAT     H231104   0.261   1.652   7.000
10288WAT      O31105   7.369   4.697   9.487
10288WAT     H131106   7.382   4.620   9.550
10288WAT     H231107   7.290   4.751   9.517
10289WAT      O31108   3.298   5.986   5.094
10289WAT     H131109   3.291   5.935   5.180
10289WAT     H231110   3.293   5.922   5.017
10290WAT      O31111   1.654   7.848   8.566
10290WAT     H131112   1.616   7.807   8.649
10290WAT     H231113   1.641   7.786   8.489
10291WAT      O31114   0.257   6.509   3.484
10291WAT     H131115   0.186   6.480   3.421
10291WAT     H231116   0.290   6.600   3.458
10292WAT      O31117   8.411   8.590   5.288
10292WAT     H131118   8.422   8.686   5.314
10292WAT     H231119   8.328   8.553   5.331
10293WAT      O31120   5.173   8.842   3.597
10293WAT     H131121   5.204   8.936   3.580
10293WAT     H231122   5.122   8.809   3.518
10294WAT      O31123   6.334   7.819   2.974
10294WAT     H131124   6.250   7.776   2.940
10294WAT     H231125   6.324   7.919   2.969
10295WAT      O31126   2.143   9.360   6.619
10295WAT     H131127   2.097   9.449   6.625
10295WAT     H231128   2.163   9.327   6.711
10296WAT      O31129   9.158   2.341   9.414
10296WAT     H131130   9.240   2.368   9.465
10296WAT     H231131   9.081   2.333   9.478
10297WAT      O31132   6.992   7.863   7.500
10297WAT     H131133   6.949   7.937   7.448
10297WAT     H231134   6.932   7.836   7.575
10298WAT      O31135   1.846   5.500   0.473
10298WAT     H131136   1.910   5.461   0.407
10298WAT     H231137   1.799   5.578   0.431
10299WAT      O31138   5.197   5.554   7.128
10299WAT     H131139   5.136   5.475   7.113
10299WAT     H231140   5.224   5.592   7.040
10300WAT      O31141   1.125   6.278   0.310
10300WAT     H131142   1.175   6.192   0.295
10300WAT     H231143   1.179   6.354   0.274
10301WAT      O31144   3.337   2.969   3.154
10301WAT     H131145   3.317   2.896   3.219
10301WAT     H231146   3.266   3.039   3.159
10302WAT      O31147   5.604   4.290   6.985
10302WAT     H131148   5.629   4.294   6.888
10302WAT     H231149   5.515   4.333   6.998
10303WAT      O31150   3.290   7.902   3.393
10303WAT     H131151   3.238   7.857   3.466
10303WAT     H231152   3.326   7.833   3.331
10304WAT      O31153   2.538   8.115   0.424
10304WAT     H131154   2.572   8.138   0.333
10304WAT     H231155   2.565   8.021   0.447
10305WAT      O31156   5.183   8.892   1.841
10305WAT     H131157   5.216   8.945   1.763
10305WAT     H231158   5.100   8.935   1.878
10306WAT      O31159   8.459   6.081   3.665
10306WAT     H131160   8.483   6.145   3.738
10306WAT     H231161   8.370   6.106   3.627
10307WAT      O31162   5.708   9.727   1.873
10307WAT     H131163   5.713   9.774   1.961
10307WAT     H231164   5.783   9.661   1.867
10308WAT      O31165   2.181   8.244   8.341
10308WAT     H131166   2.096   8.286   8.309
10308WAT     H231167   2.240   8.314   8.381
10309WAT      O31168   6.587   8.669   4.098
10309WAT     H131169   6.647   8.643   4.022
10309WAT     H231170   6.496   8.692   4.062
10310WAT      O31171   9.888   7.916   5.521
10310WAT     H131172   9.812   7.914   5.457
10310WAT     H231173   9.854   7.911   5.615
10311WAT      O31174   2.339   0.785   5.400
10311WAT     H131175   2.340   0.711   5.333
10311WAT     H231176   2.328   0.747   5.492
10312WAT      O31177   1.139   9.719   9.027
10312WAT     H131178   1.092   9.779   9.092
10312WAT     H231179   1.237   9.716   9.050
10313WAT      O31180   7.701   7.588   8.920
10313WAT     H131181   7.727   7.648   8.996
10313WAT     H231182   7.606   7.559   8.931
10314WAT      O31183   3.367   8.076   0.539
10314WAT     H131184   3.275   8.061   0.504
10314WAT     H231185   3.362   8.127   0.625
10315WAT      O31186   6.001   2.095   8.849
10315WAT     H131187   6.018   1.996   8.844
10315WAT     H231188   6.061   2.136   8.917
10316WAT      O31189   4.715   5.023   1.274
10316WAT     H131190   4.716   4.936   1.324
10316WAT     H231191   4.621   5.057   1.268
10317WAT      O31192   2.528   2.581   8.994
10317WAT     H131193   2.626   2.586   8.973
10317WAT     H231194   2.502   2.661   9.049
10318WAT      O31195   7.191   2.098   7.036
10318WAT     H131196   7.123   2.125   6.968
10318WAT     H231197   7.247   2.177   7.061
10319WAT      O31198   0.862   7.597   9.124
10319WAT     H131199   0.777   7.550   9.102
10319WAT     H231200   0.850   7.651   9.207
10320WAT      O31201   3.432   5.338   3.575
10320WAT     H131202   3.450   5.410   3.508
10320WAT     H231203   3.359   5.367   3.637
10321WAT      O31204   6.740   2.864   5.565
10321WAT     H131205   6.741   2.918   5.481
10321WAT     H231206   6.739   2.925   5.644
10322WAT      O31207   3.071   8.270   6.715
10322WAT     H131208   3.135   8.265   6.792
10322WAT     H231209   3.108   8.216   6.638
10323WAT      O31210   1.857   2.528   1.595
10323WAT     H131211   1.780   2.466   1.583
10323WAT     H231212   1.846   2.607   1.535
10324WAT      O31213   5.719   8.226   5.301
10324WAT     H131214   5.763   8.293   5.242
10324WAT     H231215   5.768   8.218   5.387
10325WAT      O31216   4.082   1.630   9.050
10325WAT     H131217   4.169   1.642   9.002
10325WAT     H231218   4.079   1.539   9.092
10326WAT      O31219   3.657   9.414   6.951
10326WAT     H131220   3.702   9.349   6.890
10326WAT     H231221   3.630   9.369   7.036
10327WAT      O31222   8.417   3.663   8.342
10327WAT     H131223   8.487   3.735   8.344
10327WAT     H231224   8.415   3.621   8.252
10328WAT      O31225   4.963   7.688   8.995
10328WAT     H131226   4.977   7.592   9.021
10328WAT     H231227   4.934   7.693   8.900
10329WAT      O31228   2.268   8.783   3.774
10329WAT     H131229   2.179   8.745   3.749
10329WAT     H231230   2.309   8.727   3.847
10330WAT      O31231   4.861   4.641   7.853
10330WAT     H131232   4.848   4.730   7.896
10330WAT     H231233   4.850   4.649   7.754
10331WAT      O31234   7.889   1.185   0.186
10331WAT     H131235   7.866   1.155   0.279
10331WAT     H231236   7.951   1.120   0.144
10332WAT      O31237   0.794   7.455   2.841
10332WAT     H131238   0.877   7.503   2.870
10332WAT     H231239   0.804   7.428   2.745
10333WAT      O31240   0.051   2.104   9.073
10333WAT     H131241  -0.026   2.046   9.046
10333WAT     H231242   0.024   2.200   9.065
10334WAT      O31243   8.373   9.348   7.387
10334WAT     H131244   8.337   9.257   7.408
10334WAT     H231245   8.393   9.355   7.289
10335WAT      O31246   8.292   1.061   6.556
10335WAT     H131247   8.358   0.988   6.537
10335WAT     H231248   8.251   1.092   6.470
10336WAT      O31249   9.589   4.078   1.958
10336WAT     H131250   9.505   4.058   1.907
10336WAT     H231251   9.566   4.092   2.055
10337WAT      O31252   8.841   0.535   7.232
10337WAT     H131253   8.782   0.496   7.303
10337WAT     H231254   8.937   0.529   7.261
10338WAT      O31255   7.693   5.242   0.300
10338WAT     H131256   7.743   5.295   0.231
10338WAT     H231257   7.629   5.302   0.348
10339WAT      O31258   0.083   0.891   5.511
10339WAT     H131259  -0.004   0.895   5.562
10339WAT     H231260   0.159   0.884   5.576
10340WAT      O31261   3.780   7.402   9.315
10340WAT     H131262   3.813   7.309   9.330
10340WAT     H231263   3.828   7.464   9.377
10341WAT      O31264   1.872   4.874   1.647
10341WAT     H131265   1.809   4.909   1.577
10341WAT     H231266   1.820   4.826   1.718
10342WAT      O31267   2.425   3.363   9.374
10342WAT     H131268   2.346   3.394   9.427
10342WAT     H231269   2.506   3.363   9.432
10343WAT      O31270   8.904   5.307   6.733
10343WAT     H131271   8.851   5.302   6.818
10343WAT     H231272   8.847   5.279   6.656
10344WAT      O31273   3.255   9.160   1.846
10344WAT     H131274   3.286   9.183   1.938
10344WAT     H231275   3.276   9.065   1.827
10345WAT      O31276   6.582   2.794   6.387
10345WAT     H131277   6.617   2.800   6.480
10345WAT     H231278   6.652   2.755   6.327
10346WAT      O31279   4.854   2.379   9.182
10346WAT     H131280   4.926   2.310   9.184
10346WAT     H231281   4.885   2.461   9.231
10347WAT      O31282   2.097   5.214   9.132
10347WAT     H131283   2.196   5.220   9.119
10347WAT     H231284   2.077   5.179   9.223
10348WAT      O31285   2.551   5.110   5.047
10348WAT     H131286   2.492   5.164   5.107
10348WAT     H231287   2.572   5.163   4.965
10349WAT      O31288   4.154   1.601   3.717
10349WAT     H131289   4.119   1.695   3.712
10349WAT     H231290   4.236   1.599   3.773
10350WAT      O31291   1.747   7.854   3.702
10350WAT     H131292   1.737   7.936   3.647
10350WAT     H231293   1.796   7.784   3.651
10351WAT      O31294   3.162   7.924   2.434
10351WAT     H131295   3.083   7.910   2.494
10351WAT     H231296   3.199   7.836   2.406
10352WAT      O31297   9.249   4.995   3.016
10352WAT     H131298   9.191   5.037   3.085
10352WAT     H231299   9.343   5.027   3.027
10353WAT      O31300   5.597   4.014   3.603
10353WAT     H131301   5.555   3.932   3.565
10353WAT     H231302   5.642   4.066   3.530
10354WAT      O31303   6.711   1.981   4.098
10354WAT     H131304   6.693   1.900   4.154
10354WAT     H231305   6.659   2.058   4.134
10355WAT      O31306   6.569   9.186   3.084
10355WAT     H131307   6.606   9.230   3.002
10355WAT     H231308   6.514   9.252   3.135
10356WAT      O31309   6.310   6.639   1.504
10356WAT     H131310   6.243   6.624   1.430
10356WAT     H231311   6.324   6.553   1.553
10357WAT      O31312   5.794   7.984   7.027
10357WAT     H131313   5.720   8.050   7.025
10357WAT     H231314   5.776   7.915   7.097
10358WAT      O31315   8.033   3.664   3.683
10358WAT     H131316   8.114   3.626   3.728
10358WAT     H231317   7.988   3.729   3.745
10359WAT      O31318   8.733   2.920   9.136
10359WAT     H131319   8.800   2.887   9.203
10359WAT     H231320   8.667   2.980   9.181
10360WAT      O31321   2.079   3.170   2.625
10360WAT     H131322   2.110   3.190   2.532
10360WAT     H231323   2.126   3.230   2.689
10361WAT      O31324   0.128   4.009   5.537
10361WAT     H131325   0.061   4.028   5.465
10361WAT     H231326   0.188   3.934   5.508
10362WAT      O31327   3.701   2.138   6.496
10362WAT     H131328   3.637   2.188   6.554
10362WAT     H231329   3.770   2.200   6.459
10363WAT      O31330   1.845   6.903   6.755
10363WAT     H131331   1.758   6.945   6.783
10363WAT     H231332   1.843   6.885   6.657
10364WAT      O31333   6.252   7.854   7.840
10364WAT     H131334   6.302   7.865   7.926
10364WAT     H231335   6.317   7.863   7.764
10365WAT      O31336   1.194   3.164   9.010
10365WAT     H131337   1.100   3.141   9.038
10365WAT     H231338   1.258   3.104   9.058
10366WAT      O31339   9.733   2.840   4.365
10366WAT     H131340   9.639   2.808   4.371
10366WAT     H231341   9.792   2.768   4.329
10367WAT      O31342   6.912   5.423   5.412
10367WAT     H131343   6.854   5.501   5.435
10367WAT     H231344   7.007   5.443   5.437
10368WAT      O31345   3.568   4.528   5.718
10368WAT     H131346   3.499   4.540   5.790
10368WAT     H231347   3.640   4.596   5.729
10369WAT      O31348   1.152   5.261   1.526
10369WAT     H131349   1.133   5.348   1.481
10369WAT     H231350   1.204   5.277   1.610
10370WAT      O31351   0.693   9.062   6.291
10370WAT     H131352   0.710   8.986   6.353
10370WAT     H231353   0.601   9.099   6.307
10371WAT      O31354   8.329   5.201   7.449
10371WAT     H131355   8.266   5.272   7.481
10371WAT     H231356   8.327   5.124   7.512
10372WAT      O31357   8.432   2.052   1.353
10372WAT     H131358   8.337   2.082   1.365
10372WAT     H231359   8.435   1.974   1.292
10373WAT      O31360   3.112   6.928   9.819
10373WAT     H131361   3.144   6.989   9.891
10373WAT     H231362   3.051   6.978   9.757
10374WAT      O31363   7.983   5.236   1.536
10374WAT     H131364   7.953   5.315   1.590
10374WAT     H231365   8.064   5.195   1.578
10375WAT      O31366   6.646   7.836   2.455
10375WAT     H131367   6.580   7.905   2.429
10375WAT     H231368   6.616   7.746   2.422
10376WAT      O31369   6.921   2.450   8.978
10376WAT     H131370   7.002   2.451   8.918
10376WAT     H231371   6.945   2.407   9.064
10377WAT      O31372   4.039   8.747   3.980
10377WAT     H131373   4.081   8.808   3.913
10377WAT     H231374   3.939   8.758   3.977
10378WAT      O31375   5.805   5.858   4.485
10378WAT     H131376   5.843   5.912   4.560
10378WAT     H231377   5.879   5.830   4.423
10379WAT      O31378   9.081   2.650   2.065
10379WAT     H131379   9.138   2.699   2.000
10379WAT     H231380   8.986   2.678   2.053
10380WAT      O31381   0.598   4.737   3.557
10380WAT     H131382   0.619   4.834   3.564
10380WAT     H231383   0.669   4.690   3.504
10381WAT      O31384   8.468   0.210   4.269
10381WAT     H131385   8.500   0.282   4.331
10381WAT     H231386   8.534   0.135   4.267
10382WAT      O31387   1.890   1.658   5.104
10382WAT     H131388   1.909   1.728   5.173
10382WAT     H231389   1.905   1.696   5.013
10383WAT      O31390   2.252   2.755   2.684
10383WAT     H131391   2.160   2.792   2.689
10383WAT     H231392   2.286   2.763   2.590
10384WAT      O31393   6.532   7.048   6.359
10384WAT     H131394   6.566   7.065   6.451
10384WAT     H231395   6.520   6.950   6.345
10385WAT      O31396   3.238   8.076   7.160
10385WAT     H131397   3.337   8.088   7.152
10385WAT     H231398   3.218   7.997   7.218
10386WAT      O31399   3.737   2.488   3.012
10386WAT     H131400   3.730   2.517   3.107
10386WAT     H231401   3.674   2.542   2.956
10387WAT      O31402   1.440   8.589   9.866
10387WAT     H131403   1.478   8.679   9.843
10387WAT     H231404   1.399   8.592   9.957
10388WAT      O31405   2.124   7.444   2.673
10388WAT     H131406   2.085   7.537   2.677
10388WAT     H231407   2.060   7.383   2.626
10389WAT      O31408   9.831   5.178   7.612
10389WAT     H131409   9.893   5.231   7.554
10389WAT     H231410   9.851   5.080   7.603
10390WAT      O31411   1.270   0.639   5.187
10390WAT     H131412   1.182   0.621   5.143
10390WAT     H231413   1.289   0.737   5.186
10391WAT      O31414   5.061   4.584   8.558
10391WAT     H131415   5.143   4.634   8.588
10391WAT     H231416   5.059   4.579   8.458
10392WAT      O31417   8.892   5.216   3.266
10392WAT     H131418   8.929   5.299   3.308
10392WAT     H231419   8.853   5.238   3.177
10393WAT      O31420   6.675   7.810   3.208
10393WAT     H131421   6.699   7.756   3.289
10393WAT     H231422   6.693   7.755   3.126
10394WAT      O31423   0.422   3.486   8.402
10394WAT     H131424   0.423   3.543   8.483
10394WAT     H231425   0.434   3.543   8.320
10395WAT      O31426   6.643   7.327   8.655
10395WAT     H131427   6.600   7.274   8.727
10395WAT     H231428   6.609   7.297   8.566
10396WAT      O31429   0.656   9.373   6.870
10396WAT     H131430   0.684   9.278   6.860
10396WAT     H231431   0.578   9.391   6.811
10397WAT      O31432   2.749   0.398   3.083
10397WAT     H131433   2.669   0.391   3.022
10397WAT     H231434   2.823   0.342   3.047
10398WAT      O31435   8.779   5.758   3.706
10398WAT     H131436   8.737   5.780   3.795
10398WAT     H231437   8.777   5.839   3.648
10399WAT      O31438   4.415   7.679   0.075
10399WAT     H131439   4.397   7.725   0.162
10399WAT     H231440   4.330   7.640   0.040
10400WAT      O31441   7.977   9.220   4.588
10400WAT     H131442   7.961   9.314   4.559
10400WAT     H231443   8.072   9.211   4.619
10401WAT      O31444   8.833   9.485   4.372
10401WAT     H131445   8.738   9.460   4.357
10401WAT     H231446   8.865   9.446   4.458
10402WAT      O31447   0.266   1.350   4.532
10402WAT     H131448   0.352   1.397   4.551
10402WAT     H231449   0.282   1.276   4.467
10403WAT      O31450   1.990   5.540   7.485
10403WAT     H131451   2.002   5.619   7.546
10403WAT     H231452   2.044   5.553   7.402
10404WAT      O31453   0.008   7.242   4.252
10404WAT     H131454   0.058   7.158   4.273
10404WAT     H231455  -0.033   7.235   4.161
10405WAT      O31456   8.376   1.078   9.039
10405WAT     H131457   8.276   1.083   9.037
10405WAT     H231458   8.407   1.064   9.133
10406WAT      O31459   5.460   0.288   0.915
10406WAT     H131460   5.475   0.190   0.930
10406WAT     H231461   5.406   0.324   0.991
10407WAT      O31462   7.758   5.733   2.458
10407WAT     H131463   7.813   5.689   2.388
10407WAT     H231464   7.662   5.708   2.446
10408WAT      O31465   0.081   3.780   8.442
10408WAT     H131466   0.096   3.879   8.442
10408WAT     H231467   0.067   3.748   8.535
10409WAT      O31468   3.064   7.657   4.148
10409WAT     H131469   3.101   7.742   4.186
10409WAT     H231470   2.984   7.677   4.091
10410WAT      O31471   2.731   1.929   2.460
10410WAT     H131472   2.756   1.917   2.364
10410WAT     H231473   2.812   1.920   2.518
10411WAT      O31474   2.515   2.561   3.021
10411WAT     H131475   2.595   2.505   2.999
10411WAT     H231476   2.432   2.512   2.993
10412WAT      O31477   3.974   4.695   4.896
10412WAT     H131478   4.051   4.636   4.871
10412WAT     H231479   3.922   4.719   4.815
10413WAT      O31480   7.754   5.186   4.539
10413WAT     H131481   7.657   5.167   4.556
10413WAT     H231482   7.805   5.181   4.624
10414WAT      O31483   9.707   6.433   7.407
10414WAT     H131484   9.742   6.525   7.388
10414WAT     H231485   9.769   6.385   7.469
10415WAT      O31486   4.776   2.465   6.910
10415WAT     H131487   4.779   2.481   7.009
10415WAT     H231488   4.810   2.373   6.890
10416WAT      O31489   4.366   7.059   7.627
10416WAT     H131490   4.436   6.988   7.632
10416WAT     H231491   4.406   7.148   7.649
10417WAT      O31492   1.657   0.559   8.328
10417WAT     H131493   1.689   0.508   8.408
10417WAT     H231494   1.723   0.629   8.304
10418WAT      O31495   7.911   0.754   5.726
10418WAT     H131496   7.996   0.774   5.678
10418WAT     H231497   7.931   0.708   5.813
10419WAT      O31498   5.686   2.536   4.761
10419WAT     H131499   5.649   2.613   4.709
10419WAT     H231500   5.782   2.553   4.782
10420WAT      O31501   9.831   9.018   0.760
10420WAT     H131502   9.929   9.008   0.741
10420WAT     H231503   9.819   9.055   0.852
10421WAT      O31504   8.206   5.830   4.725
10421WAT     H131505   8.156   5.763   4.780
10421WAT     H231506   8.155   5.916   4.721
10422WAT      O31507   8.863   2.296   6.201
10422WAT     H131508   8.943   2.301   6.142
10422WAT     H231509   8.891   2.277   6.295
10423WAT      O31510   7.265   4.851   7.314
10423WAT     H131511   7.290   4.947   7.296
10423WAT     H231512   7.325   4.814   7.384
10424WAT      O31513   7.681   3.144   9.124
10424WAT     H131514   7.651   3.230   9.166
10424WAT     H231515   7.637   3.134   9.034
10425WAT      O31516   6.006   5.146   1.849
10425WAT     H131517   6.086   5.093   1.819
10425WAT     H231518   6.020   5.176   1.944
10426WAT      O31519   3.143   6.890   1.843
10426WAT     H131520   3.192   6.853   1.764
10426WAT     H231521   3.175   6.845   1.926
10427WAT      O31522   8.896   3.049   2.727
10427WAT     H131523   8.837   3.126   2.704
10427WAT     H231524   8.932   3.009   2.643
10428WAT      O31525   7.622   2.703   6.964
10428WAT     H131526   7.602   2.670   6.872
10428WAT     H231527   7.539   2.699   7.020
10429WAT      O31528   8.449   1.625   7.880
10429WAT     H131529   8.505   1.656   7.957
10429WAT     H231530   8.353   1.628   7.906
10430WAT      O31531   3.945   2.467   7.476
10430WAT     H131532   4.019   2.423   7.527
10430WAT     H231533   3.891   2.523   7.539
10431WAT      O31534   9.438   0.383   1.663
10431WAT     H131535   9.438   0.283   1.653
10431WAT     H231536   9.479   0.408   1.751
10432WAT      O31537   1.026   1.165   4.087
10432WAT     H131538   1.029   1.106   4.168
10432WAT     H231539   0.952   1.135   4.027
10433WAT      O31540   7.445   6.761   9.313
10433WAT     H131541   7.489   6.688   9.367
10433WAT     H231542   7.497   6.775   9.229
10434WAT      O31543   1.225   5.553   4.924
10434WAT     H131544   1.165   5.596   4.991
10434WAT     H231545   1.198   5.458   4.911
10435WAT      O31546   5.804   9.024   5.761
10435WAT     H131547   5.751   8.952   5.715
10435WAT     H231548   5.894   9.031   5.718
10436WAT      O31549   8.313   3.964   6.666
10436WAT     H131550   8.393   3.981   6.609
10436WAT     H231551   8.342   3.943   6.760
10437WAT      O31552   5.565   5.795   7.021
10437WAT     H131553   5.596   5.738   7.097
10437WAT     H231554   5.567   5.891   7.048
10438WAT      O31555   3.947   3.725   3.367
10438WAT     H131556   4.044   3.720   3.342
10438WAT     H231557   3.896   3.770   3.294
10439WAT      O31558   9.456   5.435   2.069
10439WAT     H131559   9.394   5.475   2.001
10439WAT     H231560   9.468   5.338   2.050
10440WAT      O31561   4.194   3.063   2.547
10440WAT     H131562   4.241   3.021   2.469
10440WAT     H231563   4.128   2.998   2.585
10441WAT      O31564   6.702   0.224   5.425
10441WAT     H131565   6.685   0.150   5.489
10441WAT     H231566   6.626   0.289   5.428
10442WAT      O31567   3.812   2.455   0.106
10442WAT     H131568   3.871   2.523   0.062
10442WAT     H231569   3.786   2.488   0.197
10443WAT      O31570   0.861   3.313   4.908
10443WAT     H131571   0.798   3.351   4.975
10443WAT     H231572   0.809   3.277   4.830
10444WAT      O31573   3.788   5.351   2.851
10444WAT     H131574   3.852   5.396   2.913
10444WAT     H231575   3.750   5.418   2.788
10445WAT      O31576   0.049   3.506   3.407
10445WAT     H131577   0.031   3.469   3.316
10445WAT     H231578  -0.037   3.518   3.456
10446WAT      O31579   5.968   3.550   1.014
10446WAT     H131580   5.978   3.498   0.930
10446WAT     H231581   5.927   3.492   1.084
10447WAT      O31582   0.401   9.030   5.997
10447WAT     H131583   0.438   8.972   6.069
10447WAT     H231584   0.383   9.121   6.033
10448WAT      O31585   8.706   7.603   9.801
10448WAT     H131586   8.732   7.506   9.807
10448WAT     H231587   8.608   7.612   9.818
10449WAT      O31588   2.692   1.750   4.204
10449WAT     H131589   2.722   1.836   4.162
10449WAT     H231590   2.669   1.767   4.300
10450WAT      O31591   3.334   2.381   2.651
10450WAT     H131592   3.352   2.376   2.553
10450WAT     H231593   3.235   2.378   2.666
10451WAT      O31594   7.243   1.948   5.223
10451WAT     H131595   7.240   1.855   5.186
10451WAT     H231596   7.335   1.985   5.210
10452WAT      O31597   5.703   3.380   8.781
10452WAT     H131598   5.750   3.449   8.727
10452WAT     H231599   5.645   3.324   8.721
10453WAT      O31600   2.870   0.651   1.197
10453WAT     H131601   2.915   0.613   1.116
10453WAT     H231602   2.772   0.655   1.182
10454WAT      O31603   9.167   5.191   5.975
10454WAT     H131604   9.251   5.186   5.921
10454WAT     H231605   9.187   5.229   6.065
10455WAT      O31606   5.315   5.483   0.716
10455WAT     H131607   5.381   5.427   0.766
10455WAT     H231608   5.247   5.423   0.673
10456WAT      O31609   4.075   1.386   9.185
10456WAT     H131610   4.059   1.392   9.284
10456WAT     H231611   3.994   1.346   9.141
10457WAT      O31612   8.318   7.866   9.449
10457WAT     H131613   8.333   7.796   9.380
10457WAT     H231614   8.303   7.823   9.538
10458WAT      O31615   1.505   2.404   7.652
10458WAT     H131616   1.572   2.476   7.631
10458WAT     H231617   1.518   2.328   7.589
10459WAT      O31618   0.684   1.227   1.757
10459WAT     H131619   0.645   1.136   1.744
10459WAT     H231620   0.721   1.260   1.671
10460WAT      O31621   2.024   1.003   2.694
10460WAT     H131622   2.061   0.911   2.683
10460WAT     H231623   2.092   1.070   2.666
10461WAT      O31624   7.967   1.380   6.009
10461WAT     H131625   7.943   1.304   6.069
10461WAT     H231626   8.029   1.442   6.057
10462WAT      O31627   5.379   9.248   8.694
10462WAT     H131628   5.354   9.187   8.619
10462WAT     H231629   5.474   9.278   8.682
10463WAT      O31630   8.883   1.621   6.706
10463WAT     H131631   8.809   1.555   6.696
10463WAT     H231632   8.882   1.658   6.799
10464WAT      O31633   1.861   2.460   5.464
10464WAT     H131634   1.854   2.515   5.380
10464WAT     H231635   1.947   2.480   5.510
10465WAT      O31636   4.697   4.512   4.986
10465WAT     H131637   4.794   4.515   5.011
10465WAT     H231638   4.645   4.569   5.050
10466WAT      O31639   6.639   6.241   1.184
10466WAT     H131640   6.733   6.262   1.210
10466WAT     H231641   6.604   6.168   1.242
10467WAT      O31642   7.626   4.771   1.043
10467WAT     H131643   7.580   4.728   1.121
10467WAT     H231644   7.659   4.700   0.981
10468WAT      O31645   0.330   8.084   5.338
10468WAT     H131646   0.291   8.091   5.430
10468WAT     H231647   0.269   8.031   5.280
10469WAT      O31648   9.854   1.996   5.350
10469WAT     H131649   9.920   2.026   5.419
10469WAT     H231650   9.798   2.073   5.321
10470WAT      O31651   2.594   8.540   2.601
10470WAT     H131652   2.683   8.565   2.639
10470WAT     H231653   2.597   8.445   2.569
10471WAT      O31654   8.238   4.799   3.750
10471WAT     H131655   8.289   4.754   3.824
10471WAT     H231656   8.280   4.776   3.662
10472WAT      O31657   2.046   4.204   1.617
10472WAT     H131658   1.959   4.197   1.568
10472WAT     H231659   2.037   4.166   1.709
10473WAT      O31660   3.532   6.980   0.008
10473WAT     H131661   3.619   6.934   0.027
10473WAT     H231662   3.493   7.013   0.094
10474WAT      O31663   8.432   2.808   6.058
10474WAT     H131664   8.491   2.775   5.984
10474WAT     H231665   8.472   2.892   6.097
10475WAT      O31666   5.920   4.463   7.127
10475WAT     H131667   5.959   4.548   7.163
10475WAT     H231668   5.820   4.467   7.134
10476WAT      O31669   4.663   5.533   3.168
10476WAT     H131670   4.681   5.618   3.119
10476WAT     H231671   4.705   5.537   3.259
10477WAT      O31672   1.680   0.011   5.403
10477WAT     H131673   1.671   0.110   5.415
10477WAT     H231674   1.724  -0.029   5.484
10478WAT      O31675   4.277   2.013   9.257
10478WAT     H131676   4.345   2.085   9.273
10478WAT     H231677   4.186   2.055   9.249
10479WAT      O31678   7.582   1.405   1.508
10479WAT     H131679   7.640   1.336   1.465
10479WAT     H231680   7.572   1.385   1.605
10480WAT      O31681   0.959   0.332   8.306
10480WAT     H131682   0.880   0.276   8.328
10480WAT     H231683   1.005   0.359   8.390
10481WAT      O31684   3.967   9.336   4.481
10481WAT     H131685   3.898   9.334   4.410
10481WAT     H231686   3.943   9.406   4.549
10482WAT      O31687   4.862   6.714   9.408
10482WAT     H131688   4.847   6.807   9.376
10482WAT     H231689   4.923   6.666   9.344
10483WAT      O31690   3.990   8.522   8.501
10483WAT     H131691   3.923   8.451   8.479
10483WAT     H231692   3.979   8.599   8.439
10484WAT      O31693   3.209   3.692   4.742
10484WAT     H131694   3.237   3.780   4.781
10484WAT     H231695   3.206   3.623   4.814
10485WAT      O31696   0.712   0.465   1.384
10485WAT     H131697   0.726   0.560   1.411
10485WAT     H231698   0.789   0.435   1.328
10486WAT      O31699   4.757   1.567   2.740
10486WAT     H131700   4.658   1.554   2.733
10486WAT     H231701   4.776   1.651   2.791
10487WAT      O31702   1.542   0.615   7.419
10487WAT     H131703   1.537   0.589   7.323
10487WAT     H231704   1.467   0.574   7.470
10488WAT      O31705   5.240   1.601   7.235
10488WAT     H131706   5.245   1.700   7.219
10488WAT     H231707   5.317   1.557   7.188
10489WAT      O31708   8.642   9.288   2.244
10489WAT     H131709   8.643   9.210   2.307
10489WAT     H231710   8.705   9.358   2.276
10490WAT      O31711   2.859   1.505   8.390
10490WAT     H131712   2.845   1.407   8.398
10490WAT     H231713   2.932   1.523   8.323
10491WAT      O31714   7.933   4.869   1.366
10491WAT     H131715   8.027   4.899   1.381
10491WAT     H231716   7.870   4.941   1.393
10492WAT      O31717   4.130   2.618   2.430
10492WAT     H131718   4.038   2.606   2.391
10492WAT     H231719   4.155   2.536   2.481
10493WAT      O31720   5.002   6.901   9.182
10493WAT     H131721   5.030   6.840   9.108
10493WAT     H231722   4.905   6.923   9.174
10494WAT      O31723   3.006   6.692   0.873
10494WAT     H131724   2.922   6.642   0.852
10494WAT     H231725   3.014   6.703   0.972
10495WAT      O31726   8.115   0.696   4.213
10495WAT     H131727   8.214   0.709   4.207
10495WAT     H231728   8.096   0.618   4.272
10496WAT      O31729   0.468   4.068   9.427
10496WAT     H131730   0.455   4.166   9.439
10496WAT     H231731   0.379   4.023   9.416
10497WAT      O31732   9.760   7.538   5.202
10497WAT     H131733   9.833   7.486   5.247
10497WAT     H231734   9.712   7.480   5.137
10498WAT      O31735   9.311   6.301   8.897
10498WAT     H131736   9.401   6.302   8.940
10498WAT     H231737   9.267   6.390   8.908
10499WAT      O31738   6.390   0.167   3.424
10499WAT     H131739   6.431   0.124   3.504
10499WAT     H231740   6.291   0.175   3.438
10500WAT      O31741   9.822   7.722   6.926
10500WAT     H131742   9.867   7.787   6.987
10500WAT     H231743   9.853   7.630   6.947
10501WAT      O31744   0.067   0.498   6.673
10501WAT     H131745   0.069   0.520   6.770
10501WAT     H231746  -0.012   0.440   6.653
10502WAT      O31747   8.926   3.897   8.065
10502WAT     H131748   8.874   3.830   8.116
10502WAT     H231749   8.872   3.928   7.987
10503WAT      O31750   1.576   9.446   5.076
10503WAT     H131751   1.498   9.398   5.117
10503WAT     H231752   1.656   9.385   5.077
10504WAT      O31753   1.256   7.940   7.625
10504WAT     H131754   1.226   7.844   7.629
10504WAT     H231755   1.225   7.981   7.539
10505WAT      O31756   2.197   1.907   2.476
10505WAT     H131757   2.176   1.814   2.506
10505WAT     H231758   2.149   1.972   2.535
10506WAT      O31759   8.960   2.659   9.035
10506WAT     H131760   8.914   2.727   9.092
10506WAT     H231761   9.015   2.599   9.093
10507WAT      O31762   1.488   8.122   9.829
10507WAT     H131763   1.524   8.030   9.812
10507WAT     H231764   1.389   8.122   9.815
10508WAT      O31765   4.687   9.574   8.182
10508WAT     H131766   4.699   9.480   8.151
10508WAT     H231767   4.604   9.612   8.142
10509WAT      O31768   7.460   4.372   8.983
10509WAT     H131769   7.371   4.417   8.986
10509WAT     H231770   7.455   4.283   9.028
10510WAT      O31771   3.449   0.558   5.901
10510WAT     H131772   3.371   0.618   5.920
10510WAT     H231773   3.426   0.464   5.928
10511WAT      O31774   0.245   1.948   3.780
10511WAT     H131775   0.225   1.874   3.846
10511WAT     H231776   0.160   1.984   3.743
10512WAT      O31777   4.606   3.987   8.097
10512WAT     H131778   4.515   4.019   8.124
10512WAT     H231779   4.615   3.993   7.997
10513WAT      O31780   7.098   0.061   8.737
10513WAT     H131781   7.146   0.140   8.697
10513WAT     H231782   7.020   0.093   8.789
10514WAT      O31783   0.439   9.639   3.733
10514WAT     H131784   0.353   9.640   3.682
10514WAT     H231785   0.484   9.728   3.723
10515WAT      O31786   9.048   7.473   2.390
10515WAT     H131787   9.031   7.546   2.324
10515WAT     H231788   9.095   7.510   2.470
10516WAT      O31789   6.338   5.673   3.674
10516WAT     H131790   6.413   5.738   3.659
10516WAT     H231791   6.254   5.711   3.637
10517WAT      O31792   6.641   5.875   0.458
10517WAT     H131793   6.552   5.887   0.500
10517WAT     H231794   6.704   5.945   0.491
10518WAT      O31795   1.576   7.124   8.586
10518WAT     H131796   1.486   7.164   8.571
10518WAT     H231797   1.566   7.025   8.597
10519WAT      O31798   6.641   7.588   1.442
10519WAT     H131799   6.695   7.672   1.449
10519WAT     H231800   6.602   7.581   1.350
10520WAT      O31801   5.383   7.748   2.389
10520WAT     H131802   5.329   7.784   2.313
10520WAT     H231803   5.446   7.678   2.356
10521WAT      O31804   2.859   8.807   9.425
10521WAT     H131805   2.919   8.833   9.349
10521WAT     H231806   2.908   8.818   9.511
10522WAT      O31807   2.534   6.857   6.838
10522WAT     H131808   2.621   6.814   6.861
10522WAT     H231809   2.469   6.843   6.913
10523WAT      O31810   3.945   2.709   6.044
10523WAT     H131811   4.010   2.716   5.969
10523WAT     H231812   3.991   2.733   6.130
10524WAT      O31813   2.644   5.798   7.990
10524WAT     H131814   2.727   5.743   7.986
10524WAT     H231815   2.598   5.782   8.077
10525WAT      O31816   8.650   1.239   1.904
10525WAT     H131817   8.583   1.235   1.978
10525WAT     H231818   8.742   1.233   1.943
10526WAT      O31819   9.778   6.288   2.124
10526WAT     H131820   9.722   6.333   2.193
10526WAT     H231821   9.831   6.356   2.074
10527WAT      O31822   1.678   2.671   1.326
10527WAT     H131823   1.772   2.701   1.341
10527WAT     H231824   1.615   2.741   1.361
10528WAT      O31825   0.029   8.850   4.822
10528WAT     H131826   0.093   8.920   4.851
10528WAT     H231827   0.072   8.792   4.753
10529WAT      O31828   4.564   6.022   3.249
10529WAT     H131829   4.487   5.959   3.241
10529WAT     H231830   4.533   6.108   3.288
10530WAT      O31831   8.873   2.496   4.393
10530WAT     H131832   8.797   2.555   4.365
10530WAT     H231833   8.922   2.464   4.312
10531WAT      O31834   4.843   6.750   1.872
10531WAT     H131835   4.938   6.727   1.852
10531WAT     H231836   4.840   6.822   1.942
10532WAT      O31837   9.714   5.200   5.854
10532WAT     H131838   9.690   5.172   5.761
10532WAT     H231839   9.793   5.261   5.852
10533WAT      O31840   7.931   3.827   6.196
10533WAT     H131841   7.924   3.828   6.296
10533WAT     H231842   7.998   3.894   6.167
10534WAT      O31843   8.119   4.747   2.654
10534WAT     H131844   8.070   4.669   2.616
10534WAT     H231845   8.217   4.735   2.638
10535WAT      O31846   8.999   8.382   4.574
10535WAT     H131847   9.011   8.431   4.488
10535WAT     H231848   9.004   8.446   4.651
10536WAT      O31849   8.174   7.893   1.936
10536WAT     H131850   8.114   7.968   1.965
10536WAT     H231851   8.119   7.824   1.888
10537WAT      O31852   4.094   9.084   7.022
10537WAT     H131853   4.162   9.011   7.021
10537WAT     H231854   4.136   9.167   7.059
10538WAT      O31855   9.590   1.393   1.253
10538WAT     H131856   9.682   1.429   1.270
10538WAT     H231857   9.538   1.460   1.199
10539WAT      O31858   5.433   2.758   4.867
10539WAT     H131859   5.443   2.839   4.923
10539WAT     H231860   5.507   2.755   4.798
10540WAT      O31861   9.010   8.003   6.675
10540WAT     H131862   9.004   8.054   6.760
10540WAT     H231863   9.072   7.925   6.687
10541WAT      O31864   4.167   5.688   8.163
10541WAT     H131865   4.130   5.763   8.218
10541WAT     H231866   4.244   5.646   8.212
10542WAT      O31867   7.902   6.705   7.814
10542WAT     H131868   7.849   6.681   7.895
10542WAT     H231869   7.999   6.706   7.837
10543WAT      O31870   6.006   2.194   2.055
10543WAT     H131871   6.008   2.275   1.996
10543WAT     H231872   5.987   2.221   2.149
10544WAT      O31873   9.760   6.703   4.783
10544WAT     H131874   9.720   6.665   4.700
10544WAT     H231875   9.860   6.706   4.775
10545WAT      O31876   1.063   7.835   1.014
10545WAT     H131877   1.049   7.842   1.113
10545WAT     H231878   1.150   7.789   0.996
10546WAT      O31879   7.098   3.700   6.809
10546WAT     H131880   7.019   3.741   6.765
10546WAT     H231881   7.172   3.767   6.814
10547WAT      O31882   6.928   7.941   9.405
10547WAT     H131883   6.894   8.026   9.446
10547WAT     H231884   7.004   7.961   9.344
10548WAT      O31885   5.914   3.236   1.341
10548WAT     H131886   5.881   3.291   1.264
10548WAT     H231887   5.910   3.290   1.425
10549WAT      O31888   7.629   4.409   2.738
10549WAT     H131889   7.686   4.457   2.670
10549WAT     H231890   7.688   4.355   2.798
10550WAT      O31891   7.807   0.665   9.005
10550WAT     H131892   7.795   0.619   8.917
10550WAT     H231893   7.718   0.685   9.045
10551WAT      O31894   0.212   0.468   9.582
10551WAT     H131895   0.181   0.390   9.636
10551WAT     H231896   0.310   0.460   9.564
10552WAT      O31897   2.972   8.544   9.223
10552WAT     H131898   2.885   8.501   9.245
10552WAT     H231899   3.003   8.514   9.133
10553WAT      O31900   8.758   9.099   3.641
10553WAT     H131901   8.762   9.010   3.597
10553WAT     H231902   8.675   9.105   3.697
10554WAT      O31903   2.304   0.871   9.099
10554WAT     H131904   2.348   0.872   9.010
10554WAT     H231905   2.286   0.964   9.130
10555WAT      O31906   5.114   8.750   1.249
10555WAT     H131907   5.066   8.664   1.266
10555WAT     H231908   5.195   8.731   1.192
10556WAT      O31909   6.061   3.733   6.149
10556WAT     H131910   6.109   3.700   6.230
10556WAT     H231911   5.993   3.802   6.176
10557WAT      O31912   6.763   2.570   5.943
10557WAT     H131913   6.699   2.546   5.870
10557WAT     H231914   6.744   2.663   5.975
10558WAT      O31915   4.141   4.669   1.404
10558WAT     H131916   4.058   4.652   1.351
10558WAT     H231917   4.137   4.616   1.489
10559WAT      O31918   8.013   0.832   8.887
10559WAT     H131919   7.937   0.774   8.917
10559WAT     H231920   8.001   0.853   8.789
10560WAT      O31921   4.843   7.581   9.241
10560WAT     H131922   4.900   7.505   9.210
10560WAT     H231923   4.885   7.625   9.321
10561WAT      O31924   8.746   2.628   4.140
10561WAT     H131925   8.835   2.584   4.145
10561WAT     H231926   8.685   2.587   4.209
10562WAT      O31927   5.011   3.874   8.238
10562WAT     H131928   4.935   3.855   8.176
10562WAT     H231929   5.042   3.789   8.280
10563WAT      O31930   0.589   5.344   3.525
10563WAT     H131931   0.628   5.394   3.447
10563WAT     H231932   0.559   5.408   3.595
10564WAT      O31933   9.585   7.107   2.682
10564WAT     H131934   9.560   7.143   2.772
10564WAT     H231935   9.556   7.011   2.676
10565WAT      O31936   8.589   6.138   7.364
10565WAT     H131937   8.609   6.098   7.453
10565WAT     H231938   8.637   6.225   7.355
10566WAT      O31939   0.928   6.136   1.127
10566WAT     H131940   0.986   6.092   1.059
10566WAT     H231941   0.984   6.168   1.203
10567WAT      O31942   1.980   8.337   3.979
10567WAT     H131943   1.907   8.270   3.995
10567WAT     H231944   2.049   8.328   4.052
10568WAT      O31945   8.636   8.359   2.727
10568WAT     H131946   8.567   8.317   2.785
10568WAT     H231947   8.721   8.307   2.733
10569WAT      O31948   7.120   5.202   6.233
10569WAT     H131949   7.087   5.171   6.143
10569WAT     H231950   7.116   5.126   6.298
10570WAT      O31951   9.418   4.576   4.795
10570WAT     H131952   9.330   4.622   4.804
10570WAT     H231953   9.434   4.519   4.875
10571WAT      O31954   2.124   1.076   1.374
10571WAT     H131955   2.213   1.060   1.418
10571WAT     H231956   2.052   1.077   1.444
10572WAT      O31957   8.775   7.595   5.575
10572WAT     H131958   8.705   7.567   5.640
10572WAT     H231959   8.749   7.566   5.483
10573WAT      O31960   0.564   8.599   5.341
10573WAT     H131961   0.534   8.655   5.263
10573WAT     H231962   0.614   8.519   5.307
10574WAT      O31963   2.683   5.985   7.093
10574WAT     H131964   2.766   6.031   7.124
10574WAT     H231965   2.680   5.984   6.993
10575WAT      O31966   2.056   2.209   4.368
10575WAT     H131967   2.025   2.216   4.273
10575WAT     H231968   2.064   2.113   4.394
10576WAT      O31969   7.416   8.310   0.669
10576WAT     H131970   7.409   8.213   0.693
10576WAT     H231971   7.376   8.365   0.743
10577WAT      O31972   6.574   7.537   7.834
10577WAT     H131973   6.580   7.637   7.832
10577WAT     H231974   6.509   7.506   7.765
10578WAT      O31975   5.767   0.041   0.586
10578WAT     H131976   5.690   0.052   0.523
10578WAT     H231977   5.832  -0.024   0.547
10579WAT      O31978   3.959   8.937   6.277
10579WAT     H131979   3.951   9.034   6.257
10579WAT     H231980   3.891   8.886   6.223
10580WAT      O31981   6.150   6.484   3.004
10580WAT     H131982   6.245   6.453   3.010
10580WAT     H231983   6.119   6.477   2.909
10581WAT      O31984   6.734   6.499   2.151
10581WAT     H131985   6.738   6.403   2.179
10581WAT     H231986   6.702   6.504   2.056
10582WAT      O31987   5.569   2.813   0.351
10582WAT     H131988   5.489   2.759   0.325
10582WAT     H231989   5.631   2.820   0.273
10583WAT      O31990   9.707   4.689   4.196
10583WAT     H131991   9.736   4.624   4.125
10583WAT     H231992   9.696   4.641   4.283
10584WAT      O31993   2.507   8.856   7.249
10584WAT     H131994   2.425   8.909   7.227
10584WAT     H231995   2.584   8.917   7.266
10585WAT      O31996   3.264   6.649   0.773
10585WAT     H131997   3.316   6.597   0.842
10585WAT     H231998   3.170   6.661   0.805
10586WAT      O31999   0.989   6.374   0.867
10586WAT     H132000   0.902   6.423   0.873
10586WAT     H232001   0.982   6.304   0.796
10587WAT      O32002   9.732   4.700   7.633
10587WAT     H132003   9.650   4.681   7.686
10587WAT     H232004   9.793   4.621   7.635
10588WAT      O32005   2.941   5.132   7.430
10588WAT     H132006   2.953   5.045   7.478
10588WAT     H232007   2.848   5.166   7.445
10589WAT      O32008   2.610   2.327   4.975
10589WAT     H132009   2.586   2.354   4.882
10589WAT     H232010   2.549   2.374   5.039
10590WAT      O32011   7.072   5.804   3.093
10590WAT     H132012   7.106   5.812   3.187
10590WAT     H232013   6.979   5.840   3.089
10591WAT      O32014   3.442   6.949   5.729
10591WAT     H132015   3.522   6.914   5.678
10591WAT     H232016   3.447   6.917   5.823
10592WAT      O32017   4.239   3.007   8.886
10592WAT     H132018   4.185   2.928   8.914
10592WAT     H232019   4.192   3.056   8.812
10593WAT      O32020   4.431   3.408   8.851
10593WAT     H132021   4.488   3.383   8.773
10593WAT     H232022   4.456   3.499   8.884
10594WAT      O32023   7.445   1.079   3.577
10594WAT     H132024   7.491   0.996   3.610
10594WAT     H232025   7.363   1.054   3.527
10595WAT      O32026   2.853   1.876   7.350
10595WAT     H132027   2.938   1.889   7.400
10595WAT     H232028   2.782   1.845   7.413
10596WAT      O32029   8.967   3.291   6.790
10596WAT     H132030   9.004   3.246   6.709
10596WAT     H232031   8.947   3.387   6.768
10597WAT      O32032   2.172   4.774   9.391
10597WAT     H132033   2.247   4.720   9.430
10597WAT     H232034   2.126   4.823   9.465
10598WAT      O32035   4.647   5.323   7.540
10598WAT     H132036   4.622   5.326   7.444
10598WAT     H232037   4.690   5.409   7.567
10599WAT      O32038   5.521   5.872   2.842
10599WAT     H132039   5.425   5.845   2.830
10599WAT     H232040   5.577   5.791   2.856
10600WAT      O32041   5.495   9.462   1.022
10600WAT     H132042   5.418   9.400   1.038
10600WAT     H232043   5.550   9.470   1.105
10601WAT      O32044   3.713   2.022   6.184
10601WAT     H132045   3.709   2.112   6.140
10601WAT     H232046   3.733   1.952   6.115
10602WAT      O32047   8.847   7.269   4.516
10602WAT     H132048   8.788   7.267   4.435
10602WAT     H232049   8.791   7.264   4.599
10603WAT      O32050   8.916   0.427   3.204
10603WAT     H132051   8.927   0.427   3.304
10603WAT     H232052   9.000   0.393   3.162
10604WAT      O32053   1.010   6.683   9.480
10604WAT     H132054   0.971   6.758   9.426
10604WAT     H232055   0.939   6.615   9.499
10605WAT      O32056   4.702   1.883   4.094
10605WAT     H132057   4.782   1.941   4.103
10605WAT     H232058   4.725   1.801   4.041
10606WAT      O32059   1.998   6.542   1.332
10606WAT     H132060   1.990   6.460   1.388
10606WAT     H232061   2.093   6.571   1.327
10607WAT      O32062   7.225   2.633   0.095
10607WAT     H132063   7.208   2.608   0.190
10607WAT     H232064   7.198   2.728   0.080
10608WAT      O32065   8.801   2.618   5.240
10608WAT     H132066   8.859   2.641   5.162
10608WAT     H232067   8.713   2.663   5.232
10609WAT      O32068   5.469   8.058   9.294
10609WAT     H132069   5.382   8.105   9.280
10609WAT     H232070   5.492   8.004   9.213
10610WAT      O32071   0.340   0.355   2.837
10610WAT     H132072   0.278   0.282   2.808
10610WAT     H232073   0.351   0.351   2.937
10611WAT      O32074   0.889   7.290   5.662
10611WAT     H132075   0.920   7.270   5.754
10611WAT     H232076   0.925   7.222   5.598
10612WAT      O32077   0.694   7.028   5.446
10612WAT     H132078   0.678   6.942   5.495
10612WAT     H232079   0.606   7.073   5.428
10613WAT      O32080   8.789   4.692   2.200
10613WAT     H132081   8.771   4.593   2.204
10613WAT     H232082   8.759   4.734   2.285
10614WAT      O32083   2.601   0.235   7.542
10614WAT     H132084   2.566   0.217   7.634
10614WAT     H232085   2.656   0.319   7.544
10615WAT      O32086   8.857   7.715   0.592
10615WAT     H132087   8.838   7.623   0.625
10615WAT     H232088   8.813   7.728   0.503
10616WAT      O32089   6.036   3.027   7.571
10616WAT     H132090   6.008   3.115   7.533
10616WAT     H232091   6.122   3.038   7.621
10617WAT      O32092   2.506   8.783   6.665
10617WAT     H132093   2.499   8.705   6.603
10617WAT     H232094   2.455   8.764   6.749
10618WAT      O32095   8.361   2.649   4.371
10618WAT     H132096   8.291   2.672   4.304
10618WAT     H232097   8.336   2.686   4.460
10619WAT      O32098   0.202   9.085   8.934
10619WAT     H132099   0.286   9.081   8.989
10619WAT     H232100   0.204   9.011   8.866
10620WAT      O32101   3.199   5.211   1.000
10620WAT     H132102   3.298   5.207   0.984
10620WAT     H232103   3.161   5.119   1.000
10621WAT      O32104   1.565   5.535   8.463
10621WAT     H132105   1.499   5.544   8.389
10621WAT     H232106   1.517   5.513   8.548
10622WAT      O32107   7.298   9.448   6.605
10622WAT     H132108   7.224   9.492   6.655
10622WAT     H232109   7.378   9.440   6.665
10623WAT      O32110   2.559   2.449   1.061
10623WAT     H132111   2.643   2.429   1.111
10623WAT     H232112   2.567   2.539   1.017
10624WAT      O32113   9.706   4.606   4.481
10624WAT     H132114   9.774   4.536   4.502
10624WAT     H232115   9.616   4.574   4.509
10625WAT      O32116   1.362   7.246   5.744
10625WAT     H132117   1.326   7.335   5.713
10625WAT     H232118   1.370   7.185   5.665
10626WAT      O32119   5.543   8.528   5.694
10626WAT     H132120   5.576   8.434   5.698
10626WAT     H232121   5.464   8.533   5.634
10627WAT      O32122   1.293   0.810   7.919
10627WAT     H132123   1.380   0.761   7.911
10627WAT     H232124   1.311   0.902   7.955
10628WAT      O32125   3.605   2.226   7.433
10628WAT     H132126   3.562   2.148   7.387
10628WAT     H232127   3.675   2.193   7.496
10629WAT      O32128   8.668   1.008   1.400
10629WAT     H132129   8.728   0.991   1.322
10629WAT     H232130   8.576   0.974   1.379
10630WAT      O32131   9.629   4.110   2.846
10630WAT     H132132   9.559   4.055   2.799
10630WAT     H232133   9.608   4.111   2.944
10631WAT      O32134   2.434   0.801   6.235
10631WAT     H132135   2.347   0.800   6.186
10631WAT     H232136   2.479   0.713   6.223
10632WAT      O32137   7.501   3.628   8.897
10632WAT     H132138   7.580   3.573   8.924
10632WAT     H232139   7.436   3.633   8.973
10633WAT      O32140   4.968   8.813   7.953
10633WAT     H132141   4.958   8.828   8.051
10633WAT     H232142   4.947   8.898   7.904
10634WAT      O32143   2.959   8.341   2.029
10634WAT     H132144   2.932   8.314   2.121
10634WAT     H232145   3.049   8.385   2.032
10635WAT      O32146   5.845   6.237   5.016
10635WAT     H132147   5.893   6.212   5.100
10635WAT     H232148   5.840   6.336   5.008
10636WAT      O32149   4.950   0.025   8.866
10636WAT     H132150   4.911   0.116   8.854
10636WAT     H232151   4.885  -0.033   8.914
10637WAT      O32152   1.947   4.971   5.729
10637WAT     H132153   1.935   4.982   5.827
10637WAT     H232154   1.894   5.040   5.680
10638WAT      O32155   1.731   0.207   2.626
10638WAT     H132156   1.795   0.163   2.563
10638WAT     H232157   1.654   0.146   2.644
10639WAT      O32158   1.140   5.287   8.090
10639WAT     H132159   1.126   5.206   8.033
10639WAT     H232160   1.238   5.299   8.105
10640WAT      O32161   9.114   3.600   8.889
10640WAT     H132162   9.092   3.693   8.857
10640WAT     H232163   9.212   3.591   8.900
10641WAT      O32164   0.092   9.232   8.306
10641WAT     H132165   0.055   9.324   8.293
10641WAT     H232166   0.118   9.194   8.217
10642WAT      O32167   0.333   8.136   3.972
10642WAT     H132168   0.253   8.157   3.916
10642WAT     H232169   0.315   8.053   4.026
10643WAT      O32170   0.964   8.952   3.395
10643WAT     H132171   1.027   8.889   3.440
10643WAT     H232172   0.926   8.909   3.313
10644WAT      O32173   2.234   0.607   6.475
10644WAT     H132174   2.148   0.602   6.424
10644WAT     H232175   2.248   0.700   6.507
10645WAT      O32176   5.379   9.743   8.258
10645WAT     H132177   5.349   9.651   8.281
10645WAT     H232178   5.304   9.808   8.271
10646WAT      O32179   4.741   5.833   8.496
10646WAT     H132180   4.643   5.834   8.476
10646WAT     H232181   4.759   5.777   8.577
10647WAT      O32182   3.507   2.261   1.920
10647WAT     H132183   3.574   2.209   1.867
10647WAT     H232184   3.424   2.207   1.932
10648WAT      O32185   3.895   7.468   9.672
10648WAT     H132186   3.970   7.401   9.676
10648WAT     H232187   3.902   7.520   9.587
10649WAT      O32188   0.536   5.274   7.627
10649WAT     H132189   0.619   5.218   7.622
10649WAT     H232190   0.556   5.367   7.596
10650WAT      O32191   3.646   9.370   8.992
10650WAT     H132192   3.627   9.383   9.089
10650WAT     H232193   3.744   9.366   8.977
10651WAT      O32194   0.805   3.361   3.150
10651WAT     H132195   0.842   3.340   3.059
10651WAT     H232196   0.820   3.284   3.211
10652WAT      O32197   5.773   0.885   1.172
10652WAT     H132198   5.847   0.858   1.234
10652WAT     H232199   5.743   0.805   1.119
10653WAT      O32200   8.788   6.924   4.070
10653WAT     H132201   8.844   6.874   4.136
10653WAT     H232202   8.847   6.962   3.998
10654WAT      O32203   8.146   1.563   0.351
10654WAT     H132204   8.141   1.647   0.296
10654WAT     H232205   8.238   1.554   0.389
10655WAT      O32206   9.295   0.768   6.036
10655WAT     H132207   9.204   0.726   6.046
10655WAT     H232208   9.335   0.740   5.949
10656WAT      O32209   9.231   2.170   7.920
10656WAT     H132210   9.240   2.218   8.007
10656WAT     H232211   9.288   2.214   7.851
10657WAT      O32212   8.275   1.552   9.319
10657WAT     H132213   8.227   1.634   9.289
10657WAT     H232214   8.268   1.482   9.248
10658WAT      O32215   9.024   9.369   4.229
10658WAT     H132216   8.953   9.423   4.273
10658WAT     H232217   8.988   9.327   4.145
10659WAT      O32218   6.295   9.342   3.655
10659WAT     H132219   6.273   9.367   3.560
10659WAT     H232220   6.394   9.338   3.666
10660WAT      O32221   6.963   1.996   7.194
10660WAT     H132222   7.048   1.995   7.142
10660WAT     H232223   6.977   1.949   7.282
10661WAT      O32224   0.023   0.329   7.532
10661WAT     H132225   0.039   0.350   7.436
10661WAT     H232226  -0.013   0.236   7.541
10662WAT      O32227   1.060   6.325   6.665
10662WAT     H132228   1.017   6.288   6.583
10662WAT     H232229   1.148   6.280   6.681
10663WAT      O32230   9.555   1.687   7.496
10663WAT     H132231   9.573   1.740   7.579
10663WAT     H232232   9.512   1.747   7.428
10664WAT      O32233   3.647   2.051   8.510
10664WAT     H132234   3.569   2.108   8.534
10664WAT     H232235   3.618   1.955   8.504
10665WAT      O32236   4.690   1.234   4.552
10665WAT     H132237   4.770   1.174   4.553
10665WAT     H232238   4.679   1.272   4.461
10666WAT      O32239   4.785   9.193   5.174
10666WAT     H132240   4.746   9.230   5.258
10666WAT     H232241   4.748   9.102   5.156
10667WAT      O32242   2.260   5.205   4.177
10667WAT     H132243   2.325   5.138   4.211
10667WAT     H232244   2.252   5.196   4.078
10668WAT      O32245   1.645   6.317   9.299
10668WAT     H132246   1.662   6.273   9.211
10668WAT     H232247   1.566   6.275   9.343
10669WAT      O32248   9.367   9.774   1.982
10669WAT     H132249   9.338   9.681   2.006
10669WAT     H232250   9.435   9.806   2.048
10670WAT      O32251   2.972   3.082   9.690
10670WAT     H132252   2.968   2.996   9.640
10670WAT     H232253   3.017   3.068   9.778
10671WAT      O32254   7.703   2.134   4.836
10671WAT     H132255   7.751   2.143   4.923
10671WAT     H232256   7.661   2.043   4.830
10672WAT      O32257   2.347   6.373   0.731
10672WAT     H132258   2.326   6.463   0.770
10672WAT     H232259   2.392   6.316   0.800
10673WAT      O32260   2.986   6.680   4.438
10673WAT     H132261   2.960   6.594   4.395
10673WAT     H232262   3.070   6.715   4.395
10674WAT      O32263   6.574   5.088   5.779
10674WAT     H132264   6.615   5.026   5.712
10674WAT     H232265   6.604   5.064   5.871
10675WAT      O32266   9.678   3.762   9.061
10675WAT     H132267   9.771   3.793   9.081
10675WAT     H232268   9.619   3.842   9.048
10676WAT      O32269   0.591   0.949   1.443
10676WAT     H132270   0.495   0.925   1.434
10676WAT     H232271   0.610   1.032   1.391
10677WAT      O32272   3.576   8.231   4.405
10677WAT     H132273   3.498   8.291   4.423
10677WAT     H232274   3.604   8.241   4.309
10678WAT      O32275   8.125   6.219   2.747
10678WAT     H132276   8.057   6.158   2.707
10678WAT     H232277   8.192   6.166   2.798
10679WAT      O32278   1.131   8.580   1.673
10679WAT     H132279   1.155   8.662   1.725
10679WAT     H232280   1.123   8.604   1.576
10680WAT      O32281   7.507   4.378   6.012
10680WAT     H132282   7.529   4.288   5.974
10680WAT     H232283   7.424   4.370   6.069
10681WAT      O32284   9.611   7.726   2.309
10681WAT     H132285   9.604   7.811   2.360
10681WAT     H232286   9.706   7.695   2.310
10682WAT      O32287   1.953   4.570   3.879
10682WAT     H132288   1.955   4.475   3.909
10682WAT     H232289   1.924   4.628   3.955
10683WAT      O32290   8.177   5.811   4.393
10683WAT     H132291   8.238   5.843   4.321
10683WAT     H232292   8.138   5.723   4.366
10684WAT      O32293   1.539   3.793   6.277
10684WAT     H132294   1.619   3.790   6.217
10684WAT     H232295   1.567   3.820   6.369
10685WAT      O32296   4.543   3.088   6.299
10685WAT     H132297   4.531   3.009   6.359
10685WAT     H232298   4.496   3.167   6.338
10686WAT      O32299   0.531   2.363   6.963
10686WAT     H132300   0.494   2.430   6.899
10686WAT     H232301   0.479   2.278   6.958
10687WAT      O32302   3.684   0.633   5.095
10687WAT     H132303   3.624   0.564   5.055
10687WAT     H232304   3.630   0.697   5.149
10688WAT      O32305   1.478   9.208   7.603
10688WAT     H132306   1.383   9.238   7.592
10688WAT     H232307   1.521   9.200   7.514
10689WAT      O32308   2.594   7.438   7.516
10689WAT     H132309   2.588   7.369   7.443
10689WAT     H232310   2.514   7.430   7.575
10690WAT      O32311   5.863   4.385   8.750
10690WAT     H132312   5.859   4.430   8.661
10690WAT     H232313   5.930   4.310   8.746
10691WAT      O32314   7.527   2.532   1.487
10691WAT     H132315   7.527   2.610   1.424
10691WAT     H232316   7.447   2.537   1.546
10692WAT      O32317   9.434   6.013   5.194
10692WAT     H132318   9.347   6.017   5.145
10692WAT     H232319   9.450   5.920   5.226
10693WAT      O32320   5.363   8.361   2.177
10693WAT     H132321   5.280   8.322   2.137
10693WAT     H232322   5.427   8.287   2.201
10694WAT      O32323   0.518   3.553   1.691
10694WAT     H132324   0.486   3.463   1.662
10694WAT     H232325   0.458   3.588   1.763
10695WAT      O32326   8.136   9.308   5.096
10695WAT     H132327   8.118   9.402   5.124
10695WAT     H232328   8.229   9.301   5.060
10696WAT      O32329   8.225   7.860   7.364
10696WAT     H132330   8.167   7.846   7.444
10696WAT     H232331   8.223   7.778   7.307
10697WAT      O32332   7.684   8.770   3.234
10697WAT     H132333   7.767   8.767   3.177
10697WAT     H232334   7.710   8.766   3.330
10698WAT      O32335   7.942   6.542   0.847
10698WAT     H132336   7.970   6.631   0.811
10698WAT     H232337   7.962   6.537   0.945
10699WAT      O32338   3.473   4.744   2.028
10699WAT     H132339   3.547   4.699   2.076
10699WAT     H232340   3.500   4.838   2.005
10700WAT      O32341   3.276   3.256   9.450
10700WAT     H132342   3.367   3.253   9.491
10700WAT     H232343   3.284   3.286   9.355
10701WAT      O32344   4.272   8.267   5.310
10701WAT     H132345   4.276   8.179   5.263
10701WAT     H232346   4.189   8.271   5.366
10702WAT      O32347   2.710   1.568   4.604
10702WAT     H132348   2.780   1.498   4.619
10702WAT     H232349   2.706   1.627   4.684
10703WAT      O32350   7.592   6.154   2.309
10703WAT     H132351   7.674   6.158   2.366
10703WAT     H232352   7.539   6.238   2.320
10704WAT      O32353   6.828   5.802   9.295
10704WAT     H132354   6.746   5.757   9.331
10704WAT     H232355   6.815   5.901   9.298
10705WAT      O32356   3.294   6.611   4.815
10705WAT     H132357   3.211   6.625   4.868
10705WAT     H232358   3.313   6.513   4.808
10706WAT      O32359   7.374   2.245   5.105
10706WAT     H132360   7.283   2.279   5.081
10706WAT     H232361   7.399   2.277   5.196
10707WAT      O32362   2.685   2.817   5.630
10707WAT     H132363   2.603   2.871   5.612
10707WAT     H232364   2.711   2.767   5.547
10708WAT      O32365   6.572   7.721   8.404
10708WAT     H132366   6.628   7.640   8.391
10708WAT     H232367   6.492   7.716   8.344
10709WAT      O32368   3.372   3.935   5.397
10709WAT     H132369   3.343   4.027   5.371
10709WAT     H232370   3.461   3.916   5.356
10710WAT      O32371   2.700   9.565   9.341
10710WAT     H132372   2.603   9.540   9.334
10710WAT     H232373   2.755   9.502   9.285
10711WAT      O32374   9.213   1.345   2.030
10711WAT     H132375   9.183   1.390   2.114
10711WAT     H232376   9.300   1.385   2.000
10712WAT      O32377   4.288   9.529   9.270
10712WAT     H132378   4.324   9.441   9.301
10712WAT     H232379   4.330   9.602   9.324
10713WAT      O32380   9.617   0.596   2.388
10713WAT     H132381   9.613   0.666   2.460
10713WAT     H232382   9.708   0.599   2.345
10714WAT      O32383   9.472   2.940   2.925
10714WAT     H132384   9.525   2.879   2.865
10714WAT     H232385   9.519   2.950   3.012
10715WAT      O32386   7.924   6.193   6.773
10715WAT     H132387   7.960   6.286   6.778
10715WAT     H232388   7.949   6.143   6.857
10716WAT      O32389   7.702   2.992   9.357
10716WAT     H132390   7.683   3.063   9.290
10716WAT     H232391   7.635   2.998   9.431
10717WAT      O32392   2.956   1.696   1.681
10717WAT     H132393   2.968   1.598   1.667
10717WAT     H232394   2.924   1.713   1.774
10718WAT      O32395   3.066   8.151   8.808
10718WAT     H132396   3.143   8.202   8.846
10718WAT     H232397   3.088   8.053   8.809
10719WAT      O32398   1.057   2.985   7.062
10719WAT     H132399   1.107   3.008   7.146
10719WAT     H232400   1.102   2.908   7.017
10720WAT      O32401   0.758   5.398   0.594
10720WAT     H132402   0.687   5.353   0.539
10720WAT     H232403   0.722   5.483   0.633
10721WAT      O32404   6.911   1.696   2.780
10721WAT     H132405   6.935   1.640   2.700
10721WAT     H232406   6.969   1.670   2.857
10722WAT      O32407   4.527   3.099   5.379
10722WAT     H132408   4.514   3.009   5.339
10722WAT     H232409   4.532   3.168   5.306
10723WAT      O32410   9.694   9.095   6.395
10723WAT     H132411   9.728   9.011   6.438
10723WAT     H232412   9.626   9.137   6.455
10724WAT      O32413   5.392   1.303   6.225
10724WAT     H132414   5.396   1.310   6.125
10724WAT     H232415   5.428   1.214   6.253
10725WAT      O32416   2.017   7.085   6.622
10725WAT     H132417   1.934   7.052   6.668
10725WAT     H232418   2.022   7.184   6.630
10726WAT      O32419   8.386   7.098   2.652
10726WAT     H132420   8.450   7.071   2.580
10726WAT     H232421   8.351   7.017   2.698
10727WAT      O32422   6.576   3.543   2.651
10727WAT     H132423   6.648   3.488   2.608
10727WAT     H232424   6.563   3.628   2.600
10728WAT      O32425   5.248   1.544   3.537
10728WAT     H132426   5.279   1.457   3.574
10728WAT     H232427   5.327   1.598   3.509
10729WAT      O32428   9.276   0.364   5.160
10729WAT     H132429   9.338   0.287   5.144
10729WAT     H232430   9.317   0.447   5.124
10730WAT      O32431   7.697   9.190   3.288
10730WAT     H132432   7.651   9.141   3.362
10730WAT     H232433   7.664   9.156   3.200
10731WAT      O32434   5.327   9.142   5.108
10731WAT     H132435   5.313   9.239   5.091
10731WAT     H232436   5.272   9.113   5.187
10732WAT      O32437   9.258   9.150   4.680
10732WAT     H132438   9.310   9.066   4.661
10732WAT     H232439   9.203   9.173   4.600
10733WAT      O32440   3.814   1.790   0.172
10733WAT     H132441   3.830   1.822   0.078
10733WAT     H232442   3.716   1.775   0.186
10734WAT      O32443   6.958   2.514   5.048
10734WAT     H132444   6.874   2.525   4.995
10734WAT     H232445   6.939   2.532   5.145
10735WAT      O32446   7.769   0.873   6.231
10735WAT     H132447   7.835   0.907   6.298
10735WAT     H232448   7.776   0.927   6.147
10736WAT      O32449   6.996   3.121   2.959
10736WAT     H132450   7.026   3.195   2.899
10736WAT     H232451   7.025   3.033   2.921
10737WAT      O32452   0.769   8.702   4.425
10737WAT     H132453   0.715   8.785   4.435
10737WAT     H232454   0.816   8.703   4.337
10738WAT      O32455   1.689   5.577   3.708
10738WAT     H132456   1.781   5.545   3.689
10738WAT     H232457   1.693   5.651   3.775
10739WAT      O32458   2.576   1.807   1.766
10739WAT     H132459   2.485   1.776   1.790
10739WAT     H232460   2.580   1.907   1.770
10740WAT      O32461   6.589   2.203   4.208
10740WAT     H132462   6.660   2.242   4.150
10740WAT     H232463   6.607   2.226   4.303
10741WAT      O32464   8.386   1.744   0.430
10741WAT     H132465   8.464   1.801   0.457
10741WAT     H232466   8.388   1.658   0.481
10742WAT      O32467   8.160   1.435   5.004
10742WAT     H132468   8.197   1.342   5.004
10742WAT     H232469   8.154   1.468   4.909
10743WAT      O32470   9.742   2.763   7.229
10743WAT     H132471   9.720   2.832   7.298
10743WAT     H232472   9.817   2.705   7.262
10744WAT      O32473   8.356   6.021   2.527
10744WAT     H132474   8.314   6.109   2.504
10744WAT     H232475   8.456   6.031   2.526
10745WAT      O32476   0.589   9.430   2.156
10745WAT     H132477   0.650   9.477   2.220
10745WAT     H232478   0.523   9.495   2.119
10746WAT      O32479   3.048   4.132   3.994
10746WAT     H132480   3.145   4.139   4.015
10746WAT     H232481   3.034   4.151   3.897
10747WAT      O32482   3.470   6.353   0.595
10747WAT     H132483   3.372   6.347   0.574
10747WAT     H232484   3.515   6.269   0.564
10748WAT      O32485   1.341   9.511   3.422
10748WAT     H132486   1.254   9.559   3.406
10748WAT     H232487   1.328   9.443   3.494
10749WAT      O32488   6.420   7.477   3.264
10749WAT     H132489   6.514   7.487   3.232
10749WAT     H232490   6.362   7.445   3.189
10750WAT      O32491   2.381   2.940   6.805
10750WAT     H132492   2.374   2.921   6.903
10750WAT     H232493   2.458   2.890   6.767
10751WAT      O32494   1.796   8.435   1.241
10751WAT     H132495   1.845   8.413   1.325
10751WAT     H232496   1.806   8.359   1.176
10752WAT      O32497   2.372   4.968   2.414
10752WAT     H132498   2.446   4.919   2.368
10752WAT     H232499   2.346   4.918   2.497
10753WAT      O32500   7.129   0.378   8.243
10753WAT     H132501   7.053   0.376   8.308
10753WAT     H232502   7.202   0.435   8.280
10754WAT      O32503   8.128   5.099   1.224
10754WAT     H132504   8.063   5.166   1.260
10754WAT     H232505   8.184   5.064   1.299
10755WAT      O32506   7.936   2.768   5.672
10755WAT     H132507   7.891   2.680   5.656
10755WAT     H232508   7.932   2.824   5.589
10756WAT      O32509   9.446   3.044   5.515
10756WAT     H132510   9.416   3.065   5.608
10756WAT     H232511   9.489   3.124   5.475
10757WAT      O32512   9.019   6.063   9.218
10757WAT     H132513   9.069   6.056   9.132
10757WAT     H232514   8.946   6.131   9.208
10758WAT      O32515   5.622   7.916   5.610
10758WAT     H132516   5.561   7.991   5.585
10758WAT     H232517   5.678   7.944   5.689
10759WAT      O32518   2.258   9.530   2.072
10759WAT     H132519   2.277   9.493   2.163
10759WAT     H232520   2.295   9.623   2.065
10760WAT      O32521   7.683   0.791   2.977
10760WAT     H132522   7.596   0.767   2.935
10760WAT     H232523   7.755   0.730   2.942
10761WAT      O32524   8.707   2.530   9.004
10761WAT     H132525   8.634   2.555   8.941
10761WAT     H232526   8.787   2.588   8.987
10762WAT      O32527   1.689   6.649   4.758
10762WAT     H132528   1.707   6.653   4.856
10762WAT     H232529   1.605   6.699   4.737
10763WAT      O32530   5.274   9.014   6.621
10763WAT     H132531   5.189   9.032   6.672
10763WAT     H232532   5.352   9.041   6.677
10764WAT      O32533   5.421   6.307   8.240
10764WAT     H132534   5.364   6.385   8.214
10764WAT     H232535   5.503   6.340   8.288
10765WAT      O32536   2.752   7.013   1.480
10765WAT     H132537   2.793   6.931   1.520
10765WAT     H232538   2.726   7.077   1.553
10766WAT      O32539   2.032   8.960   3.010
10766WAT     H132540   2.050   8.916   3.098
10766WAT     H232541   2.051   9.058   3.018
10767WAT      O32542   3.389   3.714   3.099
10767WAT     H132543   3.437   3.710   3.012
10767WAT     H232544   3.379   3.621   3.136
10768WAT      O32545   3.347   5.719   5.924
10768WAT     H132546   3.356   5.726   5.824
10768WAT     H232547   3.418   5.658   5.960
10769WAT      O32548   6.323   8.520   0.766
10769WAT     H132549   6.228   8.489   0.753
10769WAT     H232550   6.330   8.570   0.852
10770WAT      O32551   8.580   9.577   0.362
10770WAT     H132552   8.543   9.557   0.453
10770WAT     H232553   8.661   9.635   0.371
10771WAT      O32554   4.632   2.619   0.632
10771WAT     H132555   4.564   2.582   0.568
10771WAT     H232556   4.638   2.559   0.712
10772WAT      O32557   4.772   3.746   9.574
10772WAT     H132558   4.773   3.682   9.497
10772WAT     H232559   4.740   3.699   9.656
10773WAT      O32560   3.998   5.792   2.216
10773WAT     H132561   3.985   5.852   2.295
10773WAT     H232562   4.049   5.841   2.145
10774WAT      O32563   4.748   3.248   1.246
10774WAT     H132564   4.729   3.200   1.332
10774WAT     H232565   4.740   3.184   1.170
10775WAT      O32566   6.019   2.837   5.216
10775WAT     H132567   6.081   2.903   5.258
10775WAT     H232568   5.952   2.806   5.283
10776WAT      O32569   6.401   2.454   4.445
10776WAT     H132570   6.335   2.526   4.467
10776WAT     H232571   6.425   2.403   4.528
10777WAT      O32572   8.363   4.345   7.011
10777WAT     H132573   8.440   4.280   7.007
10777WAT     H232574   8.282   4.298   7.046
10778WAT      O32575   6.777   1.983   0.904
10778WAT     H132576   6.749   1.916   0.835
10778WAT     H232577   6.872   2.011   0.886
10779WAT      O32578   1.105   2.285   7.470
10779WAT     H132579   1.047   2.219   7.518
10779WAT     H232580   1.165   2.331   7.536
10780WAT      O32581   8.813   7.898   8.974
10780WAT     H132582   8.752   7.830   8.934
10780WAT     H232583   8.770   7.988   8.972
10781WAT      O32584   5.596   7.200   5.809
10781WAT     H132585   5.503   7.172   5.834
10781WAT     H232586   5.652   7.118   5.795
10782WAT      O32587   5.610   7.356   6.571
10782WAT     H132588   5.603   7.292   6.648
10782WAT     H232589   5.522   7.403   6.559
10783WAT      O32590   5.509   1.211   9.100
10783WAT     H132591   5.461   1.293   9.132
10783WAT     H232592   5.588   1.239   9.046
10784WAT      O32593   0.795   2.965   1.843
10784WAT     H132594   0.710   3.006   1.812
10784WAT     H232595   0.818   2.887   1.785
10785WAT      O32596   3.523   5.386   1.058
10785WAT     H132597   3.514   5.290   1.033
10785WAT     H232598   3.546   5.394   1.154
10786WAT      O32599   1.861   4.479   6.514
10786WAT     H132600   1.872   4.574   6.543
10786WAT     H232601   1.945   4.428   6.532
10787WAT      O32602   6.479   9.082   8.650
10787WAT     H132603   6.444   9.068   8.743
10787WAT     H232604   6.415   9.140   8.599
10788WAT      O32605   0.641   1.381   5.282
10788WAT     H132606   0.581   1.396   5.203
10788WAT     H232607   0.594   1.407   5.366
10789WAT      O32608   2.580   6.839   2.958
10789WAT     H132609   2.517   6.906   2.998
10789WAT     H232610   2.668   6.844   3.005
10790WAT      O32611   1.920   2.871   5.411
10790WAT     H132612   1.857   2.945   5.432
10790WAT     H232613   1.983   2.899   5.339
10791WAT      O32614   3.098   8.819   9.275
10791WAT     H132615   3.173   8.825   9.340
10791WAT     H232616   3.081   8.723   9.253
10792WAT      O32617   5.591   1.402   4.628
10792WAT     H132618   5.679   1.404   4.581
10792WAT     H232619   5.567   1.495   4.659
10793WAT      O32620   5.425   4.333   7.685
10793WAT     H132621   5.364   4.318   7.763
10793WAT     H232622   5.381   4.301   7.602
10794WAT      O32623   6.972   9.614   3.035
10794WAT     H132624   7.040   9.663   3.089
10794WAT     H232625   6.906   9.571   3.097
10795WAT      O32626   1.236   7.144   6.370
10795WAT     H132627   1.142   7.131   6.341
10795WAT     H232628   1.296   7.153   6.290
10796WAT      O32629   9.450   5.311   9.421
10796WAT     H132630   9.451   5.255   9.504
10796WAT     H232631   9.525   5.283   9.361
10797WAT      O32632   5.567   0.411   2.013
10797WAT     H132633   5.549   0.474   1.937
10797WAT     H232634   5.638   0.448   2.072
10798WAT      O32635   1.683   5.275   8.456
10798WAT     H132636   1.655   5.371   8.446
10798WAT     H232637   1.621   5.229   8.519
10799WAT      O32638   1.924   4.689   8.603
10799WAT     H132639   1.925   4.722   8.697
10799WAT     H232640   1.854   4.618   8.593
10800WAT      O32641   0.035   4.917   7.756
10800WAT     H132642  -0.003   4.835   7.713
10800WAT     H232643  -0.019   4.941   7.835
10801WAT      O32644   3.493   6.231   3.462
10801WAT     H132645   3.553   6.310   3.478
10801WAT     H232646   3.448   6.242   3.374
10802WAT      O32647   2.609   6.919   9.364
10802WAT     H132648   2.571   6.916   9.271
10802WAT     H232649   2.694   6.971   9.363
10803WAT      O32650   6.645   4.884   2.545
10803WAT     H132651   6.593   4.855   2.626
10803WAT     H232652   6.652   4.808   2.481
10804WAT      O32653   8.334   6.337   4.820
10804WAT     H132654   8.370   6.346   4.913
10804WAT     H232655   8.252   6.393   4.811
10805WAT      O32656   4.922   2.783   7.923
10805WAT     H132657   4.859   2.719   7.880
10805WAT     H232658   5.016   2.752   7.908
10806WAT      O32659   2.434   9.757   9.304
10806WAT     H132660   2.471   9.815   9.377
10806WAT     H232661   2.438   9.662   9.332
10807WAT      O32662   7.528   1.253   6.785
10807WAT     H132663   7.592   1.318   6.826
10807WAT     H232664   7.520   1.173   6.845
10808WAT      O32665   5.042   2.570   7.406
10808WAT     H132666   5.127   2.529   7.440
10808WAT     H232667   4.980   2.585   7.483
10809WAT      O32668   7.353   2.254   5.397
10809WAT     H132669   7.315   2.238   5.488
10809WAT     H232670   7.410   2.176   5.370
10810WAT      O32671   3.975   3.110   5.112
10810WAT     H132672   4.024   3.056   5.181
10810WAT     H232673   3.931   3.048   5.047
10811WAT      O32674   2.738   8.261   9.486
10811WAT     H132675   2.781   8.319   9.555
10811WAT     H232676   2.797   8.183   9.466
10812WAT      O32677   6.023   8.285   7.742
10812WAT     H132678   6.009   8.341   7.824
10812WAT     H232679   6.032   8.189   7.769
10813WAT      O32680   3.176   2.376   0.752
10813WAT     H132681   3.263   2.329   0.740
10813WAT     H232682   3.149   2.418   0.666
10814WAT      O32683   1.100   2.773   1.932
10814WAT     H132684   1.121   2.804   1.839
10814WAT     H232685   1.012   2.811   1.960
10815WAT      O32686   3.686   2.096   1.793
10815WAT     H132687   3.684   2.109   1.694
10815WAT     H232688   3.689   1.998   1.813
10816WAT      O32689   2.598   9.129   5.834
10816WAT     H132690   2.549   9.096   5.754
10816WAT     H232691   2.579   9.069   5.912
10817WAT      O32692   8.385   9.356   2.390
10817WAT     H132693   8.433   9.314   2.313
10817WAT     H232694   8.378   9.291   2.465
10818WAT      O32695   5.203   6.630   9.473
10818WAT     H132696   5.238   6.722   9.494
10818WAT     H232697   5.158   6.593   9.555
10819WAT      O32698   0.998   5.544   3.565
10819WAT     H132699   0.968   5.640   3.569
10819WAT     H232700   1.097   5.541   3.550
10820WAT      O32701   7.164   0.315   5.384
10820WAT     H132702   7.155   0.295   5.286
10820WAT     H232703   7.073   0.326   5.424
10821WAT      O32704   6.731   7.244   9.674
10821WAT     H132705   6.673   7.269   9.751
10821WAT     H232706   6.793   7.170   9.700
10822WAT      O32707   8.634   7.117   3.255
10822WAT     H132708   8.685   7.120   3.169
10822WAT     H232709   8.610   7.022   3.276
10823WAT      O32710   3.233   9.298   3.236
10823WAT     H132711   3.261   9.376   3.179
10823WAT     H232712   3.137   9.278   3.219
10824WAT      O32713   6.754   1.386   0.220
10824WAT     H132714   6.690   1.458   0.247
10824WAT     H232715   6.735   1.303   0.274
10825WAT      O32716   0.333   7.564   1.185
10825WAT     H132717   0.341   7.663   1.181
10825WAT     H232718   0.415   7.525   1.227
10826WAT      O32719   2.567   9.641   3.846
10826WAT     H132720   2.651   9.681   3.884
10826WAT     H232721   2.563   9.544   3.869
10827WAT      O32722   5.903   5.910   8.016
10827WAT     H132723   5.967   5.978   7.980
10827WAT     H232724   5.890   5.926   8.114
10828WAT      O32725   1.477   1.349   1.036
10828WAT     H132726   1.448   1.282   1.105
10828WAT     H232727   1.557   1.398   1.070
10829WAT      O32728   1.227   4.438   8.333
10829WAT     H132729   1.272   4.462   8.247
10829WAT     H232730   1.169   4.358   8.319
10830WAT      O32731   4.256   8.353   9.247
10830WAT     H132732   4.188   8.427   9.252
10830WAT     H232733   4.332   8.373   9.309
10831WAT      O32734   1.987   2.309   5.858
10831WAT     H132735   2.026   2.260   5.936
10831WAT     H232736   1.946   2.244   5.795
10832WAT      O32737   7.828   9.009   6.070
10832WAT     H132738   7.776   9.015   5.986
10832WAT     H232739   7.845   8.913   6.093
10833WAT      O32740   6.215   1.162   8.814
10833WAT     H132741   6.212   1.067   8.847
10833WAT     H232742   6.168   1.168   8.726
10834WAT      O32743   4.891   4.938   8.377
10834WAT     H132744   4.966   4.922   8.441
10834WAT     H232745   4.899   5.030   8.339
10835WAT      O32746   8.890   2.129   2.381
10835WAT     H132747   8.831   2.209   2.389
10835WAT     H232748   8.842   2.057   2.332
10836WAT      O32749   0.621   4.732   8.995
10836WAT     H132750   0.617   4.697   8.901
10836WAT     H232751   0.589   4.827   8.996
10837WAT      O32752   0.497   5.418   6.546
10837WAT     H132753   0.552   5.463   6.616
10837WAT     H232754   0.427   5.362   6.590
10838WAT      O32755   2.490   3.907   1.830
10838WAT     H132756   2.501   3.925   1.732
10838WAT     H232757   2.579   3.897   1.873
10839WAT      O32758   1.251   7.235   3.855
10839WAT     H132759   1.159   7.236   3.814
10839WAT     H232760   1.256   7.305   3.926
10840WAT      O32761   3.883   5.584   0.917
10840WAT     H132762   3.911   5.657   0.855
10840WAT     H232763   3.960   5.558   0.975
10841WAT      O32764   2.554   3.902   7.042
10841WAT     H132765   2.460   3.927   7.065
10841WAT     H232766   2.605   3.983   7.015
10842WAT      O32767   8.290   6.863   2.719
10842WAT     H132768   8.207   6.842   2.772
10842WAT     H232769   8.283   6.822   2.628
10843WAT      O32770   6.905   1.413   9.700
10843WAT     H132771   6.979   1.449   9.758
10843WAT     H232772   6.817   1.438   9.740
10844WAT      O32773   1.524   8.164   4.452
10844WAT     H132774   1.538   8.146   4.549
10844WAT     H232775   1.463   8.095   4.413
10845WAT      O32776   2.687   9.252   9.299
10845WAT     H132777   2.661   9.159   9.326
10845WAT     H232778   2.728   9.298   9.377
10846WAT      O32779   1.182   5.116   5.215
10846WAT     H132780   1.252   5.102   5.284
10846WAT     H232781   1.149   5.028   5.182
10847WAT      O32782   0.653   8.157   4.561
10847WAT     H132783   0.683   8.228   4.498
10847WAT     H232784   0.553   8.160   4.571
10848WAT      O32785   4.215   9.425   6.225
10848WAT     H132786   4.266   9.359   6.169
10848WAT     H232787   4.280   9.487   6.270
10849WAT      O32788   3.961   2.664   7.276
10849WAT     H132789   3.951   2.605   7.356
10849WAT     H232790   3.873   2.705   7.254
10850WAT      O32791   4.261   3.472   4.220
10850WAT     H132792   4.268   3.474   4.120
10850WAT     H232793   4.345   3.509   4.260
10851WAT      O32794   9.535   0.166   0.403
10851WAT     H132795   9.442   0.137   0.382
10851WAT     H232796   9.583   0.093   0.450
10852WAT      O32797   7.935   1.751   4.327
10852WAT     H132798   7.872   1.812   4.279
10852WAT     H232799   7.965   1.793   4.412
10853WAT      O32800   3.022   8.421   8.972
10853WAT     H132801   3.115   8.430   8.936
10853WAT     H232802   2.967   8.366   8.909
10854WAT      O32803   4.532   6.231   9.420
10854WAT     H132804   4.482   6.318   9.420
10854WAT     H232805   4.473   6.160   9.458
10855WAT      O32806   6.182   3.889   1.979
10855WAT     H132807   6.128   3.938   1.911
10855WAT     H232808   6.182   3.791   1.959
10856WAT      O32809   3.800   5.016   3.699
10856WAT     H132810   3.750   5.103   3.691
10856WAT     H232811   3.870   5.025   3.770
10857WAT      O32812   7.464   9.504   6.018
10857WAT     H132813   7.493   9.501   5.922
10857WAT     H232814   7.531   9.456   6.075
10858WAT      O32815   1.411   4.912   7.610
10858WAT     H132816   1.340   4.983   7.611
10858WAT     H232817   1.372   4.824   7.635
10859WAT      O32818   8.879   3.232   2.142
10859WAT     H132819   8.944   3.217   2.068
10859WAT     H232820   8.923   3.282   2.216
10860WAT      O32821   0.156   2.607   8.452
10860WAT     H132822   0.190   2.686   8.503
10860WAT     H232823   0.223   2.533   8.458
10861WAT      O32824   5.399   8.498   4.877
10861WAT     H132825   5.309   8.459   4.857
10861WAT     H232826   5.465   8.424   4.887
10862WAT      O32827   4.552   9.459   7.034
10862WAT     H132828   4.499   9.382   7.070
10862WAT     H232829   4.586   9.435   6.942
10863WAT      O32830   3.356   5.751   8.953
10863WAT     H132831   3.266   5.720   8.982
10863WAT     H232832   3.426   5.690   8.990
10864WAT      O32833   1.501   4.716   0.944
10864WAT     H132834   1.431   4.651   0.915
10864WAT     H232835   1.496   4.728   1.044
10865WAT      O32836   7.265   7.243   3.124
10865WAT     H132837   7.322   7.232   3.043
10865WAT     H232838   7.322   7.261   3.204
10866WAT      O32839   6.706   5.489   8.747
10866WAT     H132840   6.702   5.471   8.649
10866WAT     H232841   6.645   5.564   8.770
10867WAT      O32842   6.622   7.769   6.340
10867WAT     H132843   6.596   7.705   6.413
10867WAT     H232844   6.640   7.718   6.256
10868WAT      O32845   4.631   7.835   4.052
10868WAT     H132846   4.568   7.848   4.128
10868WAT     H232847   4.696   7.911   4.048
10869WAT      O32848   0.944   9.222   5.542
10869WAT     H132849   0.954   9.309   5.493
10869WAT     H232850   1.009   9.156   5.505
10870WAT      O32851   6.061   3.039   4.307
10870WAT     H132852   5.964   3.024   4.287
10870WAT     H232853   6.071   3.069   4.401
10871WAT      O32854   1.849   3.324   3.678
10871WAT     H132855   1.913   3.393   3.710
10871WAT     H232856   1.894   3.235   3.674
10872WAT      O32857   9.763   1.307   9.840
10872WAT     H132858   9.828   1.368   9.886
10872WAT     H232859   9.796   1.213   9.847
10873WAT      O32860   9.638   6.876   8.919
10873WAT     H132861   9.676   6.822   8.844
10873WAT     H232862   9.663   6.972   8.906
10874WAT      O32863   6.094   5.647   1.747
10874WAT     H132864   6.005   5.624   1.708
10874WAT     H232865   6.085   5.727   1.806
10875WAT      O32866   2.410   2.088   0.854
10875WAT     H132867   2.360   2.023   0.913
10875WAT     H232868   2.352   2.167   0.835
10876WAT      O32869   7.698   0.003   1.726
10876WAT     H132870   7.610  -0.028   1.761
10876WAT     H232871   7.723   0.089   1.769
10877WAT      O32872   8.987   2.328   5.856
10877WAT     H132873   8.902   2.298   5.900
10877WAT     H232874   8.976   2.324   5.756
10878WAT      O32875   0.770   2.288   0.970
10878WAT     H132876   0.857   2.329   0.944
10878WAT     H232877   0.727   2.343   1.041
10879WAT      O32878   1.418   1.190   7.111
10879WAT     H132879   1.403   1.275   7.060
10879WAT     H232880   1.342   1.175   7.174
10880WAT      O32881   0.340   4.173   3.376
10880WAT     H132882   0.264   4.197   3.437
10880WAT     H232883   0.303   4.147   3.287
10881WAT      O32884   8.129   1.414   2.190
10881WAT     H132885   8.054   1.361   2.149
10881WAT     H232886   8.163   1.480   2.123
10882WAT      O32887   3.487   7.672   0.764
10882WAT     H132888   3.569   7.676   0.707
10882WAT     H232889   3.432   7.754   0.748
10883WAT      O32890   7.633   6.563   6.840
10883WAT     H132891   7.539   6.586   6.813
10883WAT     H232892   7.667   6.633   6.903
10884WAT      O32893   5.970   5.208   4.789
10884WAT     H132894   5.886   5.255   4.815
10884WAT     H232895   5.949   5.140   4.719
10885WAT      O32896   7.018   8.414   0.501
10885WAT     H132897   6.938   8.358   0.480
10885WAT     H232898   7.076   8.366   0.566
10886WAT      O32899   6.690   9.553   8.095
10886WAT     H132900   6.711   9.598   8.182
10886WAT     H232901   6.773   9.511   8.059
10887WAT      O32902   1.612   1.504   9.736
10887WAT     H132903   1.567   1.470   9.654
10887WAT     H232904   1.549   1.562   9.788
10888WAT      O32905   3.702   3.020   1.972
10888WAT     H132906   3.783   3.067   1.938
10888WAT     H232907   3.644   2.992   1.896
10889WAT      O32908   7.126   5.026   5.566
10889WAT     H132909   7.154   4.930   5.557
10889WAT     H232910   7.053   5.033   5.633
10890WAT      O32911   4.922   9.591   2.905
10890WAT     H132912   4.829   9.630   2.901
10890WAT     H232913   4.956   9.576   2.813
10891WAT      O32914   8.225   0.583   3.690
10891WAT     H132915   8.197   0.490   3.667
10891WAT     H232916   8.258   0.630   3.608
10892WAT      O32917   3.128   8.056   2.725
10892WAT     H132918   3.114   8.149   2.759
10892WAT     H232919   3.042   8.018   2.692
10893WAT      O32920   5.055   0.038   1.661
10893WAT     H132921   5.098   0.055   1.750
10893WAT     H232922   5.014   0.123   1.627
10894WAT      O32923   2.411   0.482   4.736
10894WAT     H132924   2.379   0.461   4.643
10894WAT     H232925   2.339   0.462   4.802
10895WAT      O32926   2.393   6.494   7.206
10895WAT     H132927   2.418   6.568   7.269
10895WAT     H232928   2.361   6.415   7.259
10896WAT      O32929   3.039   1.344   3.582
10896WAT     H132930   3.015   1.344   3.679
10896WAT     H232931   2.973   1.399   3.531
10897WAT      O32932   1.227   2.105   3.619
10897WAT     H132933   1.316   2.151   3.619
10897WAT     H232934   1.158   2.166   3.658
10898WAT      O32935   9.271   3.443   0.998
10898WAT     H132936   9.327   3.525   1.003
10898WAT     H232937   9.241   3.417   1.090
10899WAT      O32938   0.069   3.438   6.811
10899WAT     H132939   0.156   3.456   6.856
10899WAT     H232940   0.086   3.418   6.714
10900WAT      O32941   7.383   0.091   3.110
10900WAT     H132942   7.468   0.107   3.159
10900WAT     H232943   7.382  -0.002   3.074
10901WAT      O32944   1.691   5.263   6.573
10901WAT     H132945   1.659   5.252   6.667
10901WAT     H232946   1.677   5.178   6.523
10902WAT      O32947   7.737   7.244   7.882
10902WAT     H132948   7.679   7.314   7.924
10902WAT     H232949   7.680   7.169   7.849
10903WAT      O32950   0.806   2.714   2.938
10903WAT     H132951   0.781   2.788   2.876
10903WAT     H232952   0.862   2.751   3.013
10904WAT      O32953   4.503   1.611   7.765
10904WAT     H132954   4.538   1.620   7.858
10904WAT     H232955   4.574   1.643   7.701
10905WAT      O32956   5.269   2.749   6.797
10905WAT     H132957   5.246   2.800   6.880
10905WAT     H232958   5.366   2.725   6.799
10906WAT      O32959   6.075   4.411   1.141
10906WAT     H132960   6.068   4.489   1.202
10906WAT     H232961   5.987   4.365   1.134
10907WAT      O32962   4.688   2.728   6.387
10907WAT     H132963   4.598   2.762   6.416
10907WAT     H232964   4.758   2.796   6.409
10908WAT      O32965   6.519   5.461   1.516
10908WAT     H132966   6.518   5.442   1.418
10908WAT     H232967   6.435   5.508   1.542
10909WAT      O32968   0.521   5.877   6.952
10909WAT     H132969   0.457   5.906   7.023
10909WAT     H232970   0.613   5.872   6.990
10910WAT      O32971   2.940   8.082   9.429
10910WAT     H132972   2.974   7.994   9.397
10910WAT     H232973   3.007   8.123   9.491
10911WAT      O32974   6.746   1.916   2.705
10911WAT     H132975   6.815   1.853   2.742
10911WAT     H232976   6.672   1.927   2.770
10912WAT      O32977   1.006   1.712   2.184
10912WAT     H132978   1.040   1.737   2.093
10912WAT     H232979   1.080   1.720   2.251
10913WAT      O32980   6.837   5.439   2.345
10913WAT     H132981   6.838   5.539   2.336
10913WAT     H232982   6.920   5.401   2.304
10914WAT      O32983   1.067   4.593   0.014
10914WAT     H132984   1.046   4.690   0.008
10914WAT     H232985   1.070   4.565   0.110
10915WAT      O32986   1.111   6.122   8.750
10915WAT     H132987   1.045   6.130   8.825
10915WAT     H232988   1.097   6.197   8.685
10916WAT      O32989   3.637   7.691   5.622
10916WAT     H132990   3.621   7.765   5.688
10916WAT     H232991   3.589   7.609   5.652
10917WAT      O32992   7.496   1.110   3.858
10917WAT     H132993   7.439   1.116   3.776
10917WAT     H232994   7.525   1.202   3.885
10918WAT      O32995   5.597   2.771   1.301
10918WAT     H132996   5.653   2.846   1.265
10918WAT     H232997   5.520   2.808   1.351
10919WAT      O32998   9.697   3.030   2.082
10919WAT     H132999   9.611   3.055   2.125
10919WAT     H233000   9.755   3.112   2.074
10920WAT      O33001   2.315   5.278   6.012
10920WAT     H133002   2.311   5.185   6.049
10920WAT     H233003   2.228   5.324   6.028
10921WAT      O33004   1.552   4.333   0.442
10921WAT     H133005   1.623   4.269   0.413
10921WAT     H233006   1.593   4.422   0.462
10922WAT      O33007   9.396   8.056   2.569
10922WAT     H133008   9.349   8.012   2.492
10922WAT     H233009   9.353   8.143   2.589
10923WAT      O33010   8.381   7.164   4.152
10923WAT     H133011   8.373   7.162   4.052
10923WAT     H233012   8.378   7.070   4.187
10924WAT      O33013   3.197   8.479   2.308
10924WAT     H133014   3.240   8.425   2.381
10924WAT     H233015   3.184   8.573   2.339
10925WAT      O33016   8.307   1.804   9.608
10925WAT     H133017   8.374   1.733   9.587
10925WAT     H233018   8.239   1.769   9.672
10926WAT      O33019   7.524   6.449   3.526
10926WAT     H133020   7.605   6.408   3.569
10926WAT     H233021   7.552   6.504   3.447
10927WAT      O33022   7.255   5.752   1.973
10927WAT     H133023   7.182   5.806   2.012
10927WAT     H233024   7.304   5.806   1.905
10928WAT      O33025   1.820   9.266   0.156
10928WAT     H133026   1.849   9.199   0.088
10928WAT     H233027   1.739   9.232   0.204
10929WAT      O33028   5.124   7.852   0.066
10929WAT     H133029   5.205   7.794   0.057
10929WAT     H233030   5.044   7.803   0.031
10930WAT      O33031   4.021   6.976   1.660
10930WAT     H133032   3.924   6.959   1.646
10930WAT     H233033   4.033   7.047   1.729
10931WAT      O33034   5.701   2.224   5.009
10931WAT     H133035   5.710   2.324   5.011
10931WAT     H233036   5.606   2.200   4.990
10932WAT      O33037   7.528   2.048   2.585
10932WAT     H133038   7.466   1.980   2.624
10932WAT     H233039   7.475   2.128   2.556
10933WAT      O33040   4.583   4.111   7.117
10933WAT     H133041   4.529   4.169   7.056
10933WAT     H233042   4.534   4.025   7.133
10934WAT      O33043   2.387   0.981   4.807
10934WAT     H133044   2.321   1.055   4.815
10934WAT     H233045   2.387   0.926   4.890
10935WAT      O33046   9.283   8.315   7.861
10935WAT     H133047   9.371   8.321   7.815
10935WAT     H233048   9.252   8.220   7.861
10936WAT      O33049   7.160   9.718   8.543
10936WAT     H133050   7.180   9.779   8.466
10936WAT     H233051   7.118   9.771   8.617
10937WAT      O33052   3.824   7.903   2.737
10937WAT     H133053   3.797   7.879   2.830
10937WAT     H233054   3.923   7.898   2.728
10938WAT      O33055   5.939   3.660   5.258
10938WAT     H133056   5.927   3.637   5.355
10938WAT     H233057   5.851   3.691   5.220
10939WAT      O33058   1.523   8.516   6.351
10939WAT     H133059   1.461   8.441   6.327
10939WAT     H233060   1.617   8.487   6.335
10940WAT      O33061   7.256   3.506   6.090
10940WAT     H133062   7.272   3.500   5.991
10940WAT     H233063   7.161   3.534   6.106
10941WAT      O33064   4.063   9.041   1.652
10941WAT     H133065   4.131   8.969   1.670
10941WAT     H233066   3.995   9.041   1.726
10942WAT      O33067   0.812   8.237   9.526
10942WAT     H133068   0.883   8.167   9.538
10942WAT     H233069   0.786   8.242   9.430
10943WAT      O33070   9.621   0.932   7.874
10943WAT     H133071   9.565   0.862   7.829
10943WAT     H233072   9.701   0.889   7.915
10944WAT      O33073   4.821   1.254   1.414
10944WAT     H133074   4.806   1.353   1.408
10944WAT     H233075   4.908   1.237   1.461
10945WAT      O33076   0.841   7.054   7.590
10945WAT     H133077   0.935   7.021   7.578
10945WAT     H233078   0.778   6.994   7.541
10946WAT      O33079   2.499   0.445   9.542
10946WAT     H133080   2.469   0.352   9.563
10946WAT     H233081   2.444   0.510   9.594
10947WAT      O33082   6.220   2.098   6.058
10947WAT     H133083   6.288   2.080   6.128
10947WAT     H233084   6.195   2.195   6.060
10948WAT      O33085   2.960   9.305   2.542
10948WAT     H133086   3.052   9.328   2.575
10948WAT     H233087   2.897   9.301   2.620
10949WAT      O33088   3.372   8.027   4.817
10949WAT     H133089   3.405   7.940   4.853
10949WAT     H233090   3.342   8.085   4.893
10950WAT      O33091   7.701   3.645   3.409
10950WAT     H133092   7.615   3.633   3.459
10950WAT     H233093   7.767   3.576   3.439
10951WAT      O33094   8.473   2.806   3.781
10951WAT     H133095   8.463   2.857   3.696
10951WAT     H233096   8.385   2.768   3.808
10952WAT      O33097   5.970   5.056   3.777
10952WAT     H133098   5.885   5.003   3.781
10952WAT     H233099   6.010   5.047   3.686
10953WAT      O33100   3.157   4.477   8.337
10953WAT     H133101   3.107   4.432   8.263
10953WAT     H233102   3.120   4.446   8.425
10954WAT      O33103   4.929   2.087   2.674
10954WAT     H133104   4.943   2.041   2.586
10954WAT     H233105   4.832   2.110   2.684
10955WAT      O33106   0.836   9.365   8.721
10955WAT     H133107   0.790   9.429   8.659
10955WAT     H233108   0.799   9.375   8.813
10956WAT      O33109   3.996   2.653   4.116
10956WAT     H133110   3.920   2.631   4.055
10956WAT     H233111   4.004   2.582   4.187
10957WAT      O33112   5.476   0.817   6.606
10957WAT     H133113   5.509   0.773   6.689
10957WAT     H233114   5.424   0.898   6.630
10958WAT      O33115   5.100   4.028   7.274
10958WAT     H133116   5.011   4.022   7.228
10958WAT     H233117   5.086   4.048   7.371
10959WAT      O33118   8.549   7.356   7.958
10959WAT     H133119   8.565   7.259   7.937
10959WAT     H233120   8.630   7.394   8.002
10960WAT      O33121   0.278   2.820   0.517
10960WAT     H133122   0.207   2.848   0.581
10960WAT     H233123   0.368   2.837   0.557
10961WAT      O33124   7.762   8.418   1.447
10961WAT     H133125   7.663   8.436   1.450
10961WAT     H233126   7.803   8.443   1.535
10962WAT      O33127   1.216   7.903   8.206
10962WAT     H133128   1.299   7.902   8.150
10962WAT     H233129   1.189   7.998   8.223
10963WAT      O33130   4.602   3.346   0.772
10963WAT     H133131   4.631   3.310   0.683
10963WAT     H233132   4.541   3.424   0.759
10964WAT      O33133   4.554   0.235   6.647
10964WAT     H133134   4.558   0.273   6.739
10964WAT     H233135   4.634   0.263   6.596
10965WAT      O33136   7.810   4.099   8.037
10965WAT     H133137   7.801   4.091   8.137
10965WAT     H233138   7.862   4.021   8.002
10966WAT      O33139   6.443   1.365   9.604
10966WAT     H133140   6.415   1.303   9.678
10966WAT     H233141   6.484   1.311   9.530
10967WAT      O33142   6.215   0.549   1.765
10967WAT     H133143   6.148   0.576   1.696
10967WAT     H233144   6.216   0.615   1.839
10968WAT      O33145   4.278   3.220   5.328
10968WAT     H133146   4.258   3.148   5.262
10968WAT     H233147   4.355   3.192   5.385
10969WAT      O33148   6.168   6.986   7.371
10969WAT     H133149   6.254   6.946   7.342
10969WAT     H233150   6.142   7.059   7.308
10970WAT      O33151   1.675   9.050   9.298
10970WAT     H133152   1.762   9.007   9.321
10970WAT     H233153   1.685   9.105   9.216
10971WAT      O33154   3.608   0.199   3.043
10971WAT     H133155   3.677   0.127   3.037
10971WAT     H233156   3.573   0.219   2.951
10972WAT      O33157   0.249   2.322   9.149
10972WAT     H133158   0.257   2.226   9.123
10972WAT     H233159   0.158   2.338   9.187
10973WAT      O33160   7.151   9.327   8.152
10973WAT     H133161   7.170   9.350   8.057
10973WAT     H233162   7.237   9.325   8.204
10974WAT      O33163   8.781   5.577   8.711
10974WAT     H133164   8.866   5.525   8.703
10974WAT     H233165   8.703   5.515   8.704
10975WAT      O33166   6.390   5.903   9.123
10975WAT     H133167   6.455   5.975   9.146
10975WAT     H233168   6.297   5.935   9.141
10976WAT      O33169   8.963   4.281   1.566
10976WAT     H133170   9.001   4.242   1.650
10976WAT     H233171   8.951   4.380   1.578
10977WAT      O33172   4.042   5.891   8.328
10977WAT     H133173   3.958   5.936   8.359
10977WAT     H233174   4.103   5.959   8.286
10978WAT      O33175   4.894   6.009   2.676
10978WAT     H133176   4.850   6.077   2.618
10978WAT     H233177   4.992   6.009   2.659
10979WAT      O33178   1.281   8.775   6.859
10979WAT     H133179   1.237   8.850   6.810
10979WAT     H233180   1.379   8.794   6.869
10980WAT      O33181   0.454   8.028   9.872
10980WAT     H133182   0.363   7.987   9.862
10980WAT     H233183   0.445   8.123   9.899
10981WAT      O33184   7.022   5.817   7.599
10981WAT     H133185   7.076   5.799   7.681
10981WAT     H233186   7.045   5.909   7.565
10982WAT      O33187   2.071   7.989   6.960
10982WAT     H133188   2.006   7.945   7.023
10982WAT     H233189   2.159   7.942   6.965
10983WAT      O33190   2.752   7.819   4.173
10983WAT     H133191   2.742   7.721   4.191
10983WAT     H233192   2.722   7.871   4.253
10984WAT      O33193   6.843   9.717   9.733
10984WAT     H133194   6.763   9.662   9.759
10984WAT     H233195   6.879   9.684   9.646
10985WAT      O33196   9.288   0.376   5.635
10985WAT     H133197   9.330   0.290   5.606
10985WAT     H233198   9.337   0.452   5.595
10986WAT      O33199   5.597   3.008   3.199
10986WAT     H133200   5.565   3.068   3.273
10986WAT     H233201   5.525   2.943   3.176
10987WAT      O33202   8.852   6.873   4.726
10987WAT     H133203   8.839   6.951   4.787
10987WAT     H233204   8.858   6.905   4.632
10988WAT      O33205   8.367   0.626   5.785
10988WAT     H133206   8.357   0.724   5.804
10988WAT     H233207   8.277   0.587   5.764
10989WAT      O33208   3.838   1.522   7.203
10989WAT     H133209   3.882   1.507   7.114
10989WAT     H233210   3.776   1.446   7.222
10990WAT      O33211   4.269   4.335   7.136
10990WAT     H133212   4.188   4.374   7.092
10990WAT     H233213   4.241   4.274   7.210
10991WAT      O33214   6.728   8.733   5.295
10991WAT     H133215   6.767   8.664   5.356
10991WAT     H233216   6.790   8.811   5.288
10992WAT      O33217   2.147   6.113   6.779
10992WAT     H133218   2.064   6.131   6.832
10992WAT     H233219   2.131   6.034   6.719
10993WAT      O33220   9.635   7.304   0.322
10993WAT     H133221   9.544   7.295   0.283
10993WAT     H233222   9.697   7.240   0.275
10994WAT      O33223   7.377   9.269   3.264
10994WAT     H133224   7.455   9.296   3.321
10994WAT     H233225   7.317   9.209   3.316
10995WAT      O33226   2.612   7.116   7.533
10995WAT     H133227   2.639   7.030   7.490
10995WAT     H233228   2.568   7.175   7.465
10996WAT      O33229   9.436   4.972   5.059
10996WAT     H133230   9.399   5.053   5.104
10996WAT     H233231   9.369   4.936   4.994
10997WAT      O33232   3.955   4.601   6.072
10997WAT     H133233   4.027   4.629   6.135
10997WAT     H233234   3.990   4.601   5.978
10998WAT      O33235   5.762   7.827   6.751
10998WAT     H133236   5.785   7.889   6.826
10998WAT     H233237   5.718   7.745   6.787
10999WAT      O33238   0.582   7.347   5.902
10999WAT     H133239   0.667   7.398   5.887
10999WAT     H233240   0.573   7.325   5.999
11000WAT      O33241   8.230   9.804   7.406
11000WAT     H133242   8.242   9.792   7.307
11000WAT     H233243   8.241   9.717   7.452
11001WAT      O33244   9.539   0.029   6.588
11001WAT     H133245   9.525   0.104   6.653
11001WAT     H233246   9.550  -0.057   6.639
11002WAT      O33247   9.181   9.536   8.650
11002WAT     H133248   9.168   9.443   8.616
11002WAT     H233249   9.205   9.596   8.574
11003WAT      O33250   8.349   7.034   1.255
11003WAT     H133251   8.441   7.066   1.275
11003WAT     H233252   8.338   6.941   1.290
11004WAT      O33253   0.789   6.642   1.811
11004WAT     H133254   0.880   6.635   1.852
11004WAT     H233255   0.760   6.737   1.810
11005WAT      O33256   8.772   2.375   0.707
11005WAT     H133257   8.720   2.293   0.731
11005WAT     H233258   8.721   2.456   0.735
11006WAT      O33259   2.219   2.749   6.018
11006WAT     H133260   2.295   2.758   6.083
11006WAT     H233261   2.167   2.666   6.040
11007WAT      O33262   7.951   1.709   3.209
11007WAT     H133263   7.902   1.743   3.290
11007WAT     H233264   7.944   1.609   3.206
11008WAT      O33265   2.644   4.826   2.616
11008WAT     H133266   2.678   4.809   2.523
11008WAT     H233267   2.722   4.844   2.677
11009WAT      O33268   6.339   8.738   6.673
11009WAT     H133269   6.384   8.827   6.681
11009WAT     H233270   6.389   8.681   6.607
11010WAT      O33271   3.499   5.364   4.523
11010WAT     H133272   3.580   5.400   4.477
11010WAT     H233273   3.520   5.274   4.562
11011WAT      O33274   3.027   8.270   5.494
11011WAT     H133275   3.058   8.210   5.568
11011WAT     H233276   2.962   8.336   5.529
11012WAT      O33277   1.255   4.924   4.905
11012WAT     H133278   1.320   4.994   4.877
11012WAT     H233279   1.165   4.945   4.867
11013WAT      O33280   0.988   7.009   1.784
11013WAT     H133281   0.969   6.962   1.697
11013WAT     H233282   0.949   7.101   1.781
11014WAT      O33283   7.015   9.076   7.610
11014WAT     H133284   7.008   9.069   7.510
11014WAT     H233285   7.007   8.985   7.650
11015WAT      O33286   5.608   8.270   4.351
11015WAT     H133287   5.511   8.247   4.357
11015WAT     H233288   5.662   8.195   4.389
11016WAT      O33289   0.375   9.750   5.798
11016WAT     H133290   0.332   9.669   5.758
11016WAT     H233291   0.469   9.758   5.765
11017WAT      O33292   9.584   9.262   7.222
11017WAT     H133293   9.625   9.180   7.260
11017WAT     H233294   9.503   9.287   7.276
11018WAT      O33295   8.905   0.889   0.659
11018WAT     H133296   8.939   0.870   0.567
11018WAT     H233297   8.925   0.812   0.719
11019WAT      O33298   3.775   4.438   0.949
11019WAT     H133299   3.795   4.432   1.047
11019WAT     H233300   3.703   4.506   0.934
11020WAT      O33301   0.527   4.346   3.430
11020WAT     H133302   0.608   4.289   3.440
11020WAT     H233303   0.450   4.290   3.402
11021WAT      O33304   7.547   9.088   3.952
11021WAT     H133305   7.547   9.017   4.022
11021WAT     H233306   7.502   9.170   3.986
11022WAT      O33307   4.598   5.939   4.172
11022WAT     H133308   4.542   5.914   4.251
11022WAT     H233309   4.619   6.037   4.175
11023WAT      O33310   1.461   1.636   7.508
11023WAT     H133311   1.521   1.635   7.588
11023WAT     H233312   1.507   1.592   7.431
11024WAT      O33313   2.693   3.699   6.626
11024WAT     H133314   2.702   3.793   6.592
11024WAT     H233315   2.596   3.673   6.625
11025WAT      O33316   5.414   8.113   1.259
11025WAT     H133317   5.351   8.047   1.219
11025WAT     H233318   5.367   8.164   1.332
11026WAT      O33319   9.800   9.696   2.665
11026WAT     H133320   9.827   9.715   2.571
11026WAT     H233321   9.722   9.754   2.690
11027WAT      O33322   7.232   8.114   2.344
11027WAT     H133323   7.331   8.114   2.352
11027WAT     H233324   7.204   8.072   2.258
11028WAT      O33325   1.353   4.829   8.829
11028WAT     H133326   1.414   4.833   8.750
11028WAT     H233327   1.284   4.759   8.814
11029WAT      O33328   5.729   8.708   7.292
11029WAT     H133329   5.721   8.627   7.234
11029WAT     H233330   5.771   8.682   7.379
11030WAT      O33331   2.623   1.684   3.429
11030WAT     H133332   2.536   1.730   3.446
11030WAT     H233333   2.622   1.647   3.336
11031WAT      O33334   8.713   1.177   5.474
11031WAT     H133335   8.704   1.277   5.475
11031WAT     H233336   8.654   1.139   5.403
11032WAT      O33337   4.327   4.982   2.929
11032WAT     H133338   4.348   5.015   2.837
11032WAT     H233339   4.409   4.944   2.970
11033WAT      O33340   9.740   3.774   4.889
11033WAT     H133341   9.707   3.817   4.805
11033WAT     H233342   9.694   3.686   4.901
11034WAT      O33343   5.165   2.668   7.811
11034WAT     H133344   5.235   2.727   7.770
11034WAT     H233345   5.198   2.573   7.812
11035WAT      O33346   4.090   7.144   1.849
11035WAT     H133347   3.999   7.151   1.890
11035WAT     H233348   4.135   7.233   1.852
11036WAT      O33349   8.312   1.249   7.062
11036WAT     H133350   8.289   1.287   7.151
11036WAT     H233351   8.242   1.183   7.035
11037WAT      O33352   1.548   9.204   0.539
11037WAT     H133353   1.485   9.152   0.481
11037WAT     H233354   1.569   9.292   0.495
11038WAT      O33355   8.169   4.352   0.218
11038WAT     H133356   8.079   4.326   0.255
11038WAT     H233357   8.157   4.416   0.142
11039WAT      O33358   2.001   6.775   1.148
11039WAT     H133359   2.069   6.706   1.173
11039WAT     H233360   1.953   6.805   1.231
11040WAT      O33361   2.716   6.885   3.947
11040WAT     H133362   2.678   6.793   3.938
11040WAT     H233363   2.796   6.882   4.007
11041WAT      O33364   2.706   6.401   3.643
11041WAT     H133365   2.803   6.413   3.623
11041WAT     H233366   2.672   6.320   3.595
11042WAT      O33367   4.432   0.415   1.259
11042WAT     H133368   4.362   0.447   1.194
11042WAT     H233369   4.522   0.445   1.228
11043WAT      O33370   1.766   3.357   1.836
11043WAT     H133371   1.743   3.276   1.890
11043WAT     H233372   1.729   3.347   1.744
11044WAT      O33373   4.153   9.079   5.952
11044WAT     H133374   4.175   9.161   5.898
11044WAT     H233375   4.129   9.004   5.891
11045WAT      O33376   8.047   7.014   1.130
11045WAT     H133377   8.046   7.098   1.184
11045WAT     H233378   8.108   7.025   1.052
11046WAT      O33379   0.419   4.984   6.710
11046WAT     H133380   0.330   4.962   6.749
11046WAT     H233381   0.431   4.934   6.624
11047WAT      O33382   2.453   3.603   6.686
11047WAT     H133383   2.478   3.510   6.658
11047WAT     H233384   2.457   3.610   6.785
11048WAT      O33385   3.569   4.578   7.323
11048WAT     H133386   3.480   4.571   7.368
11048WAT     H233387   3.597   4.674   7.319
11049WAT      O33388   4.834   6.043   8.607
11049WAT     H133389   4.784   5.977   8.550
11049WAT     H233390   4.788   6.131   8.605
11050WAT      O33391   4.288   4.167   5.553
11050WAT     H133392   4.347   4.170   5.472
11050WAT     H233393   4.313   4.242   5.615
11051WAT      O33394   3.441   2.178   8.623
11051WAT     H133395   3.342   2.181   8.607
11051WAT     H233396   3.462   2.223   8.710
11052WAT      O33397   4.662   9.327   2.860
11052WAT     H133398   4.638   9.324   2.957
11052WAT     H233399   4.595   9.382   2.811
11053WAT      O33400   9.560   5.255   8.637
11053WAT     H133401   9.615   5.189   8.586
11053WAT     H233402   9.508   5.208   8.708
11054WAT      O33403   6.410   5.916   0.973
11054WAT     H133404   6.312   5.935   0.975
11054WAT     H233405   6.456   5.985   0.916
11055WAT      O33406   4.409   1.608   9.090
11055WAT     H133407   4.375   1.688   9.042
11055WAT     H233408   4.500   1.628   9.128
11056WAT      O33409   4.665   1.806   0.830
11056WAT     H133410   4.590   1.842   0.886
11056WAT     H233411   4.726   1.752   0.887
11057WAT      O33412   6.572   8.703   4.361
11057WAT     H133413   6.669   8.702   4.385
11057WAT     H233414   6.562   8.685   4.263
11058WAT      O33415   1.421   3.467   3.462
11058WAT     H133416   1.362   3.512   3.529
11058WAT     H233417   1.384   3.376   3.442
11059WAT      O33418   8.565   9.800   3.811
11059WAT     H133419   8.563   9.894   3.780
11059WAT     H233420   8.535   9.795   3.906
11060WAT      O33421   6.547   9.660   1.054
11060WAT     H133422   6.583   9.750   1.028
11060WAT     H233423   6.572   9.640   1.149
11061WAT      O33424   2.277   6.042   7.188
11061WAT     H133425   2.194   5.986   7.191
11061WAT     H233426   2.357   5.983   7.189
11062WAT      O33427   2.444   6.935   5.008
11062WAT     H133428   2.516   7.004   5.011
11062WAT     H233429   2.354   6.981   5.007
11063WAT      O33430   4.761   7.603   8.195
11063WAT     H133431   4.675   7.613   8.245
11063WAT     H233432   4.771   7.507   8.167
11064WAT      O33433   0.010   6.199   0.057
11064WAT     H133434   0.048   6.193  -0.035
11064WAT     H233435   0.083   6.183   0.124
11065WAT      O33436   4.314   3.425   0.367
11065WAT     H133437   4.275   3.471   0.287
11065WAT     H233438   4.359   3.492   0.426
11066WAT      O33439   3.742   7.663   9.767
11066WAT     H133440   3.650   7.664   9.728
11066WAT     H233441   3.789   7.580   9.740
11067WAT      O33442   9.773   1.367   6.263
11067WAT     H133443   9.777   1.374   6.164
11067WAT     H233444   9.682   1.334   6.290
11068WAT      O33445   0.490   0.488   9.555
11068WAT     H133446   0.528   0.489   9.648
11068WAT     H233447   0.526   0.566   9.504
11069WAT      O33448   5.664   7.102   4.810
11069WAT     H133449   5.692   7.184   4.861
11069WAT     H233450   5.582   7.122   4.757
11070WAT      O33451   0.161   0.035   1.434
11070WAT     H133452   0.071  -0.004   1.412
11070WAT     H233453   0.232  -0.033   1.416
11071WAT      O33454   1.883   0.608   2.708
11071WAT     H133455   1.794   0.642   2.739
11071WAT     H233456   1.914   0.535   2.768
11072WAT      O33457   0.313   1.092   6.739
11072WAT     H133458   0.329   1.162   6.668
11072WAT     H233459   0.393   1.085   6.798
11073WAT      O33460   0.081   6.583   5.943
11073WAT     H133461   0.144   6.660   5.949
11073WAT     H233462  -0.008   6.616   5.912
11074WAT      O33463   2.639   6.615   3.421
11074WAT     H133464   2.613   6.564   3.340
11074WAT     H233465   2.650   6.552   3.498
11075WAT      O33466   5.965   2.066   1.551
11075WAT     H133467   5.902   2.114   1.612
11075WAT     H233468   6.056   2.106   1.558
11076WAT      O33469   5.892   1.472   9.813
11076WAT     H133470   5.919   1.393   9.867
11076WAT     H233471   5.793   1.469   9.795
11077WAT      O33472   7.044   8.601   1.762
11077WAT     H133473   7.016   8.690   1.727
11077WAT     H233474   7.113   8.613   1.833
11078WAT      O33475   4.967   1.739   8.164
11078WAT     H133476   4.928   1.810   8.106
11078WAT     H233477   5.006   1.781   8.246
11079WAT      O33478   6.680   0.110   3.627
11079WAT     H133479   6.763   0.082   3.578
11079WAT     H233480   6.616   0.033   3.632
11080WAT      O33481   9.839   8.975   2.043
11080WAT     H133482   9.863   9.071   2.056
11080WAT     H233483   9.922   8.922   2.025
11081WAT      O33484   6.275   5.057   9.044
11081WAT     H133485   6.183   5.091   9.062
11081WAT     H233486   6.316   5.107   8.968
11082WAT      O33487   8.232   3.069   2.384
11082WAT     H133488   8.171   3.052   2.307
11082WAT     H233489   8.183   3.118   2.456
11083WAT      O33490   2.757   8.095   5.690
11083WAT     H133491   2.707   8.124   5.772
11083WAT     H233492   2.697   8.102   5.610
11084WAT      O33493   7.655   0.033   7.163
11084WAT     H133494   7.572   0.075   7.126
11084WAT     H233495   7.643  -0.066   7.166
11085WAT      O33496   4.213   6.153   3.024
11085WAT     H133497   4.262   6.239   3.029
11085WAT     H233498   4.114   6.170   3.025
11086WAT      O33499   0.357   2.470   7.332
11086WAT     H133500   0.351   2.543   7.264
11086WAT     H233501   0.392   2.507   7.418
11087WAT      O33502   2.382   1.971   9.563
11087WAT     H133503   2.311   1.976   9.633
11087WAT     H233504   2.349   1.920   9.484
11088WAT      O33505   7.684   4.282   7.454
11088WAT     H133506   7.724   4.358   7.403
11088WAT     H233507   7.753   4.244   7.516
11089WAT      O33508   8.644   5.075   6.356
11089WAT     H133509   8.589   4.991   6.357
11089WAT     H233510   8.611   5.138   6.425
11090WAT      O33511   2.478   7.034   3.645
11090WAT     H133512   2.488   7.104   3.716
11090WAT     H233513   2.553   6.968   3.652
11091WAT      O33514   3.553   0.929   4.137
11091WAT     H133515   3.643   0.891   4.160
11091WAT     H233516   3.557   0.971   4.046
11092WAT      O33517   1.359   3.894   4.579
11092WAT     H133518   1.304   3.970   4.543
11092WAT     H233519   1.321   3.866   4.667
11093WAT      O33520   3.414   1.008   8.208
11093WAT     H133521   3.388   1.105   8.205
11093WAT     H233522   3.384   0.969   8.295
11094WAT      O33523   5.235   5.829   3.457
11094WAT     H133524   5.165   5.855   3.390
11094WAT     H233525   5.229   5.731   3.475
11095WAT      O33526   0.391   5.115   5.226
11095WAT     H133527   0.397   5.174   5.145
11095WAT     H233528   0.316   5.050   5.213
11096WAT      O33529   7.154   2.706   2.726
11096WAT     H133530   7.080   2.732   2.664
11096WAT     H233531   7.236   2.759   2.703
11097WAT      O33532   8.268   6.923   4.255
11097WAT     H133533   8.329   6.847   4.275
11097WAT     H233534   8.174   6.889   4.249
11098WAT      O33535   1.336   1.571   8.507
11098WAT     H133536   1.411   1.536   8.563
11098WAT     H233537   1.250   1.532   8.541
11099WAT      O33538   6.349   0.841   8.637
11099WAT     H133539   6.257   0.858   8.672
11099WAT     H233540   6.344   0.793   8.550
11100WAT      O33541   2.575   0.821   3.466
11100WAT     H133542   2.487   0.860   3.492
11100WAT     H233543   2.575   0.722   3.485
11101WAT      O33544   9.757   2.373   7.549
11101WAT     H133545   9.715   2.378   7.640
11101WAT     H233546   9.838   2.432   7.546
11102WAT      O33547   6.069   5.726   8.938
11102WAT     H133548   6.056   5.628   8.954
11102WAT     H233549   6.166   5.746   8.932
11103WAT      O33550   3.302   2.851   1.322
11103WAT     H133551   3.263   2.914   1.389
11103WAT     H233552   3.269   2.875   1.231
11104WAT      O33553   4.497   8.092   2.268
11104WAT     H133554   4.502   8.185   2.306
11104WAT     H233555   4.407   8.078   2.226
11105WAT      O33556   3.786   2.186   5.387
11105WAT     H133557   3.861   2.232   5.338
11105WAT     H233558   3.823   2.109   5.438
11106WAT      O33559   9.831   1.071   7.555
11106WAT     H133560   9.848   0.993   7.615
11106WAT     H233561   9.860   1.155   7.600
11107WAT      O33562   1.947   6.825   9.652
11107WAT     H133563   1.991   6.735   9.650
11107WAT     H233564   1.887   6.830   9.732
11108WAT      O33565   5.797   4.110   9.822
11108WAT     H133566   5.793   4.044   9.898
11108WAT     H233567   5.878   4.091   9.766
11109WAT      O33568   0.057   6.938   9.293
11109WAT     H133569  -0.011   6.981   9.352
11109WAT     H233570   0.128   6.896   9.349
11110WAT      O33571   7.401   2.388   5.890
11110WAT     H133572   7.379   2.480   5.925
11110WAT     H233573   7.448   2.397   5.802
11111WAT      O33574   7.485   6.775   9.795
11111WAT     H133575   7.447   6.683   9.795
11111WAT     H233576   7.523   6.796   9.705
11112WAT      O33577   1.823   4.587   3.234
11112WAT     H133578   1.904   4.546   3.192
11112WAT     H233579   1.784   4.522   3.300
11113WAT      O33580   9.529   5.496   8.814
11113WAT     H133581   9.555   5.525   8.906
11113WAT     H233582   9.588   5.421   8.785
11114WAT      O33583   3.342   9.714   3.252
11114WAT     H133584   3.280   9.719   3.331
11114WAT     H233585   3.425   9.766   3.272
11115WAT      O33586   4.879   1.616   5.959
11115WAT     H133587   4.874   1.516   5.961
11115WAT     H233588   4.831   1.649   5.877
11116WAT      O33589   9.021   5.244   0.612
11116WAT     H133590   9.095   5.211   0.553
11116WAT     H233591   9.054   5.247   0.707
11117WAT      O33592   9.298   6.161   8.679
11117WAT     H133593   9.315   6.200   8.770
11117WAT     H233594   9.207   6.187   8.648
11118WAT      O33595   4.654   0.824   1.473
11118WAT     H133596   4.709   0.774   1.406
11118WAT     H233597   4.708   0.840   1.556
11119WAT      O33598   0.073   8.072   6.718
11119WAT     H133599   0.094   8.070   6.816
11119WAT     H233600   0.158   8.071   6.666
11120WAT      O33601   3.886   4.806   1.551
11120WAT     H133602   3.868   4.713   1.522
11120WAT     H233603   3.985   4.819   1.563
11121WAT      O33604   7.615   7.607   5.163
11121WAT     H133605   7.673   7.576   5.087
11121WAT     H233606   7.519   7.606   5.135
11122WAT      O33607   7.843   4.699   8.177
11122WAT     H133608   7.816   4.626   8.240
11122WAT     H233609   7.855   4.784   8.229
11123WAT      O33610   7.405   3.894   8.953
11123WAT     H133611   7.307   3.873   8.948
11123WAT     H233612   7.457   3.820   8.912
11124WAT      O33613   3.302   1.134   4.908
11124WAT     H133614   3.229   1.178   4.960
11124WAT     H233615   3.266   1.052   4.864
11125WAT      O33616   9.686   6.332   9.836
11125WAT     H133617   9.683   6.261   9.766
11125WAT     H233618   9.759   6.311   9.902
11126WAT      O33619   3.929   9.420   8.844
11126WAT     H133620   3.995   9.453   8.776
11126WAT     H233621   3.978   9.392   8.927
11127WAT      O33622   7.701   7.117   4.822
11127WAT     H133623   7.706   7.216   4.835
11127WAT     H233624   7.619   7.081   4.865
11128WAT      O33625   6.059   1.320   9.354
11128WAT     H133626   5.964   1.321   9.321
11128WAT     H233627   6.059   1.334   9.453
11129WAT      O33628   2.987   3.142   1.694
11129WAT     H133629   3.066   3.111   1.747
11129WAT     H233630   2.932   3.204   1.750
11130WAT      O33631   1.705   6.409   9.683
11130WAT     H133632   1.654   6.478   9.631
11130WAT     H233633   1.802   6.432   9.685
11131WAT      O33634   6.028   1.327   4.181
11131WAT     H133635   6.076   1.410   4.152
11131WAT     H233636   6.009   1.270   4.101
11132WAT      O33637   7.148   4.300   5.255
11132WAT     H133638   7.078   4.254   5.309
11132WAT     H233639   7.158   4.255   5.166
11133WAT      O33640   6.182   1.619   6.809
11133WAT     H133641   6.263   1.677   6.813
11133WAT     H233642   6.100   1.675   6.812
11134WAT      O33643   7.787   2.860   6.779
11134WAT     H133644   7.865   2.799   6.767
11134WAT     H233645   7.722   2.820   6.844
11135WAT      O33646   4.838   7.412   0.884
11135WAT     H133647   4.904   7.486   0.901
11135WAT     H233648   4.748   7.452   0.867
11136WAT      O33649   4.793   5.515   4.751
11136WAT     H133650   4.709   5.513   4.697
11136WAT     H233651   4.796   5.600   4.804
11137WAT      O33652   9.498   6.690   9.766
11137WAT     H133653   9.587   6.730   9.789
11137WAT     H233654   9.507   6.632   9.685
11138WAT      O33655   8.570   8.385   3.421
11138WAT     H133656   8.540   8.449   3.492
11138WAT     H233657   8.511   8.393   3.341
11139WAT      O33658   8.715   5.514   8.084
11139WAT     H133659   8.628   5.535   8.040
11139WAT     H233660   8.701   5.506   8.183
11140WAT      O33661   5.626   1.185   9.614
11140WAT     H133662   5.611   1.274   9.656
11140WAT     H233663   5.604   1.190   9.516
11141WAT      O33664   1.481   8.539   8.936
11141WAT     H133665   1.570   8.573   8.966
11141WAT     H233666   1.469   8.560   8.838
11142WAT      O33667   3.555   1.178   7.774
11142WAT     H133668   3.584   1.134   7.859
11142WAT     H233669   3.478   1.127   7.734
11143WAT      O33670   9.168   4.129   4.371
11143WAT     H133671   9.175   4.228   4.383
11143WAT     H233672   9.244   4.085   4.417
11144WAT      O33673   1.805   1.881   0.074
11144WAT     H133674   1.842   1.850   0.162
11144WAT     H233675   1.847   1.967   0.048
11145WAT      O33676   3.513   1.785   7.128
11145WAT     H133677   3.439   1.765   7.193
11145WAT     H233678   3.601   1.779   7.175
11146WAT      O33679   4.939   1.249   4.255
11146WAT     H133680   4.993   1.215   4.178
11146WAT     H233681   4.940   1.349   4.254
11147WAT      O33682   1.950   6.018   9.533
11147WAT     H133683   1.866   6.057   9.570
11147WAT     H233684   1.985   5.948   9.596
11148WAT      O33685   1.257   3.775   0.291
11148WAT     H133686   1.289   3.696   0.342
11148WAT     H233687   1.228   3.846   0.354
11149WAT      O33688   9.795   3.631   3.982
11149WAT     H133689   9.882   3.588   4.004
11149WAT     H233690   9.791   3.650   3.884
11150WAT      O33691   2.127   4.431   5.815
11150WAT     H133692   2.162   4.523   5.832
11150WAT     H233693   2.060   4.434   5.741
11151WAT      O33694   9.040   0.253   5.151
11151WAT     H133695   9.136   0.283   5.154
11151WAT     H233696   9.023   0.191   5.228
11152WAT      O33697   5.003   1.733   5.520
11152WAT     H133698   4.952   1.649   5.500
11152WAT     H233699   4.940   1.811   5.522
11153WAT      O33700   6.750   5.490   4.592
11153WAT     H133701   6.651   5.493   4.587
11153WAT     H233702   6.779   5.425   4.662
11154WAT      O33703   3.055   6.549   6.035
11154WAT     H133704   3.129   6.487   6.062
11154WAT     H233705   3.010   6.514   5.953
11155WAT      O33706   2.746   4.764   9.167
11155WAT     H133707   2.779   4.733   9.256
11155WAT     H233708   2.776   4.858   9.151
11156WAT      O33709   4.385   0.803   2.718
11156WAT     H133710   4.304   0.783   2.772
11156WAT     H233711   4.443   0.868   2.768
11157WAT      O33712   5.152   1.476   8.025
11157WAT     H133713   5.212   1.454   7.947
11157WAT     H233714   5.061   1.499   7.991
11158WAT      O33715   7.235   5.691   0.516
11158WAT     H133716   7.274   5.613   0.564
11158WAT     H233717   7.143   5.709   0.551
11159WAT      O33718   9.754   6.976   4.596
11159WAT     H133719   9.804   7.062   4.588
11159WAT     H233720   9.710   6.972   4.686
11160WAT      O33721   8.949   9.716   4.282
11160WAT     H133722   8.920   9.625   4.310
11160WAT     H233723   9.018   9.750   4.346
11161WAT      O33724   7.379   6.192   3.639
11161WAT     H133725   7.416   6.278   3.605
11161WAT     H233726   7.386   6.122   3.567
11162WAT      O33727   6.502   1.633   3.298
11162WAT     H133728   6.532   1.646   3.393
11162WAT     H233729   6.422   1.573   3.296
11163WAT      O33730   0.081   1.085   0.170
11163WAT     H133731  -0.017   1.101   0.177
11163WAT     H233732   0.126   1.108   0.256
11164WAT      O33733   3.747   1.488   2.488
11164WAT     H133734   3.804   1.413   2.454
11164WAT     H233735   3.792   1.575   2.470
11165WAT      O33736   4.938   2.622   5.705
11165WAT     H133737   5.025   2.629   5.657
11165WAT     H233738   4.936   2.689   5.780
11166WAT      O33739   2.094   4.631   2.947
11166WAT     H133740   2.019   4.568   2.928
11166WAT     H233741   2.093   4.706   2.880
11167WAT      O33742   8.999   7.948   0.591
11167WAT     H133743   9.095   7.937   0.617
11167WAT     H233744   8.951   7.861   0.603
11168WAT      O33745   5.802   0.788   7.934
11168WAT     H133746   5.791   0.884   7.910
11168WAT     H233747   5.896   0.759   7.918
11169WAT      O33748   1.031   2.245   8.001
11169WAT     H133749   1.008   2.172   8.065
11169WAT     H233750   1.130   2.250   7.990
11170WAT      O33751   7.520   5.788   3.813
11170WAT     H133752   7.570   5.849   3.753
11170WAT     H233753   7.432   5.828   3.837
11171WAT      O33754   7.153   9.400   6.109
11171WAT     H133755   7.197   9.480   6.069
11171WAT     H233756   7.195   9.380   6.198
11172WAT      O33757   7.155   9.386   1.988
11172WAT     H133758   7.157   9.384   1.888
11172WAT     H233759   7.244   9.354   2.023
11173WAT      O33760   0.327   4.874   7.523
11173WAT     H133761   0.305   4.942   7.593
11173WAT     H233762   0.261   4.799   7.529
11174WAT      O33763   4.689   3.285   0.296
11174WAT     H133764   4.767   3.279   0.233
11174WAT     H233765   4.682   3.199   0.346
11175WAT      O33766   1.499   2.018   1.756
11175WAT     H133767   1.534   1.970   1.837
11175WAT     H233768   1.519   2.115   1.763
11176WAT      O33769   7.575   9.400   7.615
11176WAT     H133770   7.490   9.373   7.569
11176WAT     H233771   7.598   9.332   7.684
11177WAT      O33772   4.067   4.318   4.294
11177WAT     H133773   4.058   4.243   4.359
11177WAT     H233774   4.149   4.305   4.238
11178WAT      O33775   4.165   8.810   8.870
11178WAT     H133776   4.127   8.732   8.821
11178WAT     H233777   4.108   8.891   8.855
11179WAT      O33778   0.843   8.375   7.881
11179WAT     H133779   0.833   8.289   7.830
11179WAT     H233780   0.850   8.356   7.979
11180WAT      O33781   4.008   2.989   9.811
11180WAT     H133782   4.090   3.044   9.804
11180WAT     H233783   3.970   2.996   9.903
11181WAT      O33784   2.040   5.575   1.067
11181WAT     H133785   1.950   5.616   1.049
11181WAT     H233786   2.111   5.645   1.057
11182WAT      O33787   4.845   8.048   5.356
11182WAT     H133788   4.772   8.116   5.353
11182WAT     H233789   4.928   8.089   5.393
11183WAT      O33790   9.044   1.146   5.966
11183WAT     H133791   9.041   1.112   6.060
11183WAT     H233792   9.026   1.070   5.903
11184WAT      O33793   2.324   6.885   2.833
11184WAT     H133794   2.365   6.976   2.833
11184WAT     H233795   2.392   6.817   2.859
11185WAT      O33796   6.307   3.593   7.934
11185WAT     H133797   6.250   3.596   8.016
11185WAT     H233798   6.317   3.498   7.904
11186WAT      O33799   9.443   6.329   6.701
11186WAT     H133800   9.517   6.329   6.769
11186WAT     H233801   9.458   6.403   6.635
11187WAT      O33802   0.873   5.455   5.524
11187WAT     H133803   0.819   5.538   5.505
11187WAT     H233804   0.953   5.453   5.465
11188WAT      O33805   5.114   1.067   3.589
11188WAT     H133806   5.113   1.076   3.489
11188WAT     H233807   5.062   1.142   3.630
11189WAT      O33808   8.212   5.122   7.101
11189WAT     H133809   8.241   5.063   7.176
11189WAT     H233810   8.286   5.187   7.080
11190WAT      O33811   5.202   9.240   7.697
11190WAT     H133812   5.231   9.144   7.701
11190WAT     H233813   5.236   9.281   7.612
11191WAT      O33814   7.555   6.610   5.312
11191WAT     H133815   7.523   6.515   5.312
11191WAT     H233816   7.477   6.671   5.297
11192WAT      O33817   8.689   2.211   5.435
11192WAT     H133818   8.600   2.216   5.482
11192WAT     H233819   8.735   2.300   5.442
11193WAT      O33820   3.846   2.150   0.416
11193WAT     H133821   3.872   2.246   0.413
11193WAT     H233822   3.864   2.113   0.508
11194WAT      O33823   4.652   0.630   7.965
11194WAT     H133824   4.731   0.683   7.935
11194WAT     H233825   4.574   0.652   7.908
11195WAT      O33826   7.379   0.106   3.427
11195WAT     H133827   7.313   0.173   3.462
11195WAT     H233828   7.338   0.015   3.429
11196WAT      O33829   6.274   8.884   1.994
11196WAT     H133830   6.213   8.937   2.053
11196WAT     H233831   6.364   8.879   2.037
11197WAT      O33832   4.667   6.256   3.071
11197WAT     H133833   4.687   6.249   3.169
11197WAT     H233834   4.704   6.342   3.035
11198WAT      O33835   7.746   7.636   9.254
11198WAT     H133836   7.789   7.722   9.226
11198WAT     H233837   7.734   7.636   9.353
11199WAT      O33838   2.892   0.109   5.712
11199WAT     H133839   2.848   0.192   5.747
11199WAT     H233840   2.964   0.080   5.775
11200WAT      O33841   1.395   2.171   2.765
11200WAT     H133842   1.392   2.195   2.862
11200WAT     H233843   1.357   2.247   2.711
11201WAT      O33844   4.637   3.272   1.926
11201WAT     H133845   4.723   3.322   1.909
11201WAT     H233846   4.594   3.308   2.008
11202WAT      O33847   7.168   9.530   0.347
11202WAT     H133848   7.162   9.616   0.296
11202WAT     H233849   7.248   9.478   0.316
11203WAT      O33850   5.310   6.567   8.156
11203WAT     H133851   5.334   6.534   8.064
11203WAT     H233852   5.213   6.550   8.173
11204WAT      O33853   1.586   6.789   8.714
11204WAT     H133854   1.663   6.800   8.650
11204WAT     H233855   1.555   6.694   8.713
11205WAT      O33856   8.377   4.114   8.635
11205WAT     H133857   8.358   4.204   8.674
11205WAT     H233858   8.474   4.109   8.610
11206WAT      O33859   5.605   9.131   1.794
11206WAT     H133860   5.611   9.076   1.877
11206WAT     H233861   5.535   9.202   1.805
11207WAT      O33862   1.281   2.988   6.609
11207WAT     H133863   1.336   2.964   6.689
11207WAT     H233864   1.219   2.912   6.587
11208WAT      O33865   0.557   6.640   2.719
11208WAT     H133866   0.617   6.719   2.708
11208WAT     H233867   0.467   6.669   2.751
11209WAT      O33868   9.129   5.595   8.115
11209WAT     H133869   9.054   5.639   8.065
11209WAT     H233870   9.110   5.600   8.214
11210WAT      O33871   8.141   3.121   9.443
11210WAT     H133872   8.108   3.186   9.511
11210WAT     H233873   8.071   3.053   9.424
11211WAT      O33874   5.092   7.551   2.900
11211WAT     H133875   5.000   7.511   2.908
11211WAT     H233876   5.084   7.650   2.895
11212WAT      O33877   7.410   8.008   1.401
11212WAT     H133878   7.401   7.912   1.373
11212WAT     H233879   7.502   8.023   1.438
11213WAT      O33880   4.390   8.955   9.245
11213WAT     H133881   4.461   8.990   9.185
11213WAT     H233882   4.370   8.860   9.221
11214WAT      O33883   7.144   9.697   6.005
11214WAT     H133884   7.045   9.694   5.994
11214WAT     H233885   7.173   9.792   6.018
11215WAT      O33886   8.977   4.275   4.130
11215WAT     H133887   9.029   4.230   4.202
11215WAT     H233888   9.024   4.360   4.103
11216WAT      O33889   1.305   4.545   1.896
11216WAT     H133890   1.309   4.585   1.805
11216WAT     H233891   1.245   4.601   1.954
11217WAT      O33892   3.544   1.734   2.764
11217WAT     H133893   3.637   1.730   2.801
11217WAT     H233894   3.527   1.651   2.711
11218WAT      O33895   4.488   2.293   3.838
11218WAT     H133896   4.538   2.275   3.753
11218WAT     H233897   4.510   2.222   3.905
11219WAT      O33898   6.354   4.667   5.104
11219WAT     H133899   6.259   4.654   5.135
11219WAT     H233900   6.412   4.689   5.182
11220WAT      O33901   4.941   5.159   2.309
11220WAT     H133902   4.852   5.115   2.320
11220WAT     H233903   4.993   5.150   2.394
11221WAT      O33904   0.984   9.795   7.856
11221WAT     H133905   0.904   9.855   7.848
11221WAT     H233906   1.000   9.774   7.953
11222WAT      O33907   6.519   6.055   1.716
11222WAT     H133908   6.619   6.058   1.717
11222WAT     H233909   6.485   6.094   1.630
11223WAT      O33910   0.817   3.570   0.987
11223WAT     H133911   0.897   3.559   0.928
11223WAT     H233912   0.757   3.490   0.975
11224WAT      O33913   3.449   2.626   5.297
11224WAT     H133914   3.463   2.547   5.237
11224WAT     H233915   3.457   2.710   5.243
11225WAT      O33916   9.849   2.721   3.437
11225WAT     H133917   9.914   2.684   3.370
11225WAT     H233918   9.871   2.684   3.527
11226WAT      O33919   5.884   7.487   9.246
11226WAT     H133920   5.793   7.519   9.221
11226WAT     H233921   5.936   7.463   9.164
11227WAT      O33922   2.316   1.390   4.344
11227WAT     H133923   2.356   1.318   4.287
11227WAT     H233924   2.355   1.386   4.436
11228WAT      O33925   2.504   3.812   8.644
11228WAT     H133926   2.499   3.837   8.741
11228WAT     H233927   2.415   3.778   8.614
11229WAT      O33928   8.218   4.498   3.699
11229WAT     H133929   8.204   4.543   3.787
11229WAT     H233930   8.172   4.409   3.699
11230WAT      O33931   0.971   6.476   4.223
11230WAT     H133932   0.963   6.564   4.271
11230WAT     H233933   1.016   6.410   4.283
11231WAT      O33934   7.988   4.885   0.578
11231WAT     H133935   7.893   4.912   0.560
11231WAT     H233936   8.046   4.915   0.503
11232WAT      O33937   3.891   3.809   9.160
11232WAT     H133938   3.960   3.741   9.181
11232WAT     H233939   3.929   3.901   9.175
11233WAT      O33940   7.842   5.646   6.686
11233WAT     H133941   7.798   5.563   6.654
11233WAT     H233942   7.803   5.725   6.638
11234WAT      O33943   7.286   7.949   8.988
11234WAT     H133944   7.265   7.865   8.937
11234WAT     H233945   7.201   7.994   9.016
11235WAT      O33946   7.375   8.932   8.442
11235WAT     H133947   7.284   8.959   8.474
11235WAT     H233948   7.379   8.938   8.342
11236WAT      O33949   2.302   0.251   3.021
11236WAT     H133950   2.302   0.155   3.049
11236WAT     H233951   2.259   0.260   2.931
11237WAT      O33952   3.993   4.581   0.847
11237WAT     H133953   3.923   4.525   0.890
11237WAT     H233954   3.956   4.671   0.825
11238WAT      O33955   1.084   0.392   9.273
11238WAT     H133956   1.119   0.402   9.180
11238WAT     H233957   1.151   0.345   9.330
11239WAT      O33958   0.245   5.784   2.747
11239WAT     H133959   0.230   5.873   2.704
11239WAT     H233960   0.300   5.796   2.830
11240WAT      O33961   8.811   3.952   4.334
11240WAT     H133962   8.885   3.949   4.401
11240WAT     H233963   8.841   3.910   4.249
11241WAT      O33964   6.181   8.066   3.924
11241WAT     H133965   6.240   8.140   3.956
11241WAT     H233966   6.145   8.016   4.003
11242WAT      O33967   0.328   9.601   2.124
11242WAT     H133968   0.270   9.557   2.056
11242WAT     H233969   0.373   9.680   2.084
11243WAT      O33970   4.138   5.847   9.235
11243WAT     H133971   4.219   5.865   9.291
11243WAT     H233972   4.158   5.871   9.140
11244WAT      O33973   9.560   1.228   5.556
11244WAT     H133974   9.512   1.315   5.546
11244WAT     H233975   9.550   1.194   5.649
11245WAT      O33976   3.100   6.846   6.166
11245WAT     H133977   3.010   6.846   6.123
11245WAT     H233978   3.169   6.820   6.098
11246WAT      O33979   9.327   3.660   0.467
11246WAT     H133980   9.274   3.641   0.384
11246WAT     H233981   9.346   3.574   0.515
11247WAT      O33982   4.469   6.798   4.996
11247WAT     H133983   4.424   6.717   5.033
11247WAT     H233984   4.488   6.863   5.070
11248WAT      O33985   7.376   2.620   9.370
11248WAT     H133986   7.342   2.539   9.418
11248WAT     H233987   7.368   2.607   9.271
11249WAT      O33988   8.020   6.094   1.340
11249WAT     H133989   7.985   6.180   1.304
11249WAT     H233990   8.066   6.110   1.427
11250WAT      O33991   8.650   0.294   3.199
11250WAT     H133992   8.658   0.212   3.144
11250WAT     H233993   8.741   0.335   3.212
11251WAT      O33994   9.564   6.709   7.592
11251WAT     H133995   9.536   6.716   7.688
11251WAT     H233996   9.644   6.649   7.585
11252WAT      O33997   3.284   1.452   5.374
11252WAT     H133998   3.312   1.519   5.443
11252WAT     H233999   3.342   1.462   5.293
11253WAT      O34000   8.157   2.282   6.693
11253WAT     H134001   8.122   2.297   6.785
11253WAT     H234002   8.213   2.360   6.666
11254WAT      O34003   2.076   4.760   1.181
11254WAT     H134004   2.029   4.698   1.244
11254WAT     H234005   2.118   4.707   1.107
11255WAT      O34006   2.292   8.444   8.841
11255WAT     H134007   2.358   8.460   8.768
11255WAT     H234008   2.259   8.531   8.877
11256WAT      O34009   3.537   9.660   5.657
11256WAT     H134010   3.585   9.578   5.690
11256WAT     H234011   3.464   9.632   5.594
11257WAT      O34012   4.578   7.689   4.764
11257WAT     H134013   4.598   7.601   4.805
11257WAT     H234014   4.639   7.704   4.686
11258WAT      O34015   8.850   2.236   6.506
11258WAT     H134016   8.927   2.272   6.559
11258WAT     H234017   8.794   2.177   6.565
11259WAT      O34018   2.581   1.359   9.625
11259WAT     H134019   2.490   1.347   9.585
11259WAT     H234020   2.580   1.327   9.720
11260WAT      O34021   2.921   9.449   9.236
11260WAT     H134022   2.930   9.459   9.137
11260WAT     H234023   2.993   9.387   9.270
11261WAT      O34024   3.254   7.646   1.356
11261WAT     H134025   3.271   7.714   1.427
11261WAT     H234026   3.198   7.688   1.283
11262WAT      O34027   4.803   2.773   9.271
11262WAT     H134028   4.752   2.808   9.350
11262WAT     H234029   4.844   2.850   9.222
11263WAT      O34030   6.493   5.434   3.584
11263WAT     H134031   6.447   5.509   3.632
11263WAT     H234032   6.428   5.391   3.521
11264WAT      O34033   7.696   1.308   6.341
11264WAT     H134034   7.718   1.398   6.378
11264WAT     H234035   7.674   1.245   6.415
11265WAT      O34036   8.569   7.398   6.467
11265WAT     H134037   8.625   7.398   6.383
11265WAT     H234038   8.508   7.318   6.465
11266WAT      O34039   5.647   6.199   7.480
11266WAT     H134040   5.740   6.231   7.464
11266WAT     H234041   5.585   6.278   7.486
11267WAT      O34042   3.833   6.410   8.946
11267WAT     H134043   3.793   6.467   8.875
11267WAT     H234044   3.850   6.465   9.028
11268WAT      O34045   3.020   1.812   4.534
11268WAT     H134046   2.967   1.779   4.456
11268WAT     H234047   2.958   1.851   4.602
11269WAT      O34048   9.229   1.608   5.876
11269WAT     H134049   9.198   1.693   5.920
11269WAT     H234050   9.195   1.605   5.782
11270WAT      O34051   8.162   1.073   7.422
11270WAT     H134052   8.232   1.002   7.435
11270WAT     H234053   8.075   1.039   7.457
11271WAT      O34054   5.170   6.746   2.876
11271WAT     H134055   5.179   6.653   2.912
11271WAT     H234056   5.202   6.811   2.944
11272WAT      O34057   3.206   2.198   3.986
11272WAT     H134058   3.114   2.236   3.992
11272WAT     H234059   3.203   2.110   3.939
11273WAT      O34060   2.123   2.760   7.651
11273WAT     H134061   2.044   2.820   7.658
11273WAT     H234062   2.206   2.810   7.674
11274WAT      O34063   7.260   3.164   3.632
11274WAT     H134064   7.204   3.164   3.549
11274WAT     H234065   7.351   3.200   3.611
11275WAT      O34066   5.397   3.234   8.115
11275WAT     H134067   5.409   3.158   8.178
11275WAT     H234068   5.482   3.286   8.109
11276WAT      O34069   8.450   0.846   0.554
11276WAT     H134070   8.444   0.938   0.516
11276WAT     H234071   8.539   0.807   0.531
11277WAT      O34072   7.470   0.261   1.620
11277WAT     H134073   7.496   0.291   1.528
11277WAT     H234074   7.546   0.275   1.683
11278WAT      O34075   4.850   1.035   5.524
11278WAT     H134076   4.945   1.044   5.553
11278WAT     H234077   4.846   1.035   5.424
11279WAT      O34078   6.165   2.255   0.567
11279WAT     H134079   6.247   2.293   0.609
11279WAT     H234080   6.178   2.249   0.468
11280WAT      O34081   9.240   6.837   7.052
11280WAT     H134082   9.316   6.881   7.004
11280WAT     H234083   9.248   6.855   7.150
11281WAT      O34084   1.554   1.431   1.585
11281WAT     H134085   1.632   1.416   1.645
11281WAT     H234086   1.584   1.430   1.490
11282WAT      O34087   9.092   8.024   1.456
11282WAT     H134088   9.162   8.095   1.453
11282WAT     H234089   9.111   7.962   1.532
11283WAT      O34090   6.745   1.851   1.548
11283WAT     H134091   6.710   1.938   1.582
11283WAT     H234092   6.669   1.786   1.540
11284WAT      O34093   8.139   9.199   1.715
11284WAT     H134094   8.114   9.134   1.644
11284WAT     H234095   8.231   9.178   1.749
11285WAT      O34096   1.041   4.318   3.487
11285WAT     H134097   1.047   4.416   3.503
11285WAT     H234098   0.949   4.295   3.456
11286WAT      O34099   0.832   2.644   8.252
11286WAT     H134100   0.826   2.652   8.152
11286WAT     H234101   0.827   2.548   8.278
11287WAT      O34102   7.394   4.173   8.161
11287WAT     H134103   7.357   4.084   8.188
11287WAT     H234104   7.467   4.199   8.224
11288WAT      O34105   5.105   8.640   7.756
11288WAT     H134106   5.065   8.684   7.836
11288WAT     H234107   5.178   8.697   7.720
11289WAT      O34108   7.758   7.584   7.476
11289WAT     H134109   7.687   7.637   7.522
11289WAT     H234110   7.817   7.540   7.545
11290WAT      O34111   7.863   3.520   7.424
11290WAT     H134112   7.772   3.492   7.454
11290WAT     H234113   7.870   3.619   7.427
11291WAT      O34114   7.554   5.262   6.333
11291WAT     H134115   7.531   5.359   6.323
11291WAT     H234116   7.562   5.240   6.430
11292WAT      O34117   0.221   3.809   9.379
11292WAT     H134118   0.188   3.897   9.413
11292WAT     H234119   0.211   3.740   9.450
11293WAT      O34120   6.391   5.873   2.128
11293WAT     H134121   6.379   5.972   2.120
11293WAT     H234122   6.384   5.831   2.037
11294WAT      O34123   4.409   9.761   9.012
11294WAT     H134124   4.359   9.686   8.970
11294WAT     H234125   4.348   9.815   9.069
11295WAT      O34126   6.911   2.135   9.155
11295WAT     H134127   6.890   2.162   9.249
11295WAT     H234128   6.882   2.040   9.141
11296WAT      O34129   8.029   3.406   1.345
11296WAT     H134130   8.126   3.411   1.368
11296WAT     H234131   8.019   3.373   1.251
11297WAT      O34132   9.187   5.346   8.467
11297WAT     H134133   9.152   5.433   8.432
11297WAT     H234134   9.273   5.324   8.420
11298WAT      O34135   5.590   9.290   7.659
11298WAT     H134136   5.540   9.225   7.601
11298WAT     H234137   5.640   9.239   7.729
11299WAT      O34138   9.358   8.874   4.619
11299WAT     H134139   9.263   8.842   4.624
11299WAT     H234140   9.416   8.815   4.675
11300WAT      O34141   1.303   3.083   1.752
11300WAT     H134142   1.207   3.079   1.780
11300WAT     H234143   1.338   2.991   1.739
11301WAT      O34144   6.262   5.376   9.410
11301WAT     H134145   6.309   5.349   9.495
11301WAT     H234146   6.215   5.297   9.372
11302WAT      O34147   2.979   4.225   5.300
11302WAT     H134148   2.954   4.291   5.229
11302WAT     H234149   2.911   4.227   5.372
11303WAT      O34150   8.791   7.479   4.887
11303WAT     H134151   8.732   7.419   4.942
11303WAT     H234152   8.752   7.491   4.796
11304WAT      O34153   4.394   8.889   2.745
11304WAT     H134154   4.474   8.948   2.752
11304WAT     H234155   4.412   8.816   2.679
11305WAT      O34156   9.720   4.588   6.175
11305WAT     H134157   9.709   4.544   6.086
11305WAT     H234158   9.807   4.636   6.179
11306WAT      O34159   2.848   4.605   6.624
11306WAT     H134160   2.874   4.526   6.679
11306WAT     H234161   2.851   4.688   6.681
11307WAT      O34162   3.862   1.546   1.723
11307WAT     H134163   3.874   1.463   1.777
11307WAT     H234164   3.924   1.544   1.645
11308WAT      O34165   5.527   2.532   5.683
11308WAT     H134166   5.589   2.600   5.722
11308WAT     H234167   5.577   2.448   5.664
11309WAT      O34168   9.787   3.289   0.053
11309WAT     H134169   9.743   3.245  -0.026
11309WAT     H234170   9.788   3.388   0.039
11310WAT      O34171   8.788   1.333   2.772
11310WAT     H134172   8.757   1.426   2.753
11310WAT     H234173   8.752   1.303   2.860
11311WAT      O34174   8.481   3.285   2.795
11311WAT     H134175   8.521   3.200   2.760
11311WAT     H234176   8.551   3.336   2.845
11312WAT      O34177   1.511   5.521   8.949
11312WAT     H134178   1.459   5.559   8.873
11312WAT     H234179   1.603   5.559   8.950
11313WAT      O34180   4.127   7.750   4.708
11313WAT     H134181   4.043   7.735   4.761
11313WAT     H234182   4.123   7.840   4.665
11314WAT      O34183   7.923   9.571   4.862
11314WAT     H134184   8.015   9.539   4.839
11314WAT     H234185   7.890   9.632   4.790
11315WAT      O34186   2.158   4.610   3.479
11315WAT     H134187   2.251   4.576   3.485
11315WAT     H234188   2.131   4.651   3.567
11316WAT      O34189   0.140   6.028   9.553
11316WAT     H134190   0.176   6.051   9.463
11316WAT     H234191   0.132   5.929   9.561
11317WAT      O34192   4.450   2.436   2.724
11317WAT     H134193   4.375   2.501   2.718
11317WAT     H234194   4.420   2.354   2.773
11318WAT      O34195   0.848   2.863   8.439
11318WAT     H134196   0.828   2.809   8.357
11318WAT     H234197   0.947   2.869   8.452
11319WAT      O34198   9.841   0.592   9.262
11319WAT     H134199   9.827   0.536   9.344
11319WAT     H234200   9.909   0.548   9.203
11320WAT      O34201   8.023   2.471   9.821
11320WAT     H134202   7.998   2.565   9.800
11320WAT     H234203   8.079   2.434   9.747
11321WAT      O34204   8.940   6.646   1.117
11321WAT     H134205   8.875   6.673   1.187
11321WAT     H234206   8.920   6.554   1.085
11322WAT      O34207   3.349   6.557   6.739
11322WAT     H134208   3.252   6.568   6.719
11322WAT     H234209   3.400   6.548   6.653
11323WAT      O34210   3.808   3.681   3.602
11323WAT     H134211   3.712   3.704   3.587
11323WAT     H234212   3.860   3.700   3.519
11324WAT      O34213   2.698   4.372   6.856
11324WAT     H134214   2.794   4.380   6.829
11324WAT     H234215   2.648   4.453   6.824
11325WAT      O34216   0.057   6.528   3.030
11325WAT     H134217   0.096   6.533   2.938
11325WAT     H234218  -0.033   6.484   3.025
11326WAT      O34219   7.218   8.504   9.826
11326WAT     H134220   7.158   8.522   9.904
11326WAT     H234221   7.263   8.415   9.839
11327WAT      O34222   0.500   0.078   8.880
11327WAT     H134223   0.564   0.111   8.950
11327WAT     H234224   0.465  -0.012   8.908
11328WAT      O34225   3.940   7.768   2.366
11328WAT     H134226   3.964   7.688   2.421
11328WAT     H234227   3.863   7.816   2.408
11329WAT      O34228   5.389   0.361   9.809
11329WAT     H134229   5.447   0.360   9.727
11329WAT     H234230   5.331   0.280   9.810
11330WAT      O34231   4.650   9.113   7.251
11330WAT     H134232   4.707   9.045   7.203
11330WAT     H234233   4.682   9.123   7.345
11331WAT      O34234   8.999   6.896   1.829
11331WAT     H134235   9.075   6.860   1.776
11331WAT     H234236   8.918   6.902   1.771
11332WAT      O34237   4.827   1.322   4.962
11332WAT     H134238   4.863   1.415   4.963
11332WAT     H234239   4.901   1.258   4.942
11333WAT      O34240   7.989   9.128   1.101
11333WAT     H134241   8.018   9.163   1.012
11333WAT     H234242   7.902   9.170   1.126
11334WAT      O34243   3.502   1.294   9.084
11334WAT     H134244   3.534   1.213   9.033
11334WAT     H234245   3.407   1.280   9.111
11335WAT      O34246   1.229   9.805   6.671
11335WAT     H134247   1.153   9.859   6.633
11335WAT     H234248   1.231   9.816   6.770
11336WAT      O34249   6.834   7.761   0.096
11336WAT     H134250   6.899   7.690   0.069
11336WAT     H234251   6.823   7.826   0.020
11337WAT      O34252   9.683   0.586   6.150
11337WAT     H134253   9.765   0.626   6.191
11337WAT     H234254   9.678   0.611   6.053
11338WAT      O34255   6.534   6.737   4.425
11338WAT     H134256   6.539   6.831   4.392
11338WAT     H234257   6.619   6.714   4.474
11339WAT      O34258   9.127   2.374   6.084
11339WAT     H134259   9.224   2.394   6.077
11339WAT     H234260   9.086   2.372   5.993
11340WAT      O34261   2.411   1.221   0.769
11340WAT     H134262   2.426   1.245   0.865
11340WAT     H234263   2.498   1.195   0.727
11341WAT      O34264   3.286   8.617   4.117
11341WAT     H134265   3.275   8.599   4.215
11341WAT     H234266   3.313   8.712   4.103
11342WAT      O34267   7.454   8.251   9.406
11342WAT     H134268   7.400   8.221   9.328
11342WAT     H234269   7.413   8.333   9.445
11343WAT      O34270   7.375   2.043   4.895
11343WAT     H134271   7.369   2.111   4.968
11343WAT     H234272   7.381   2.089   4.807
11344WAT      O34273   1.252   2.745   1.067
11344WAT     H134274   1.234   2.738   1.165
11344WAT     H234275   1.342   2.785   1.051
11345WAT      O34276   3.356   8.359   4.441
11345WAT     H134277   3.306   8.338   4.525
11345WAT     H234278   3.325   8.447   4.405
11346WAT      O34279   5.759   6.636   6.546
11346WAT     H134280   5.684   6.701   6.555
11346WAT     H234281   5.730   6.559   6.489
11347WAT      O34282   3.935   1.453   3.737
11347WAT     H134283   3.868   1.500   3.796
11347WAT     H234284   4.022   1.502   3.741
11348WAT      O34285   5.132   5.254   0.926
11348WAT     H134286   5.193   5.177   0.907
11348WAT     H234287   5.149   5.289   1.018
11349WAT      O34288   0.907   8.499   7.231
11349WAT     H134289   0.929   8.431   7.162
11349WAT     H234290   0.962   8.581   7.217
11350WAT      O34291   7.147   0.594   6.534
11350WAT     H134292   7.231   0.624   6.579
11350WAT     H234293   7.081   0.670   6.532
11351WAT      O34294   2.323   6.108   9.185
11351WAT     H134295   2.381   6.152   9.254
11351WAT     H234296   2.232   6.092   9.224
11352WAT      O34297   3.655   8.816   9.768
11352WAT     H134298   3.558   8.816   9.795
11352WAT     H234299   3.710   8.774   9.840
11353WAT      O34300   7.672   7.644   4.759
11353WAT     H134301   7.729   7.656   4.840
11353WAT     H234302   7.726   7.664   4.677
11354WAT      O34303   5.147   9.516   3.012
11354WAT     H134304   5.180   9.591   3.070
11354WAT     H234305   5.063   9.544   2.966
11355WAT      O34306   6.663   1.890   9.126
11355WAT     H134307   6.648   1.943   9.209
11355WAT     H234308   6.586   1.902   9.064
11356WAT      O34309   1.149   1.161   5.743
11356WAT     H134310   1.147   1.196   5.650
11356WAT     H234311   1.065   1.110   5.761
11357WAT      O34312   6.054   4.616   1.314
11357WAT     H134313   5.980   4.683   1.319
11357WAT     H234314   6.139   4.662   1.288
11358WAT      O34315   7.772   3.728   3.978
11358WAT     H134316   7.826   3.812   3.990
11358WAT     H234317   7.721   3.733   3.893
11359WAT      O34318   8.197   6.994   6.368
11359WAT     H134319   8.269   7.063   6.377
11359WAT     H234320   8.111   7.032   6.400
11360WAT      O34321   7.518   5.102   4.570
11360WAT     H134322   7.499   5.030   4.636
11360WAT     H234323   7.449   5.099   4.498
11361WAT      O34324   8.357   0.626   1.754
11361WAT     H134325   8.346   0.718   1.718
11361WAT     H234326   8.316   0.560   1.690
11362WAT      O34327   7.298   9.277   6.397
11362WAT     H134328   7.302   9.334   6.479
11362WAT     H234329   7.238   9.199   6.413
11363WAT      O34330   5.897   3.573   8.691
11363WAT     H134331   5.840   3.637   8.741
11363WAT     H234332   5.961   3.529   8.754
11364WAT      O34333   7.158   8.361   9.074
11364WAT     H134334   7.066   8.393   9.099
11364WAT     H234335   7.158   8.261   9.071
11365WAT      O34336   7.367   1.706   9.473
11365WAT     H134337   7.325   1.633   9.419
11365WAT     H234338   7.462   1.716   9.446
11366WAT      O34339   1.634   2.888   3.280
11366WAT     H134340   1.695   2.847   3.212
11366WAT     H234341   1.571   2.951   3.234
11367WAT      O34342   4.620   2.492   1.023
11367WAT     H134343   4.653   2.442   0.943
11367WAT     H234344   4.677   2.472   1.102
11368WAT      O34345   5.821   1.363   3.272
11368WAT     H134346   5.803   1.277   3.225
11368WAT     H234347   5.917   1.364   3.303
11369WAT      O34348   8.972   3.707   2.860
11369WAT     H134349   8.877   3.715   2.891
11369WAT     H234350   8.992   3.777   2.792
11370WAT      O34351   9.266   8.740   8.742
11370WAT     H134352   9.180   8.759   8.791
11370WAT     H234353   9.342   8.783   8.791
11371WAT      O34354   2.813   3.766   5.172
11371WAT     H134355   2.824   3.668   5.156
11371WAT     H234356   2.901   3.805   5.200
11372WAT      O34357   2.943   6.981   5.485
11372WAT     H134358   2.891   6.923   5.547
11372WAT     H234359   2.884   7.010   5.409
11373WAT      O34360   3.741   3.684   6.970
11373WAT     H134361   3.686   3.759   6.936
11373WAT     H234362   3.743   3.610   6.903
11374WAT      O34363   3.262   4.767   3.376
11374WAT     H134364   3.305   4.677   3.378
11374WAT     H234365   3.331   4.837   3.361
11375WAT      O34366   1.296   2.554   4.721
11375WAT     H134367   1.393   2.536   4.733
11375WAT     H234368   1.270   2.635   4.775
11376WAT      O34369   8.419   9.605   7.462
11376WAT     H134370   8.429   9.628   7.559
11376WAT     H234371   8.418   9.506   7.450
11377WAT      O34372   1.255   4.178   9.705
11377WAT     H134373   1.223   4.273   9.693
11377WAT     H234374   1.353   4.174   9.683
11378WAT      O34375   0.782   2.816   9.007
11378WAT     H134376   0.730   2.874   8.945
11378WAT     H234377   0.879   2.823   8.986
11379WAT      O34378   9.388   7.551   1.302
11379WAT     H134379   9.411   7.599   1.387
11379WAT     H234380   9.289   7.536   1.299
11380WAT      O34381   5.640   4.971   9.346
11380WAT     H134382   5.716   4.974   9.410
11380WAT     H234383   5.612   5.065   9.323
11381WAT      O34384   2.985   4.361   7.822
11381WAT     H134385   2.948   4.412   7.745
11381WAT     H234386   3.054   4.417   7.869
11382WAT      O34387   2.051   8.571   9.129
11382WAT     H134388   1.998   8.497   9.088
11382WAT     H234389   2.087   8.541   9.217
11383WAT      O34390   5.548   8.793   6.537
11383WAT     H134391   5.560   8.717   6.602
11383WAT     H234392   5.476   8.854   6.571
11384WAT      O34393   4.219   9.234   1.535
11384WAT     H134394   4.130   9.199   1.565
11384WAT     H234395   4.264   9.280   1.611
11385WAT      O34396   8.167   5.431   2.060
11385WAT     H134397   8.089   5.380   2.096
11385WAT     H234398   8.135   5.500   1.995
11386WAT      O34399   2.539   9.733   1.492
11386WAT     H134400   2.508   9.776   1.407
11386WAT     H234401   2.593   9.800   1.544
11387WAT      O34402   1.608   1.588   0.804
11387WAT     H134403   1.593   1.515   0.738
11387WAT     H234404   1.538   1.659   0.792
11388WAT      O34405   1.105   1.552   0.857
11388WAT     H134406   1.178   1.490   0.827
11388WAT     H234407   1.047   1.506   0.923
11389WAT      O34408   5.312   3.482   6.332
11389WAT     H134409   5.238   3.420   6.307
11389WAT     H234410   5.385   3.475   6.264
11390WAT      O34411   4.806   6.642   0.665
11390WAT     H134412   4.764   6.575   0.727
11390WAT     H234413   4.774   6.734   0.689
11391WAT      O34414   6.870   9.555   8.712
11391WAT     H134415   6.836   9.532   8.621
11391WAT     H234416   6.970   9.556   8.712
11392WAT      O34417   8.441   3.439   5.595
11392WAT     H134418   8.417   3.532   5.623
11392WAT     H234419   8.539   3.424   5.610
11393WAT      O34420   7.752   6.229   9.033
11393WAT     H134421   7.827   6.185   9.083
11393WAT     H234422   7.768   6.223   8.935
11394WAT      O34423   8.518   3.059   0.029
11394WAT     H134424   8.502   3.128  -0.041
11394WAT     H234425   8.542   3.103   0.115
11395WAT      O34426   1.202   1.757   7.267
11395WAT     H134427   1.139   1.777   7.192
11395WAT     H234428   1.267   1.687   7.237
11396WAT      O34429   1.865   9.524   6.503
11396WAT     H134430   1.880   9.561   6.595
11396WAT     H234431   1.952   9.501   6.461
11397WAT      O34432   1.444   0.931   3.074
11397WAT     H134433   1.512   0.953   3.005
11397WAT     H234434   1.389   0.854   3.043
11398WAT      O34435   5.093   1.556   4.712
11398WAT     H134436   5.070   1.568   4.808
11398WAT     H234437   5.070   1.463   4.683
11399WAT      O34438   9.382   2.341   8.523
11399WAT     H134439   9.291   2.322   8.486
11399WAT     H234440   9.387   2.437   8.550
11400WAT      O34441   9.071   3.210   1.126
11400WAT     H134442   9.140   3.205   1.198
11400WAT     H234443   9.108   3.172   1.042
11401WAT      O34444   0.461   2.713   8.789
11401WAT     H134445   0.555   2.716   8.756
11401WAT     H234446   0.454   2.765   8.874
11402WAT      O34447   7.444   4.871   8.583
11402WAT     H134448   7.402   4.903   8.668
11402WAT     H234449   7.406   4.922   8.506
11403WAT      O34450   1.941   8.130   0.321
11403WAT     H134451   1.922   8.104   0.226
11403WAT     H234452   2.031   8.174   0.326
11404WAT      O34453   7.827   7.046   3.625
11404WAT     H134454   7.890   6.986   3.674
11404WAT     H234455   7.751   6.993   3.588
11405WAT      O34456   5.167   1.230   0.628
11405WAT     H134457   5.110   1.211   0.549
11405WAT     H234458   5.144   1.320   0.665
11406WAT      O34459   9.838   4.506   4.018
11406WAT     H134460   9.905   4.526   3.947
11406WAT     H234461   9.753   4.475   3.975
11407WAT      O34462   8.455   3.124   4.927
11407WAT     H134463   8.462   3.211   4.878
11407WAT     H234464   8.419   3.141   5.019
11408WAT      O34465   3.447   5.319   9.649
11408WAT     H134466   3.425   5.227   9.617
11408WAT     H234467   3.503   5.365   9.580
11409WAT      O34468   9.080   8.322   2.765
11409WAT     H134469   9.147   8.319   2.691
11409WAT     H234470   9.082   8.413   2.808
11410WAT      O34471   1.457   6.793   4.684
11410WAT     H134472   1.483   6.863   4.617
11410WAT     H234473   1.375   6.746   4.652
11411WAT      O34474   9.691   9.539   3.140
11411WAT     H134475   9.763   9.541   3.071
11411WAT     H234476   9.722   9.588   3.222
11412WAT      O34477   7.196   4.408   5.693
11412WAT     H134478   7.292   4.426   5.671
11412WAT     H234479   7.140   4.486   5.665
11413WAT      O34480   9.758   8.787   9.888
11413WAT     H134481   9.824   8.860   9.902
11413WAT     H234482   9.785   8.706   9.940
11414WAT      O34483   2.520   4.600   8.639
11414WAT     H134484   2.606   4.602   8.588
11414WAT     H234485   2.450   4.551   8.586
11415WAT      O34486   2.220   4.940   6.511
11415WAT     H134487   2.194   4.877   6.583
11415WAT     H234488   2.138   4.975   6.466
11416WAT      O34489   6.763   6.903   7.771
11416WAT     H134490   6.806   6.866   7.688
11416WAT     H234491   6.831   6.957   7.822
11417WAT      O34492   6.322   0.469   7.267
11417WAT     H134493   6.359   0.449   7.176
11417WAT     H234494   6.234   0.421   7.278
11418WAT      O34495   6.736   7.334   9.165
11418WAT     H134496   6.818   7.277   9.161
11418WAT     H234497   6.693   7.325   9.255
11419WAT      O34498   2.561   0.204   4.527
11419WAT     H134499   2.487   0.271   4.521
11419WAT     H234500   2.549   0.148   4.609
11420WAT      O34501   7.747   7.770   9.849
11420WAT     H134502   7.835   7.808   9.821
11420WAT     H234503   7.744   7.673   9.827
11421WAT      O34504   9.418   1.691   3.736
11421WAT     H134505   9.405   1.660   3.642
11421WAT     H234506   9.343   1.659   3.793
11422WAT      O34507   1.137   8.659   3.745
11422WAT     H134508   1.119   8.563   3.764
11422WAT     H234509   1.235   8.677   3.756
11423WAT      O34510   4.378   7.052   0.916
11423WAT     H134511   4.379   7.099   1.004
11423WAT     H234512   4.391   7.118   0.842
11424WAT      O34513   9.488   9.607   4.392
11424WAT     H134514   9.407   9.555   4.367
11424WAT     H234515   9.568   9.548   4.390
11425WAT      O34516   2.394   0.478   8.734
11425WAT     H134517   2.322   0.537   8.697
11425WAT     H234518   2.454   0.533   8.792
11426WAT      O34519   3.971   1.537   8.764
11426WAT     H134520   3.927   1.587   8.689
11426WAT     H234521   4.040   1.476   8.727
11427WAT      O34522   4.642   5.802   7.777
11427WAT     H134523   4.630   5.795   7.678
11427WAT     H234524   4.704   5.877   7.798
11428WAT      O34525   9.724   6.879   1.132
11428WAT     H134526   9.719   6.975   1.157
11428WAT     H234527   9.816   6.858   1.098
11429WAT      O34528   5.478   5.333   1.988
11429WAT     H134529   5.384   5.299   1.988
11429WAT     H234530   5.486   5.409   2.053
11430WAT      O34531   4.090   0.615   2.517
11430WAT     H134532   3.992   0.632   2.519
11430WAT     H234533   4.122   0.590   2.609
11431WAT      O34534   3.454   2.395   4.507
11431WAT     H134535   3.552   2.403   4.487
11431WAT     H234536   3.404   2.381   4.422
11432WAT      O34537   7.482   3.861   1.921
11432WAT     H134538   7.554   3.930   1.930
11432WAT     H234539   7.457   3.852   1.824
11433WAT      O34540   8.320   4.973   1.055
11433WAT     H134541   8.254   5.042   1.085
11433WAT     H234542   8.412   5.012   1.057
11434WAT      O34543   6.279   0.452   5.984
11434WAT     H134544   6.348   0.499   6.039
11434WAT     H234545   6.276   0.355   6.010
11435WAT      O34546   7.054   1.666   8.676
11435WAT     H134547   7.026   1.576   8.644
11435WAT     H234548   6.973   1.717   8.706
11436WAT      O34549   3.672   9.197   7.884
11436WAT     H134550   3.628   9.233   7.966
11436WAT     H234551   3.625   9.113   7.856
11437WAT      O34552   0.088   4.928   4.574
11437WAT     H134553   0.067   5.003   4.637
11437WAT     H234554   0.006   4.904   4.522
11438WAT      O34555   1.159   8.576   1.402
11438WAT     H134556   1.107   8.612   1.325
11438WAT     H234557   1.236   8.521   1.367
11439WAT      O34558   1.731   0.695   8.881
11439WAT     H134559   1.660   0.721   8.816
11439WAT     H234560   1.755   0.773   8.938
11440WAT      O34561   8.532   9.380   3.453
11440WAT     H134562   8.524   9.298   3.509
11440WAT     H234563   8.584   9.449   3.503
11441WAT      O34564   3.255   3.190   0.564
11441WAT     H134565   3.270   3.116   0.498
11441WAT     H234566   3.336   3.249   0.567
11442WAT      O34567   0.546   9.806   0.221
11442WAT     H134568   0.617   9.833   0.156
11442WAT     H234569   0.584   9.808   0.314
11443WAT      O34570   0.516   7.778   4.264
11443WAT     H134571   0.552   7.724   4.340
11443WAT     H234572   0.578   7.770   4.186
11444WAT      O34573   4.671   1.837   7.008
11444WAT     H134574   4.658   1.935   7.002
11444WAT     H234575   4.652   1.795   6.919
11445WAT      O34576   2.740   3.725   3.918
11445WAT     H134577   2.686   3.807   3.938
11445WAT     H234578   2.704   3.680   3.836
11446WAT      O34579   9.479   5.355   8.376
11446WAT     H134580   9.543   5.419   8.335
11446WAT     H234581   9.515   5.322   8.463
11447WAT      O34582   6.125   7.682   2.895
11447WAT     H134583   6.026   7.695   2.899
11447WAT     H234584   6.150   7.645   2.806
11448WAT      O34585   2.884   1.332   2.072
11448WAT     H134586   2.890   1.352   2.170
11448WAT     H234587   2.947   1.390   2.021
11449WAT      O34588   9.130   5.990   3.649
11449WAT     H134589   9.229   5.998   3.647
11449WAT     H234590   9.102   5.928   3.722
11450WAT      O34591   4.600   1.136   9.733
11450WAT     H134592   4.543   1.158   9.812
11450WAT     H234593   4.542   1.116   9.654
11451WAT      O34594   1.145   6.239   1.273
11451WAT     H134595   1.163   6.305   1.346
11451WAT     H234596   1.202   6.158   1.287
11452WAT      O34597   5.194   2.354   0.234
11452WAT     H134598   5.122   2.302   0.281
11452WAT     H234599   5.245   2.293   0.173
11453WAT      O34600   0.345   5.927   7.127
11453WAT     H134601   0.247   5.923   7.106
11453WAT     H234602   0.359   5.927   7.226
11454WAT      O34603   5.115   5.991   7.980
11454WAT     H134604   5.088   6.081   7.948
11454WAT     H234605   5.198   5.961   7.932
11455WAT      O34606   9.588   5.632   7.871
11455WAT     H134607   9.501   5.585   7.884
11455WAT     H234608   9.625   5.658   7.961
11456WAT      O34609   9.165   7.118   3.352
11456WAT     H134610   9.191   7.146   3.259
11456WAT     H234611   9.247   7.105   3.407
11457WAT      O34612   0.465   7.180   5.414
11457WAT     H134613   0.471   7.129   5.328
11457WAT     H234614   0.389   7.244   5.410
11458WAT      O34615   6.096   4.208   9.331
11458WAT     H134616   6.176   4.231   9.386
11458WAT     H234617   6.114   4.229   9.235
11459WAT      O34618   0.499   6.254   7.578
11459WAT     H134619   0.596   6.231   7.577
11459WAT     H234620   0.487   6.348   7.608
11460WAT      O34621   2.338   4.363   2.174
11460WAT     H134622   2.354   4.454   2.211
11460WAT     H234623   2.423   4.326   2.136
11461WAT      O34624   4.272   2.512   2.010
11461WAT     H134625   4.227   2.438   1.960
11461WAT     H234626   4.365   2.525   1.974
11462WAT      O34627   1.357   4.948   2.971
11462WAT     H134628   1.330   5.004   3.050
11462WAT     H234629   1.397   4.862   3.004
11463WAT      O34630   3.993   9.629   8.318
11463WAT     H134631   3.968   9.615   8.222
11463WAT     H234632   4.055   9.707   8.326
11464WAT      O34633   6.186   9.635   1.318
11464WAT     H134634   6.220   9.663   1.228
11464WAT     H234635   6.110   9.570   1.305
11465WAT      O34636   1.382   1.588   2.005
11465WAT     H134637   1.391   1.491   2.025
11465WAT     H234638   1.364   1.600   1.907
11466WAT      O34639   8.987   5.290   7.650
11466WAT     H134640   9.004   5.380   7.609
11466WAT     H234641   8.995   5.296   7.749
11467WAT      O34642   5.698   4.702   9.811
11467WAT     H134643   5.751   4.628   9.771
11467WAT     H234644   5.674   4.769   9.740
11468WAT      O34645   3.843   3.187   4.241
11468WAT     H134646   3.817   3.173   4.336
11468WAT     H234647   3.936   3.223   4.236
11469WAT      O34648   5.788   0.025   6.617
11469WAT     H134649   5.767   0.092   6.689
11469WAT     H234650   5.713  -0.040   6.609
11470WAT      O34651   2.068   1.038   3.704
11470WAT     H134652   2.096   1.007   3.613
11470WAT     H234653   2.134   1.105   3.738
11471WAT      O34654   3.512   0.054   5.749
11471WAT     H134655   3.589   0.104   5.709
11471WAT     H234656   3.516  -0.042   5.721
11472WAT      O34657   6.187   3.401   5.800
11472WAT     H134658   6.221   3.446   5.717
11472WAT     H234659   6.088   3.411   5.805
11473WAT      O34660   1.895   8.190   9.217
11473WAT     H134661   1.831   8.176   9.293
11473WAT     H234662   1.944   8.104   9.199
11474WAT      O34663   5.475   9.270   5.716
11474WAT     H134664   5.474   9.362   5.677
11474WAT     H234665   5.424   9.208   5.656
11475WAT      O34666   0.349   1.086   5.187
11475WAT     H134667   0.414   1.060   5.115
11475WAT     H234668   0.265   1.031   5.176
11476WAT      O34669   8.203   8.018   3.735
11476WAT     H134670   8.257   8.023   3.651
11476WAT     H234671   8.156   7.929   3.739
11477WAT      O34672   9.107   4.032   7.083
11477WAT     H134673   9.021   4.069   7.117
11477WAT     H234674   9.165   4.107   7.050
11478WAT      O34675   4.166   8.954   0.557
11478WAT     H134676   4.235   9.018   0.523
11478WAT     H234677   4.107   8.925   0.481
11479WAT      O34678   8.934   2.812   1.722
11479WAT     H134679   8.933   2.865   1.637
11479WAT     H234680   8.842   2.776   1.739
11480WAT      O34681   7.094   1.215   8.284
11480WAT     H134682   7.113   1.154   8.361
11480WAT     H234683   7.169   1.208   8.218
11481WAT      O34684   4.087   7.940   2.724
11481WAT     H134685   4.183   7.912   2.727
11481WAT     H234686   4.082   8.040   2.723
11482WAT      O34687   7.220   0.118   6.043
11482WAT     H134688   7.318   0.099   6.050
11482WAT     H234689   7.201   0.160   5.955
11483WAT      O34690   5.944   1.746   6.412
11483WAT     H134691   5.967   1.808   6.336
11483WAT     H234692   5.872   1.683   6.383
11484WAT      O34693   5.508   0.021   3.136
11484WAT     H134694   5.527  -0.053   3.072
11484WAT     H234695   5.553   0.105   3.105
11485WAT      O34696   2.256   7.668   8.873
11485WAT     H134697   2.263   7.672   8.973
11485WAT     H234698   2.297   7.583   8.840
11486WAT      O34699   6.391   7.643   0.011
11486WAT     H134700   6.473   7.587   0.028
11486WAT     H234701   6.407   7.736   0.043
11487WAT      O34702   1.874   3.722   6.947
11487WAT     H134703   1.823   3.662   7.008
11487WAT     H234704   1.885   3.678   6.858
11488WAT      O34705   0.512   9.134   7.820
11488WAT     H134706   0.460   9.172   7.896
11488WAT     H234707   0.603   9.175   7.818
11489WAT      O34708   2.488   5.368   0.617
11489WAT     H134709   2.504   5.447   0.676
11489WAT     H234710   2.553   5.369   0.541
11490WAT      O34711   5.834   5.932   1.196
11490WAT     H134712   5.822   5.917   1.098
11490WAT     H234713   5.817   5.847   1.245
11491WAT      O34714   6.701   1.220   1.358
11491WAT     H134715   6.691   1.276   1.440
11491WAT     H234716   6.727   1.279   1.281
11492WAT      O34717   3.388   3.103   6.805
11492WAT     H134718   3.392   3.181   6.742
11492WAT     H234719   3.331   3.126   6.884
11493WAT      O34720   2.043   6.319   6.982
11493WAT     H134721   2.092   6.396   7.022
11493WAT     H234722   2.007   6.261   7.055
11494WAT      O34723   1.184   0.891   8.711
11494WAT     H134724   1.199   0.813   8.650
11494WAT     H234725   1.205   0.976   8.662
11495WAT      O34726   0.398   3.300   4.969
11495WAT     H134727   0.497   3.301   4.981
11495WAT     H234728   0.363   3.394   4.971
11496WAT      O34729   3.448   2.948   8.475
11496WAT     H134730   3.368   2.894   8.449
11496WAT     H234731   3.465   3.018   8.405
11497WAT      O34732   9.289   5.583   1.269
11497WAT     H134733   9.194   5.613   1.263
11497WAT     H234734   9.344   5.633   1.203
11498WAT      O34735   3.101   3.337   8.002
11498WAT     H134736   3.068   3.243   8.003
11498WAT     H234737   3.027   3.398   8.030
11499WAT      O34738   2.124   7.205   8.105
11499WAT     H134739   2.090   7.178   8.196
11499WAT     H234740   2.183   7.133   8.069
11500WAT      O34741   4.771   7.199   7.772
11500WAT     H134742   4.713   7.218   7.851
11500WAT     H234743   4.866   7.187   7.803
11501WAT      O34744   6.314   0.065   2.026
11501WAT     H134745   6.214   0.070   2.035
11501WAT     H234746   6.357   0.129   2.090
11502WAT      O34747   5.291   8.458   8.054
11502WAT     H134748   5.342   8.451   8.139
11502WAT     H234749   5.338   8.406   7.983
11503WAT      O34750   3.797   0.349   0.738
11503WAT     H134751   3.877   0.300   0.704
11503WAT     H234752   3.745   0.386   0.661
11504WAT      O34753   7.161   7.353   6.471
11504WAT     H134754   7.158   7.367   6.570
11504WAT     H234755   7.164   7.255   6.451
11505WAT      O34756   2.004   1.337   5.935
11505WAT     H134757   2.101   1.360   5.944
11505WAT     H234758   1.962   1.334   6.025
11506WAT      O34759   4.483   8.215   8.391
11506WAT     H134760   4.496   8.244   8.296
11506WAT     H234761   4.458   8.295   8.447
11507WAT      O34762   6.394   7.575   2.607
11507WAT     H134763   6.337   7.496   2.630
11507WAT     H234764   6.471   7.580   2.671
11508WAT      O34765   1.408   3.709   5.507
11508WAT     H134766   1.503   3.736   5.519
11508WAT     H234767   1.401   3.609   5.505
11509WAT      O34768   5.647   0.213   2.730
11509WAT     H134769   5.617   0.196   2.824
11509WAT     H234770   5.747   0.211   2.726
11510WAT      O34771   8.921   4.523   7.701
11510WAT     H134772   8.935   4.604   7.758
11510WAT     H234773   8.988   4.522   7.627
11511WAT      O34774   5.090   4.761   6.816
11511WAT     H134775   5.013   4.704   6.845
11511WAT     H234776   5.077   4.854   6.850
11512WAT      O34777   3.295   0.656   2.269
11512WAT     H134778   3.205   0.627   2.301
11512WAT     H234779   3.321   0.741   2.314
11513WAT      O34780   4.117   4.941   4.704
11513WAT     H134781   4.087   5.033   4.728
11513WAT     H234782   4.062   4.907   4.628
11514WAT      O34783   5.689   5.138   4.013
11514WAT     H134784   5.661   5.134   3.917
11514WAT     H234785   5.632   5.205   4.062
11515WAT      O34786   1.092   9.273   2.065
11515WAT     H134787   1.065   9.234   2.152
11515WAT     H234788   1.063   9.369   2.060
11516WAT      O34789   5.858   5.046   4.209
11516WAT     H134790   5.944   5.025   4.163
11516WAT     H234791   5.788   5.067   4.141
11517WAT      O34792   6.607   6.521   7.427
11517WAT     H134793   6.564   6.610   7.406
11517WAT     H234794   6.540   6.462   7.471
11518WAT      O34795   6.832   3.577   2.209
11518WAT     H134796   6.833   3.529   2.121
11518WAT     H234797   6.854   3.674   2.195
11519WAT      O34798   5.229   7.601   1.717
11519WAT     H134799   5.237   7.565   1.625
11519WAT     H234800   5.151   7.664   1.722
11520WAT      O34801   6.869   1.457   4.199
11520WAT     H134802   6.787   1.412   4.165
11520WAT     H234803   6.905   1.519   4.129
11521WAT      O34804   2.593   9.228   3.210
11521WAT     H134805   2.517   9.237   3.147
11521WAT     H234806   2.664   9.171   3.169
11522WAT      O34807   3.908   8.061   9.584
11522WAT     H134808   3.955   8.081   9.498
11522WAT     H234809   3.940   7.972   9.619
11523WAT      O34810   5.624   8.699   6.089
11523WAT     H134811   5.649   8.682   6.184
11523WAT     H234812   5.694   8.756   6.046
11524WAT      O34813   8.640   2.531   7.494
11524WAT     H134814   8.627   2.630   7.485
11524WAT     H234815   8.555   2.485   7.468
11525WAT      O34816   6.966   3.603   8.889
11525WAT     H134817   6.901   3.608   8.813
11525WAT     H234818   7.008   3.513   8.892
11526WAT      O34819   2.061   7.130   5.649
11526WAT     H134820   2.118   7.114   5.730
11526WAT     H234821   2.103   7.088   5.569
11527WAT      O34822   1.412   8.987   4.189
11527WAT     H134823   1.368   9.063   4.238
11527WAT     H234824   1.482   9.023   4.128
11528WAT      O34825   8.539   4.165   0.628
11528WAT     H134826   8.544   4.134   0.723
11528WAT     H234827   8.541   4.265   0.625
11529WAT      O34828   2.212   9.774   9.826
11529WAT     H134829   2.201   9.848   9.893
11529WAT     H234830   2.152   9.793   9.748
11530WAT      O34831   2.955   5.500   3.567
11530WAT     H134832   2.997   5.456   3.647
11530WAT     H234833   3.025   5.547   3.514
11531WAT      O34834   7.784   7.482   2.432
11531WAT     H134835   7.765   7.385   2.414
11531WAT     H234836   7.874   7.491   2.475
11532WAT      O34837   0.215   8.517   1.372
11532WAT     H134838   0.229   8.610   1.408
11532WAT     H234839   0.191   8.523   1.275
11533WAT      O34840   9.399   4.903   3.280
11533WAT     H134841   9.313   4.936   3.240
11533WAT     H234842   9.433   4.971   3.346
11534WAT      O34843   0.492   5.166   5.521
11534WAT     H134844   0.588   5.178   5.495
11534WAT     H234845   0.440   5.137   5.441
11535WAT      O34846   2.982   3.521   2.957
11535WAT     H134847   2.955   3.563   3.044
11535WAT     H234848   3.000   3.423   2.971
11536WAT      O34849   8.508   0.181   2.678
11536WAT     H134850   8.558   0.258   2.719
11536WAT     H234851   8.572   0.118   2.635
11537WAT      O34852   7.498   4.356   7.258
11537WAT     H134853   7.421   4.373   7.319
11537WAT     H234854   7.565   4.299   7.305
11538WAT      O34855   1.601   8.122   5.700
11538WAT     H134856   1.679   8.061   5.689
11538WAT     H234857   1.632   8.211   5.734
11539WAT      O34858   7.299   4.808   5.005
11539WAT     H134859   7.202   4.785   5.000
11539WAT     H234860   7.321   4.838   5.098
11540WAT      O34861   2.009   7.238   1.467
11540WAT     H134862   1.934   7.221   1.531
11540WAT     H234863   2.024   7.156   1.411
11541WAT      O34864   7.725   2.206   6.456
11541WAT     H134865   7.694   2.129   6.400
11541WAT     H234866   7.762   2.172   6.542
11542WAT      O34867   3.918   5.878   6.224
11542WAT     H134868   3.953   5.853   6.314
11542WAT     H234869   3.973   5.952   6.186
11543WAT      O34870   8.864   8.256   6.529
11543WAT     H134871   8.847   8.325   6.599
11543WAT     H234872   8.869   8.166   6.571
11544WAT      O34873   9.546   0.368   8.682
11544WAT     H134874   9.583   0.455   8.713
11544WAT     H234875   9.476   0.336   8.746
11545WAT      O34876   8.317   3.847   9.290
11545WAT     H134877   8.285   3.813   9.379
11545WAT     H234878   8.384   3.919   9.304
11546WAT      O34879   7.906   8.858   9.496
11546WAT     H134880   7.851   8.839   9.415
11546WAT     H234881   7.845   8.875   9.574
11547WAT      O34882   7.557   6.944   3.553
11547WAT     H134883   7.563   6.898   3.464
11547WAT     H234884   7.466   6.984   3.563
11548WAT      O34885   2.497   9.024   8.582
11548WAT     H134886   2.467   8.942   8.631
11548WAT     H234887   2.577   9.063   8.627
11549WAT      O34888   6.407   3.809   2.795
11549WAT     H134889   6.360   3.722   2.777
11549WAT     H234890   6.458   3.801   2.880
11550WAT      O34891   0.883   3.737   6.181
11550WAT     H134892   0.804   3.701   6.231
11550WAT     H234893   0.936   3.662   6.142
11551WAT      O34894   3.702   0.589   4.423
11551WAT     H134895   3.653   0.536   4.493
11551WAT     H234896   3.653   0.674   4.406
11552WAT      O34897   8.458   5.713   6.180
11552WAT     H134898   8.498   5.751   6.097
11552WAT     H234899   8.473   5.614   6.181
11553WAT      O34900   1.224   0.982   4.579
11553WAT     H134901   1.268   1.013   4.495
11553WAT     H234902   1.291   0.979   4.653
11554WAT      O34903   5.918   5.626   5.390
11554WAT     H134904   5.846   5.569   5.427
11554WAT     H234905   5.899   5.722   5.411
11555WAT      O34906   2.302   7.274   5.874
11555WAT     H134907   2.261   7.184   5.893
11555WAT     H234908   2.362   7.300   5.949
11556WAT      O34909   2.499   8.588   6.477
11556WAT     H134910   2.555   8.510   6.505
11556WAT     H234911   2.555   8.654   6.427
11557WAT      O34912   0.331   6.957   6.608
11557WAT     H134913   0.405   6.971   6.674
11557WAT     H234914   0.311   7.042   6.561
11558WAT      O34915   4.178   1.927   0.507
11558WAT     H134916   4.265   1.963   0.472
11558WAT     H234917   4.112   1.921   0.432
11559WAT      O34918   4.843   5.274   9.406
11559WAT     H134919   4.791   5.285   9.490
11559WAT     H234920   4.901   5.193   9.413
11560WAT      O34921   2.032   6.319   7.835
11560WAT     H134922   2.009   6.286   7.744
11560WAT     H234923   1.964   6.286   7.901
11561WAT      O34924   4.814   4.012   1.237
11561WAT     H134925   4.897   4.051   1.198
11561WAT     H234926   4.804   4.044   1.331
11562WAT      O34927   4.954   2.919   1.347
11562WAT     H134928   5.012   2.883   1.420
11562WAT     H234929   4.966   3.018   1.342
11563WAT      O34930   0.051   6.756   1.039
11563WAT     H134931   0.120   6.778   1.108
11563WAT     H234932   0.090   6.695   0.971
11564WAT      O34933   8.631   7.754   3.295
11564WAT     H134934   8.624   7.732   3.198
11564WAT     H234935   8.645   7.670   3.348
11565WAT      O34936   5.251   5.429   1.437
11565WAT     H134937   5.338   5.383   1.453
11565WAT     H234938   5.208   5.452   1.525
11566WAT      O34939   8.391   2.306   4.699
11566WAT     H134940   8.467   2.244   4.719
11566WAT     H234941   8.393   2.331   4.602
11567WAT      O34942   1.717   9.583   9.328
11567WAT     H134943   1.659   9.663   9.315
11567WAT     H234944   1.789   9.582   9.260
11568WAT      O34945   1.172   3.341   2.852
11568WAT     H134946   1.209   3.296   2.771
11568WAT     H234947   1.229   3.320   2.931
11569WAT      O34948   5.535   0.666   8.730
11569WAT     H134949   5.559   0.689   8.636
11569WAT     H234950   5.501   0.572   8.734
11570WAT      O34951   9.805   7.358   4.480
11570WAT     H134952   9.779   7.454   4.468
11570WAT     H234953   9.829   7.319   4.391
11571WAT      O34954   5.984   2.513   1.179
11571WAT     H134955   6.060   2.552   1.230
11571WAT     H234956   5.972   2.417   1.205
11572WAT      O34957   6.014   4.434   4.414
11572WAT     H134958   5.926   4.475   4.387
11572WAT     H234959   6.088   4.476   4.361
11573WAT      O34960   0.465   1.950   6.436
11573WAT     H134961   0.520   1.933   6.517
11573WAT     H234962   0.380   1.898   6.441
11574WAT      O34963   8.447   0.726   9.677
11574WAT     H134964   8.354   0.696   9.655
11574WAT     H234965   8.504   0.721   9.595
11575WAT      O34966   6.995   9.784   5.736
11575WAT     H134967   6.962   9.767   5.643
11575WAT     H234968   7.085   9.742   5.747
11576WAT      O34969   7.921   9.255   3.845
11576WAT     H134970   7.967   9.289   3.763
11576WAT     H234971   7.827   9.229   3.823
11577WAT      O34972   5.302   1.815   0.524
11577WAT     H134973   5.255   1.782   0.606
11577WAT     H234974   5.401   1.821   0.542
11578WAT      O34975   3.178   1.570   7.144
11578WAT     H134976   3.162   1.496   7.209
11578WAT     H234977   3.097   1.582   7.086
11579WAT      O34978   3.306   9.356   5.170
11579WAT     H134979   3.303   9.434   5.107
11579WAT     H234980   3.234   9.366   5.238
11580WAT      O34981   7.719   2.573   9.619
11580WAT     H134982   7.707   2.479   9.589
11580WAT     H234983   7.705   2.635   9.542
11581WAT      O34984   7.070   7.125   8.108
11581WAT     H134985   7.169   7.116   8.105
11581WAT     H234986   7.037   7.098   8.199
11582WAT      O34987   7.134   8.369   4.247
11582WAT     H134988   7.065   8.299   4.225
11582WAT     H234989   7.088   8.454   4.271
11583WAT      O34990   0.162   0.197   6.426
11583WAT     H134991   0.208   0.123   6.376
11583WAT     H234992   0.231   0.253   6.473
11584WAT      O34993   8.543   5.895   3.063
11584WAT     H134994   8.480   5.961   3.103
11584WAT     H234995   8.585   5.841   3.136
11585WAT      O34996   8.172   0.451   5.045
11585WAT     H134997   8.084   0.494   5.065
11585WAT     H234998   8.182   0.368   5.101
11586WAT      O34999   5.892   2.387   8.809
11586WAT     H135000   5.956   2.421   8.740
11586WAT     H235001   5.885   2.288   8.802
11587WAT      O35002   0.511   9.566   4.441
11587WAT     H135003   0.561   9.545   4.525
11587WAT     H235004   0.523   9.663   4.419
11588WAT      O35005   0.469   1.570   4.737
11588WAT     H135006   0.537   1.571   4.811
11588WAT     H235007   0.378   1.559   4.776
11589WAT      O35008   7.773   5.220   8.808
11589WAT     H135009   7.822   5.234   8.722
11589WAT     H235010   7.812   5.141   8.856
11590WAT      O35011   3.403   7.900   1.172
11590WAT     H135012   3.357   7.910   1.083
11590WAT     H235013   3.446   7.810   1.176
11591WAT      O35014   9.461   8.035   8.315
11591WAT     H135015   9.545   7.999   8.274
11591WAT     H235016   9.386   8.027   8.250
11592WAT      O35017   6.448   1.210   2.897
11592WAT     H135018   6.544   1.227   2.874
11592WAT     H235019   6.391   1.233   2.818
11593WAT      O35020   6.021   5.540   3.169
11593WAT     H135021   6.077   5.508   3.092
11593WAT     H235022   5.936   5.578   3.134
11594WAT      O35023   8.459   8.595   1.188
11594WAT     H135024   8.491   8.610   1.094
11594WAT     H235025   8.397   8.669   1.214
11595WAT      O35026   4.952   8.916   6.771
11595WAT     H135027   4.864   8.959   6.750
11595WAT     H235028   5.007   8.978   6.826
11596WAT      O35029   9.681   6.447   0.905
11596WAT     H135030   9.672   6.505   0.825
11596WAT     H235031   9.681   6.503   0.988
11597WAT      O35032   8.645   8.253   8.166
11597WAT     H135033   8.555   8.209   8.162
11597WAT     H235034   8.709   8.205   8.107
11598WAT      O35035   5.563   5.947   7.415
11598WAT     H135036   5.612   5.905   7.490
11598WAT     H235037   5.564   6.047   7.426
11599WAT      O35038   2.740   2.689   5.201
11599WAT     H135039   2.655   2.661   5.156
11599WAT     H235040   2.732   2.784   5.232
11600WAT      O35041   9.479   7.684   5.797
11600WAT     H135042   9.379   7.684   5.786
11600WAT     H235043   9.518   7.757   5.740
11601WAT      O35044   2.399   8.826   5.364
11601WAT     H135045   2.328   8.757   5.377
11601WAT     H235046   2.366   8.914   5.397
11602WAT      O35047   3.749   8.151   2.121
11602WAT     H135048   3.767   8.151   2.219
11602WAT     H235049   3.812   8.214   2.075
11603WAT      O35050   0.740   9.286   2.977
11603WAT     H135051   0.646   9.310   3.002
11603WAT     H235052   0.742   9.248   2.885
11604WAT      O35053   7.573   1.829   9.344
11604WAT     H135054   7.660   1.849   9.299
11604WAT     H235055   7.503   1.893   9.313
11605WAT      O35056   4.998   8.344   4.501
11605WAT     H135057   4.969   8.297   4.584
11605WAT     H235058   4.997   8.443   4.517
11606WAT      O35059   1.883   3.996   7.552
11606WAT     H135060   1.891   3.931   7.477
11606WAT     H235061   1.895   4.089   7.518
11607WAT      O35062   2.615   0.344   2.684
11607WAT     H135063   2.714   0.355   2.676
11607WAT     H235064   2.569   0.408   2.622
11608WAT      O35065   1.724   7.696   2.309
11608WAT     H135066   1.731   7.715   2.211
11608WAT     H235067   1.787   7.622   2.333
11609WAT      O35068   6.401   4.078   1.467
11609WAT     H135069   6.405   3.992   1.417
11609WAT     H235070   6.477   4.082   1.532
11610WAT      O35071   0.789   3.957   5.015
11610WAT     H135072   0.831   3.880   5.063
11610WAT     H235073   0.732   4.009   5.079
11611WAT      O35074   4.979   2.184   8.798
11611WAT     H135075   4.887   2.149   8.817
11611WAT     H235076   4.996   2.265   8.854
11612WAT      O35077   4.060   6.785   1.427
11612WAT     H135078   4.060   6.849   1.504
11612WAT     H235079   4.132   6.811   1.363
11613WAT      O35080   7.890   8.021   5.757
11613WAT     H135081   7.975   8.035   5.706
11613WAT     H235082   7.835   8.104   5.755
11614WAT      O35083   1.145   1.472   6.595
11614WAT     H135084   1.195   1.559   6.592
11614WAT     H235085   1.200   1.403   6.643
11615WAT      O35086   8.158   3.681   5.159
11615WAT     H135087   8.112   3.758   5.202
11615WAT     H235088   8.092   3.629   5.105
11616WAT      O35089   2.057   5.100   2.940
11616WAT     H135090   2.007   5.185   2.923
11616WAT     H235091   2.045   5.074   3.036
11617WAT      O35092   6.006   2.090   9.536
11617WAT     H135093   6.088   2.035   9.544
11617WAT     H235094   6.025   2.184   9.564
11618WAT      O35095   4.544   3.824   8.472
11618WAT     H135096   4.527   3.762   8.549
11618WAT     H235097   4.488   3.906   8.481
11619WAT      O35098   5.324   1.192   5.749
11619WAT     H135099   5.351   1.217   5.656
11619WAT     H235100   5.405   1.158   5.798
11620WAT      O35101   5.923   7.042   8.428
11620WAT     H135102   5.915   7.002   8.337
11620WAT     H235103   5.997   6.997   8.478
11621WAT      O35104   9.484   4.655   1.511
11621WAT     H135105   9.429   4.645   1.594
11621WAT     H235106   9.456   4.738   1.463
11622WAT      O35107   3.634   3.448   7.720
11622WAT     H135108   3.591   3.431   7.809
11622WAT     H235109   3.730   3.420   7.723
11623WAT      O35110   4.580   7.667   6.486
11623WAT     H135111   4.530   7.753   6.483
11623WAT     H235112   4.575   7.629   6.578
11624WAT      O35113   8.390   8.336   7.829
11624WAT     H135114   8.323   8.301   7.893
11624WAT     H235115   8.391   8.279   7.747
11625WAT      O35116   6.067   0.533   0.850
11625WAT     H135117   6.164   0.556   0.854
11625WAT     H235118   6.055   0.435   0.867
11626WAT      O35119   5.893   2.376   5.852
11626WAT     H135120   5.874   2.286   5.814
11626WAT     H235121   5.866   2.446   5.786
11627WAT      O35122   1.959   7.401   1.946
11627WAT     H135123   1.945   7.431   1.852
11627WAT     H235124   2.056   7.383   1.962
11628WAT      O35125   1.021   4.669   1.396
11628WAT     H135126   1.104   4.630   1.357
11628WAT     H235127   0.958   4.595   1.420
11629WAT      O35128   2.706   7.848   9.143
11629WAT     H135129   2.743   7.789   9.071
11629WAT     H235130   2.714   7.944   9.115
11630WAT      O35131   8.376   0.967   8.207
11630WAT     H135132   8.450   0.900   8.198
11630WAT     H235133   8.288   0.922   8.196
11631WAT      O35134   3.989   5.974   1.667
11631WAT     H135135   3.966   5.939   1.576
11631WAT     H235136   4.066   5.923   1.704
11632WAT      O35137   6.425   3.480   4.466
11632WAT     H135138   6.462   3.549   4.528
11632WAT     H235139   6.340   3.444   4.503
11633WAT      O35140   1.280   1.870   9.168
11633WAT     H135141   1.316   1.883   9.075
11633WAT     H235142   1.269   1.959   9.212
11634WAT      O35143   1.237   3.825   3.356
11634WAT     H135144   1.158   3.780   3.399
11634WAT     H235145   1.302   3.755   3.324
11635WAT      O35146   1.425   4.019   4.231
11635WAT     H135147   1.337   4.033   4.277
11635WAT     H235148   1.428   3.928   4.191
11636WAT      O35149   2.457   1.756   9.361
11636WAT     H135150   2.403   1.695   9.419
11636WAT     H235151   2.396   1.820   9.314
11637WAT      O35152   4.667   5.442   2.414
11637WAT     H135153   4.638   5.537   2.427
11637WAT     H235154   4.764   5.440   2.393
11638WAT      O35155   0.593   4.775   0.499
11638WAT     H135156   0.630   4.758   0.591
11638WAT     H235157   0.556   4.689   0.462
11639WAT      O35158   7.720   8.180   9.515
11639WAT     H135159   7.625   8.204   9.493
11639WAT     H235160   7.758   8.127   9.440
11640WAT      O35161   3.066   7.202   5.607
11640WAT     H135162   3.033   7.113   5.574
11640WAT     H235163   3.075   7.264   5.529
11641WAT      O35164   1.722   8.700   6.871
11641WAT     H135165   1.702   8.615   6.920
11641WAT     H235166   1.704   8.687   6.774
11642WAT      O35167   4.350   5.030   3.443
11642WAT     H135168   4.418   5.000   3.511
11642WAT     H235169   4.346   4.963   3.369
11643WAT      O35170   3.466   0.874   8.513
11643WAT     H135171   3.560   0.906   8.509
11643WAT     H235172   3.461   0.780   8.480
11644WAT      O35173   1.275   5.607   4.366
11644WAT     H135174   1.336   5.545   4.318
11644WAT     H235175   1.213   5.651   4.301
11645WAT      O35176   1.099   3.608   1.934
11645WAT     H135177   1.053   3.614   1.845
11645WAT     H235178   1.082   3.692   1.985
11646WAT      O35179   6.434   5.637   8.136
11646WAT     H135180   6.361   5.572   8.157
11646WAT     H235181   6.469   5.618   8.044
11647WAT      O35182   6.985   8.767   9.080
11647WAT     H135183   7.039   8.810   9.008
11647WAT     H235184   6.891   8.801   9.075
11648WAT      O35185   3.643   8.790   4.824
11648WAT     H135186   3.561   8.779   4.880
11648WAT     H235187   3.719   8.819   4.883
11649WAT      O35188   2.619   6.127   6.860
11649WAT     H135189   2.550   6.164   6.922
11649WAT     H235190   2.658   6.201   6.806
11650WAT      O35191   2.173   7.971   3.251
11650WAT     H135192   2.173   7.875   3.222
11650WAT     H235193   2.113   7.981   3.331
11651WAT      O35194   3.267   0.428   7.613
11651WAT     H135195   3.189   0.390   7.661
11651WAT     H235196   3.256   0.527   7.604
11652WAT      O35197   0.223   8.522   0.842
11652WAT     H135198   0.318   8.551   0.836
11652WAT     H235199   0.181   8.527   0.752
11653WAT      O35200   4.697   4.606   7.046
11653WAT     H135201   4.604   4.577   7.069
11653WAT     H235202   4.760   4.579   7.119
11654WAT      O35203   2.569   0.357   0.646
11654WAT     H135204   2.497   0.300   0.605
11654WAT     H235205   2.657   0.331   0.607
11655WAT      O35206   6.703   6.930   2.321
11655WAT     H135207   6.643   6.916   2.242
11655WAT     H235208   6.654   6.903   2.405
11656WAT      O35209   6.410   4.973   7.261
11656WAT     H135210   6.337   4.932   7.315
11656WAT     H235211   6.389   4.964   7.164
11657WAT      O35212   0.556   8.637   6.032
11657WAT     H135213   0.576   8.668   5.939
11657WAT     H235214   0.624   8.571   6.061
11658WAT      O35215   9.794   7.833   6.342
11658WAT     H135216   9.722   7.856   6.408
11658WAT     H235217   9.779   7.741   6.306
11659WAT      O35218   1.645   9.511   8.814
11659WAT     H135219   1.704   9.453   8.759
11659WAT     H235220   1.624   9.595   8.764
11660WAT      O35221   8.904   9.278   0.373
11660WAT     H135222   8.958   9.339   0.431
11660WAT     H235223   8.888   9.192   0.421
11661WAT      O35224   6.190   6.878   7.624
11661WAT     H135225   6.199   6.911   7.530
11661WAT     H235226   6.226   6.785   7.631
11662WAT      O35227   0.846   7.175   4.043
11662WAT     H135228   0.857   7.080   4.015
11662WAT     H235229   0.915   7.199   4.111
11663WAT      O35230   4.900   4.939   9.885
11663WAT     H135231   4.893   4.912   9.789
11663WAT     H235232   4.929   4.861   9.940
11664WAT      O35233   8.445   5.330   4.076
11664WAT     H135234   8.376   5.397   4.103
11664WAT     H235235   8.429   5.301   3.982
11665WAT      O35236   1.317   9.143   1.213
11665WAT     H135237   1.248   9.108   1.276
11665WAT     H235238   1.402   9.160   1.263
11666WAT      O35239   1.199   9.744   0.856
11666WAT     H135240   1.172   9.651   0.880
11666WAT     H235241   1.123   9.807   0.877
11667WAT      O35242   6.804   8.166   7.695
11667WAT     H135243   6.883   8.212   7.736
11667WAT     H235244   6.795   8.074   7.733
11668WAT      O35245   2.712   4.547   6.351
11668WAT     H135246   2.678   4.453   6.349
11668WAT     H235247   2.753   4.566   6.440
11669WAT      O35248   2.163   3.732   2.589
11669WAT     H135249   2.227   3.739   2.512
11669WAT     H235250   2.093   3.804   2.580
11670WAT      O35251   5.114   3.637   0.516
11670WAT     H135252   5.067   3.580   0.583
11670WAT     H235253   5.119   3.731   0.550
11671WAT      O35254   8.964   5.853   6.371
11671WAT     H135255   8.990   5.860   6.274
11671WAT     H235256   9.006   5.772   6.411
11672WAT      O35257   4.493   0.427   5.090
11672WAT     H135258   4.470   0.418   4.993
11672WAT     H235259   4.445   0.356   5.142
11673WAT      O35260   0.539   3.955   2.129
11673WAT     H135261   0.495   3.980   2.044
11673WAT     H235262   0.520   4.025   2.199
11674WAT      O35263   6.252   2.948   6.544
11674WAT     H135264   6.160   2.974   6.571
11674WAT     H235265   6.308   2.935   6.626
11675WAT      O35266   9.842   5.172   4.676
11675WAT     H135267   9.898   5.155   4.757
11675WAT     H235268   9.768   5.105   4.672
11676WAT      O35269   9.227   8.330   7.257
11676WAT     H135270   9.244   8.243   7.303
11676WAT     H235271   9.221   8.315   7.158
11677WAT      O35272   3.349   5.672   7.557
11677WAT     H135273   3.365   5.739   7.630
11677WAT     H235274   3.393   5.704   7.473
11678WAT      O35275   2.569   5.328   8.971
11678WAT     H135276   2.667   5.316   8.956
11678WAT     H235277   2.553   5.414   9.019
11679WAT      O35278   6.902   2.548   0.409
11679WAT     H135279   7.000   2.543   0.390
11679WAT     H235280   6.853   2.483   0.350
11680WAT      O35281   3.236   2.842   9.652
11680WAT     H135282   3.183   2.778   9.595
11680WAT     H235283   3.192   2.850   9.741
11681WAT      O35284   2.941   6.870   3.615
11681WAT     H135285   2.993   6.937   3.667
11681WAT     H235286   2.844   6.890   3.621
11682WAT      O35287   5.197   0.970   1.913
11682WAT     H135288   5.211   0.947   2.009
11682WAT     H235289   5.112   1.022   1.902
11683WAT      O35290   4.840   0.644   9.141
11683WAT     H135291   4.823   0.638   9.239
11683WAT     H235292   4.936   0.623   9.123
11684WAT      O35293   8.607   6.384   4.124
11684WAT     H135294   8.588   6.361   4.219
11684WAT     H235295   8.547   6.458   4.094
11685WAT      O35296   8.979   1.577   2.484
11685WAT     H135297   8.888   1.617   2.494
11685WAT     H235298   9.046   1.650   2.472
11686WAT      O35299   3.395   9.246   8.956
11686WAT     H135300   3.493   9.264   8.953
11686WAT     H235301   3.366   9.202   8.871
11687WAT      O35302   3.771   3.892   4.938
11687WAT     H135303   3.726   3.959   4.997
11687WAT     H235304   3.740   3.800   4.960
11688WAT      O35305   2.778   0.872   7.015
11688WAT     H135306   2.838   0.857   6.937
11688WAT     H235307   2.731   0.787   7.038
11689WAT      O35308   9.199   0.209   3.326
11689WAT     H135309   9.120   0.150   3.343
11689WAT     H235310   9.184   0.261   3.242
11690WAT      O35311   2.602   8.594   1.277
11690WAT     H135312   2.546   8.545   1.210
11690WAT     H235313   2.544   8.625   1.352
11691WAT      O35314   7.588   4.495   4.540
11691WAT     H135315   7.687   4.494   4.558
11691WAT     H235316   7.567   4.431   4.467
11692WAT      O35317   2.765   2.702   0.263
11692WAT     H135318   2.822   2.735   0.338
11692WAT     H235319   2.799   2.612   0.233
11693WAT      O35320   8.448   8.142   9.773
11693WAT     H135321   8.511   8.124   9.849
11693WAT     H235322   8.496   8.192   9.701
11694WAT      O35323   5.542   4.633   7.261
11694WAT     H135324   5.526   4.668   7.168
11694WAT     H235325   5.636   4.652   7.288
11695WAT      O35326   1.169   3.351   5.514
11695WAT     H135327   1.240   3.379   5.449
11695WAT     H235328   1.208   3.349   5.606
11696WAT      O35329   0.955   1.984   5.964
11696WAT     H135330   0.911   2.051   6.024
11696WAT     H235331   0.967   1.898   6.012
11697WAT      O35332   3.313   1.999   6.625
11697WAT     H135333   3.359   1.962   6.544
11697WAT     H235334   3.377   2.056   6.676
11698WAT      O35335   5.409   2.245   4.317
11698WAT     H135336   5.418   2.147   4.301
11698WAT     H235337   5.445   2.295   4.239
11699WAT      O35338   7.893   9.204   2.334
11699WAT     H135339   7.960   9.130   2.331
11699WAT     H235340   7.922   9.273   2.401
11700WAT      O35341   3.180   1.432   8.760
11700WAT     H135342   3.203   1.346   8.715
11700WAT     H235343   3.261   1.469   8.805
11701WAT      O35344   6.804   5.393   8.310
11701WAT     H135345   6.752   5.378   8.226
11701WAT     H235346   6.745   5.432   8.380
11702WAT      O35347   8.002   4.653   7.692
11702WAT     H135348   8.054   4.575   7.725
11702WAT     H235349   7.904   4.637   7.707
11703WAT      O35350   6.917   0.226   2.906
11703WAT     H135351   6.980   0.290   2.948
11703WAT     H235352   6.833   0.274   2.880
11704WAT      O35353   8.592   3.750   2.031
11704WAT     H135354   8.677   3.727   2.079
11704WAT     H235355   8.514   3.734   2.091
11705WAT      O35356   2.914   0.460   3.606
11705WAT     H135357   2.853   0.397   3.656
11705WAT     H235358   2.869   0.487   3.521
11706WAT      O35359   2.633   6.095   5.472
11706WAT     H135360   2.582   6.160   5.528
11706WAT     H235361   2.722   6.135   5.448
11707WAT      O35362   6.177   9.731   2.290
11707WAT     H135363   6.087   9.766   2.315
11707WAT     H235364   6.167   9.662   2.218
11708WAT      O35365   8.203   5.269   6.116
11708WAT     H135366   8.106   5.283   6.095
11708WAT     H235367   8.246   5.217   6.042
11709WAT      O35368   1.315   1.487   4.140
11709WAT     H135369   1.217   1.491   4.156
11709WAT     H235370   1.364   1.500   4.226
11710WAT      O35371   9.689   8.601   9.334
11710WAT     H135372   9.695   8.652   9.420
11710WAT     H235373   9.771   8.616   9.280
11711WAT      O35374   4.746   3.940   9.401
11711WAT     H135375   4.740   3.890   9.487
11711WAT     H235376   4.826   4.000   9.403
11712WAT      O35377   0.250   6.197   6.940
11712WAT     H135378   0.304   6.239   7.012
11712WAT     H235379   0.165   6.160   6.979
11713WAT      O35380   8.793   2.157   3.033
11713WAT     H135381   8.803   2.100   3.114
11713WAT     H235382   8.859   2.233   3.037
11714WAT      O35383   4.042   8.844   5.824
11714WAT     H135384   3.997   8.894   5.750
11714WAT     H235385   4.001   8.753   5.832
11715WAT      O35386   4.674   5.802   1.732
11715WAT     H135387   4.678   5.805   1.632
11715WAT     H235388   4.766   5.812   1.769
11716WAT      O35389   7.161   6.066   3.299
11716WAT     H135390   7.219   5.985   3.296
11716WAT     H235391   7.209   6.140   3.347
11717WAT      O35392   1.511   5.127   7.907
11717WAT     H135393   1.579   5.092   7.971
11717WAT     H235394   1.430   5.067   7.909
11718WAT      O35395   2.868   5.160   7.092
11718WAT     H135396   2.841   5.097   7.165
11718WAT     H235397   2.931   5.227   7.128
11719WAT      O35398   3.570   7.902   6.747
11719WAT     H135399   3.604   7.953   6.826
11719WAT     H235400   3.481   7.938   6.720
11720WAT      O35401   4.232   8.070   3.851
11720WAT     H135402   4.293   7.996   3.826
11720WAT     H235403   4.141   8.033   3.873
11721WAT      O35404   8.811   7.562   8.869
11721WAT     H135405   8.797   7.631   8.798
11721WAT     H235406   8.727   7.510   8.882
11722WAT      O35407   2.562   2.495   6.664
11722WAT     H135408   2.533   2.408   6.704
11722WAT     H235409   2.637   2.478   6.600
11723WAT      O35410   3.440   5.206   4.302
11723WAT     H135411   3.448   5.106   4.295
11723WAT     H235412   3.474   5.236   4.392
11724WAT      O35413   1.149   4.000   9.403
11724WAT     H135414   1.083   3.975   9.474
11724WAT     H235415   1.189   4.089   9.425
11725WAT      O35416   2.044   9.736   3.940
11725WAT     H135417   2.133   9.779   3.926
11725WAT     H235418   1.972   9.805   3.932
11726WAT      O35419   1.790   7.952   8.970
11726WAT     H135420   1.718   8.021   8.972
11726WAT     H235421   1.767   7.879   9.034
11727WAT      O35422   8.325   7.050   7.343
11727WAT     H135423   8.403   6.989   7.331
11727WAT     H235424   8.240   7.000   7.328
11728WAT      O35425   3.487   0.614   7.950
11728WAT     H135426   3.478   0.515   7.940
11728WAT     H235427   3.528   0.652   7.867
11729WAT      O35428   0.863   1.838   1.532
11729WAT     H135429   0.873   1.752   1.582
11729WAT     H235430   0.790   1.892   1.575
11730WAT      O35431   9.080   6.766   9.890
11730WAT     H135432   9.051   6.860   9.877
11730WAT     H235433   9.172   6.764   9.930
11731WAT      O35434   4.238   5.218   6.695
11731WAT     H135435   4.331   5.180   6.692
11731WAT     H235436   4.244   5.318   6.704
11732WAT      O35437   1.331   7.026   7.901
11732WAT     H135438   1.326   7.124   7.878
11732WAT     H235439   1.248   7.000   7.951
11733WAT      O35440   0.076   5.917   8.910
11733WAT     H135441   0.165   5.947   8.874
11733WAT     H235442   0.005   5.934   8.842
11734WAT      O35443   4.650   9.551   8.902
11734WAT     H135444   4.581   9.551   8.830
11734WAT     H235445   4.649   9.639   8.951
11735WAT      O35446   0.787   7.624   8.577
11735WAT     H135447   0.850   7.702   8.583
11735WAT     H235448   0.784   7.578   8.666
11736WAT      O35449   5.589   0.009   8.135
11736WAT     H135450   5.675   0.022   8.183
11736WAT     H235451   5.521  -0.028   8.198
11737WAT      O35452   1.993   4.567   5.601
11737WAT     H135453   1.941   4.651   5.584
11737WAT     H235454   2.089   4.589   5.614
11738WAT      O35455   9.417   2.572   8.236
11738WAT     H135456   9.417   2.588   8.335
11738WAT     H235457   9.346   2.627   8.193
11739WAT      O35458   7.261   4.953   3.977
11739WAT     H135459   7.239   4.859   4.004
11739WAT     H235460   7.344   4.983   4.025
11740WAT      O35461   9.234   5.307   6.200
11740WAT     H135462   9.319   5.275   6.244
11740WAT     H235463   9.192   5.377   6.258
11741WAT      O35464   7.207   9.274   8.619
11741WAT     H135465   7.195   9.353   8.560
11741WAT     H235466   7.165   9.194   8.577
11742WAT      O35467   6.700   8.343   3.201
11742WAT     H135468   6.665   8.284   3.274
11742WAT     H235469   6.774   8.296   3.152
11743WAT      O35470   1.767   3.504   0.695
11743WAT     H135471   1.760   3.603   0.702
11743WAT     H235472   1.859   3.474   0.722
11744WAT      O35473   1.528   9.607   3.071
11744WAT     H135474   1.488   9.528   3.119
11744WAT     H235475   1.526   9.591   2.973
11745WAT      O35476   3.609   1.711   5.944
11745WAT     H135477   3.578   1.774   6.016
11745WAT     H235478   3.531   1.686   5.886
11746WAT      O35479   1.451   7.576   7.448
11746WAT     H135480   1.514   7.538   7.382
11746WAT     H235481   1.447   7.517   7.529
11747WAT      O35482   3.508   3.333   1.118
11747WAT     H135483   3.475   3.239   1.129
11747WAT     H235484   3.431   3.396   1.114
11748WAT      O35485   6.070   2.584   1.726
11748WAT     H135486   6.049   2.599   1.822
11748WAT     H235487   6.040   2.663   1.672
11749WAT      O35488   6.672   5.149   8.402
11749WAT     H135489   6.723   5.221   8.355
11749WAT     H235490   6.695   5.060   8.363
11750WAT      O35491   6.501   3.556   8.411
11750WAT     H135492   6.502   3.471   8.358
11750WAT     H235493   6.408   3.593   8.412
11751WAT      O35494   7.118   6.055   7.014
11751WAT     H135495   7.180   6.024   7.087
11751WAT     H235496   7.045   6.110   7.055
11752WAT      O35497   3.454   0.896   3.232
11752WAT     H135498   3.509   0.958   3.176
11752WAT     H235499   3.381   0.947   3.277
11753WAT      O35500   7.850   2.700   1.607
11753WAT     H135501   7.897   2.612   1.598
11753WAT     H235502   7.888   2.764   1.540
11754WAT      O35503   9.358   5.309   0.043
11754WAT     H135504   9.276   5.269   0.001
11754WAT     H235505   9.365   5.279   0.138
11755WAT      O35506   2.316   4.177   9.167
11755WAT     H135507   2.248   4.204   9.099
11755WAT     H235508   2.406   4.207   9.138
11756WAT      O35509   7.315   1.854   2.760
11756WAT     H135510   7.268   1.819   2.679
11756WAT     H235511   7.408   1.817   2.763
11757WAT      O35512   4.874   0.886   9.039
11757WAT     H135513   4.919   0.861   8.953
11757WAT     H235514   4.859   0.804   9.094
11758WAT      O35515   8.413   3.889   6.898
11758WAT     H135516   8.503   3.850   6.879
11758WAT     H235517   8.353   3.817   6.932
11759WAT      O35518   5.051   1.618   0.143
11759WAT     H135519   5.138   1.666   0.139
11759WAT     H235520   5.017   1.602   0.050
11760WAT      O35521   8.846   2.411   8.344
11760WAT     H135522   8.875   2.403   8.249
11760WAT     H235523   8.859   2.505   8.376
11761WAT      O35524   9.833   2.842   8.395
11761WAT     H135525   9.857   2.913   8.328
11761WAT     H235526   9.896   2.765   8.386
11762WAT      O35527   7.470   3.037   5.343
11762WAT     H135528   7.489   3.026   5.440
11762WAT     H235529   7.430   2.952   5.307
11763WAT      O35530   5.708   0.139   5.756
11763WAT     H135531   5.748   0.225   5.722
11763WAT     H235532   5.645   0.160   5.831
11764WAT      O35533   1.830   4.141   4.652
11764WAT     H135534   1.763   4.068   4.640
11764WAT     H235535   1.783   4.230   4.655
11765WAT      O35536   1.636   9.250   7.360
11765WAT     H135537   1.684   9.334   7.381
11765WAT     H235538   1.702   9.179   7.334
11766WAT      O35539   0.066   4.827   4.129
11766WAT     H135540  -0.006   4.781   4.180
11766WAT     H235541   0.029   4.861   4.042
11767WAT      O35542   3.417   3.803   7.391
11767WAT     H135543   3.375   3.815   7.481
11767WAT     H235544   3.517   3.805   7.399
11768WAT      O35545   0.423   8.001   3.027
11768WAT     H135546   0.469   7.928   3.078
11768WAT     H235547   0.489   8.043   2.964
11769WAT      O35548   6.955   4.972   3.307
11769WAT     H135549   6.990   4.967   3.213
11769WAT     H235550   6.863   4.933   3.311
11770WAT      O35551   0.724   4.245   0.770
11770WAT     H135552   0.636   4.292   0.767
11770WAT     H235553   0.782   4.287   0.839
11771WAT      O35554   3.917   4.441   7.614
11771WAT     H135555   3.913   4.540   7.630
11771WAT     H235556   3.875   4.420   7.526
11772WAT      O35557   5.022   3.170   1.282
11772WAT     H135558   5.089   3.178   1.208
11772WAT     H235559   4.941   3.222   1.259
11773WAT      O35560   2.357   6.016   0.375
11773WAT     H135561   2.312   6.100   0.405
11773WAT     H235562   2.446   6.008   0.420
11774WAT      O35563   8.755   2.467   7.744
11774WAT     H135564   8.759   2.558   7.785
11774WAT     H235565   8.708   2.472   7.656
11775WAT      O35566   1.656   2.132   2.936
11775WAT     H135567   1.565   2.154   2.901
11775WAT     H235568   1.663   2.034   2.954
11776WAT      O35569   3.294   3.387   7.065
11776WAT     H135570   3.284   3.474   7.113
11776WAT     H235571   3.204   3.349   7.045
11777WAT      O35572   5.225   0.568   0.890
11777WAT     H135573   5.220   0.506   0.812
11777WAT     H235574   5.272   0.523   0.966
11778WAT      O35575   0.611   6.119   4.039
11778WAT     H135576   0.692   6.064   4.057
11778WAT     H235577   0.611   6.147   3.943
11779WAT      O35578   7.278   7.153   0.424
11779WAT     H135579   7.268   7.089   0.500
11779WAT     H235580   7.267   7.247   0.457
11780WAT      O35581   9.182   0.298   4.177
11780WAT     H135582   9.123   0.218   4.166
11780WAT     H235583   9.182   0.327   4.273
11781WAT      O35584   2.141   1.689   5.586
11781WAT     H135585   2.177   1.771   5.541
11781WAT     H235586   2.089   1.716   5.667
11782WAT      O35587   1.704   7.076   1.150
11782WAT     H135588   1.782   7.131   1.177
11782WAT     H235589   1.716   7.045   1.056
11783WAT      O35590   8.146   3.969   7.198
11783WAT     H135591   8.222   3.943   7.257
11783WAT     H235592   8.155   4.065   7.171
11784WAT      O35593   6.980   3.912   4.872
11784WAT     H135594   6.887   3.949   4.878
11784WAT     H235595   7.027   3.926   4.959
11785WAT      O35596   4.229   0.483   9.875
11785WAT     H135597   4.185   0.525   9.795
11785WAT     H235598   4.328   0.476   9.858
11786WAT      O35599   2.457   2.027   7.958
11786WAT     H135600   2.376   2.083   7.973
11786WAT     H235601   2.445   1.973   7.874
11787WAT      O35602   0.055   4.225   5.673
11787WAT     H135603  -0.023   4.182   5.719
11787WAT     H235604   0.103   4.156   5.618
11788WAT      O35605   4.409   4.997   6.996
11788WAT     H135606   4.469   4.927   6.957
11788WAT     H235607   4.321   4.996   6.950
11789WAT      O35608   7.832   4.773   4.568
11789WAT     H135609   7.799   4.848   4.512
11789WAT     H235610   7.869   4.809   4.654
11790WAT      O35611   4.391   2.293   8.507
11790WAT     H135612   4.441   2.208   8.519
11790WAT     H235613   4.455   2.370   8.506
11791WAT      O35614   2.070   3.292   5.849
11791WAT     H135615   2.141   3.361   5.834
11791WAT     H235616   2.110   3.211   5.892
11792WAT      O35617   0.741   5.481   7.013
11792WAT     H135618   0.806   5.543   7.057
11792WAT     H235619   0.752   5.389   7.050
11793WAT      O35620   5.333   3.281   3.662
11793WAT     H135621   5.349   3.334   3.578
11793WAT     H235622   5.408   3.297   3.726
11794WAT      O35623   2.652   4.978   9.510
11794WAT     H135624   2.681   5.049   9.446
11794WAT     H235625   2.574   4.928   9.472
11795WAT      O35626   6.503   4.928   1.104
11795WAT     H135627   6.594   4.907   1.140
11795WAT     H235628   6.457   4.994   1.164
11796WAT      O35629   2.588   7.362   3.836
11796WAT     H135630   2.552   7.357   3.743
11796WAT     H235631   2.631   7.275   3.860
11797WAT      O35632   1.415   0.581   1.063
11797WAT     H135633   1.502   0.538   1.040
11797WAT     H235634   1.426   0.681   1.062
11798WAT      O35635   1.144   0.686   6.884
11798WAT     H135636   1.083   0.713   6.810
11798WAT     H235637   1.221   0.749   6.888
11799WAT      O35638   8.879   3.339   5.442
11799WAT     H135639   8.801   3.293   5.399
11799WAT     H235640   8.885   3.433   5.409
11800WAT      O35641   7.243   8.377   3.976
11800WAT     H135642   7.215   8.309   3.908
11800WAT     H235643   7.214   8.346   4.067
11801WAT      O35644   1.906   4.183   8.868
11801WAT     H135645   1.849   4.189   8.786
11801WAT     H235646   1.850   4.204   8.949
11802WAT      O35647   2.238   6.759   2.413
11802WAT     H135648   2.289   6.828   2.362
11802WAT     H235649   2.272   6.668   2.390
11803WAT      O35650   7.990   9.830   0.082
11803WAT     H135651   7.956   9.767   0.012
11803WAT     H235652   8.067   9.882   0.045
11804WAT      O35653   2.820   5.079   1.447
11804WAT     H135654   2.884   5.104   1.375
11804WAT     H235655   2.736   5.042   1.406
11805WAT      O35656   6.281   6.546   2.377
11805WAT     H135657   6.282   6.454   2.416
11805WAT     H235658   6.346   6.550   2.300
11806WAT      O35659   3.618   1.377   7.579
11806WAT     H135660   3.594   1.307   7.647
11806WAT     H235661   3.535   1.420   7.545
11807WAT      O35662   4.874   0.533   8.131
11807WAT     H135663   4.968   0.501   8.137
11807WAT     H235664   4.841   0.524   8.037
11808WAT      O35665   8.081   1.243   2.869
11808WAT     H135666   7.983   1.222   2.865
11808WAT     H235667   8.111   1.279   2.781
11809WAT      O35668   8.463   7.407   8.626
11809WAT     H135669   8.454   7.384   8.529
11809WAT     H235670   8.553   7.447   8.643
11810WAT      O35671   3.095   2.546   9.192
11810WAT     H135672   3.103   2.631   9.141
11810WAT     H235673   2.998   2.519   9.196
11811WAT      O35674   7.919   5.676   8.662
11811WAT     H135675   7.980   5.638   8.731
11811WAT     H235676   7.968   5.746   8.610
11812WAT      O35677   4.417   9.789   1.395
11812WAT     H135678   4.422   9.873   1.341
11812WAT     H235679   4.459   9.714   1.343
11813WAT      O35680   8.869   7.797   2.557
11813WAT     H135681   8.850   7.820   2.653
11813WAT     H235682   8.932   7.719   2.553
11814WAT      O35683   2.178   6.433   2.678
11814WAT     H135684   2.150   6.349   2.631
11814WAT     H235685   2.276   6.446   2.668
11815WAT      O35686   9.328   5.918   4.217
11815WAT     H135687   9.290   5.995   4.269
11815WAT     H235688   9.358   5.950   4.127
11816WAT      O35689   3.804   8.502   9.165
11816WAT     H135690   3.819   8.500   9.066
11816WAT     H235691   3.892   8.519   9.211
11817WAT      O35692   6.042   1.017   3.491
11817WAT     H135693   5.944   1.035   3.488
11817WAT     H235694   6.059   0.921   3.472
11818WAT      O35695   5.190   8.348   7.065
11818WAT     H135696   5.169   8.308   7.154
11818WAT     H235697   5.220   8.275   7.003
11819WAT      O35698   8.793   2.810   7.926
11819WAT     H135699   8.869   2.783   7.984
11819WAT     H235700   8.827   2.866   7.850
11820WAT      O35701   5.703   0.196   1.749
11820WAT     H135702   5.775   0.261   1.772
11820WAT     H235703   5.723   0.155   1.660
11821WAT      O35704   0.909   7.692   3.279
11821WAT     H135705   0.907   7.592   3.279
11821WAT     H235706   0.954   7.724   3.362
11822WAT      O35707   1.115   2.016   1.772
11822WAT     H135708   1.031   2.068   1.757
11822WAT     H235709   1.152   1.987   1.684
11823WAT      O35710   6.606   5.264   8.925
11823WAT     H135711   6.633   5.329   8.996
11823WAT     H235712   6.666   5.273   8.846
11824WAT      O35713   3.866   0.453   6.210
11824WAT     H135714   3.886   0.385   6.140
11824WAT     H235715   3.878   0.413   6.301
11825WAT      O35716   4.874   7.220   6.042
11825WAT     H135717   4.932   7.196   6.119
11825WAT     H235718   4.885   7.317   6.020
11826WAT      O35719   3.173   9.056   2.567
11826WAT     H135720   3.255   9.078   2.514
11826WAT     H235721   3.099   9.031   2.505
11827WAT      O35722   7.842   1.037   7.462
11827WAT     H135723   7.822   1.110   7.528
11827WAT     H235724   7.763   0.976   7.456
11828WAT      O35725   2.579   2.811   8.046
11828WAT     H135726   2.630   2.896   8.032
11828WAT     H235727   2.627   2.754   8.113
11829WAT      O35728   9.204   5.342   4.691
11829WAT     H135729   9.162   5.355   4.781
11829WAT     H235730   9.225   5.431   4.651
11830WAT      O35731   0.741   4.940   5.593
11830WAT     H135732   0.663   4.905   5.540
11830WAT     H235733   0.814   4.968   5.530
11831WAT      O35734   6.660   5.618   1.988
11831WAT     H135735   6.749   5.618   1.942
11831WAT     H235736   6.673   5.603   2.085
11832WAT      O35737   8.824   3.206   0.166
11832WAT     H135738   8.892   3.255   0.220
11832WAT     H235739   8.735   3.250   0.176
11833WAT      O35740   9.680   5.089   0.283
11833WAT     H135741   9.631   5.174   0.260
11833WAT     H235742   9.616   5.023   0.322
11834WAT      O35743   1.948   9.562   5.093
11834WAT     H135744   1.870   9.611   5.131
11834WAT     H235745   1.952   9.470   5.133
11835WAT      O35746   5.118   2.857   3.381
11835WAT     H135747   5.121   2.932   3.447
11835WAT     H235748   5.149   2.773   3.425
11836WAT      O35749   5.430   7.150   8.067
11836WAT     H135750   5.418   7.115   7.974
11836WAT     H235751   5.516   7.117   8.104
11837WAT      O35752   8.947   1.748   7.522
11837WAT     H135753   8.913   1.824   7.466
11837WAT     H235754   8.911   1.662   7.485
11838WAT      O35755   5.020   7.062   3.741
11838WAT     H135756   4.974   7.003   3.807
11838WAT     H235757   5.040   7.010   3.658
11839WAT      O35758   0.332   2.829   5.129
11839WAT     H135759   0.335   2.793   5.035
11839WAT     H235760   0.404   2.897   5.142
11840WAT      O35761   5.016   0.082   2.839
11840WAT     H135762   4.940   0.131   2.794
11840WAT     H235763   5.029  -0.007   2.795
11841WAT      O35764   9.330   9.423   4.000
11841WAT     H135765   9.382   9.509   4.011
11841WAT     H235766   9.339   9.369   4.083
11842WAT      O35767   4.430   4.115   3.578
11842WAT     H135768   4.510   4.158   3.535
11842WAT     H235769   4.461   4.046   3.643
11843WAT      O35770   3.125   7.643   0.107
11843WAT     H135771   3.173   7.658   0.021
11843WAT     H235772   3.026   7.645   0.090
11844WAT      O35773   7.606   1.506   0.242
11844WAT     H135774   7.593   1.480   0.146
11844WAT     H235775   7.698   1.480   0.271
11845WAT      O35776   4.200   0.329   0.215
11845WAT     H135777   4.132   0.372   0.274
11845WAT     H235778   4.232   0.395   0.147
11846WAT      O35779   9.302   3.722   2.545
11846WAT     H135780   9.372   3.655   2.522
11846WAT     H235781   9.284   3.719   2.643
11847WAT      O35782   8.882   3.976   2.094
11847WAT     H135783   8.948   4.000   2.166
11847WAT     H235784   8.882   3.876   2.082
11848WAT      O35785   2.304   5.023   0.524
11848WAT     H135786   2.257   5.090   0.467
11848WAT     H235787   2.319   5.060   0.615
11849WAT      O35788   8.058   3.757   2.359
11849WAT     H135789   8.031   3.814   2.281
11849WAT     H235790   7.985   3.692   2.381
11850WAT      O35791   1.863   4.514   5.258
11850WAT     H135792   1.770   4.531   5.227
11850WAT     H235793   1.907   4.601   5.280
11851WAT      O35794   7.334   0.466   5.803
11851WAT     H135795   7.321   0.540   5.869
11851WAT     H235796   7.308   0.498   5.712
11852WAT      O35797   3.849   0.140   8.588
11852WAT     H135798   3.898   0.225   8.570
11852WAT     H235799   3.883   0.069   8.526
11853WAT      O35800   4.732   9.697   1.093
11853WAT     H135801   4.686   9.649   1.018
11853WAT     H235802   4.750   9.791   1.066
11854WAT      O35803   5.907   6.527   3.582
11854WAT     H135804   5.931   6.432   3.563
11854WAT     H235805   5.865   6.567   3.500
11855WAT      O35806   0.802   4.344   6.033
11855WAT     H135807   0.796   4.440   6.007
11855WAT     H235808   0.895   4.324   6.065
11856WAT      O35809   7.158   6.493   3.845
11856WAT     H135810   7.167   6.394   3.833
11856WAT     H235811   7.062   6.516   3.862
11857WAT      O35812   2.629   7.548   2.941
11857WAT     H135813   2.650   7.644   2.922
11857WAT     H235814   2.567   7.513   2.870
11858WAT      O35815   6.138   3.160   0.467
11858WAT     H135816   6.114   3.256   0.483
11858WAT     H235817   6.198   3.154   0.387
11859WAT      O35818   8.560   1.634   0.043
11859WAT     H135819   8.542   1.586  -0.042
11859WAT     H235820   8.576   1.731   0.024
11860WAT      O35821   8.646   6.069   4.070
11860WAT     H135822   8.568   6.118   4.031
11860WAT     H235823   8.635   6.063   4.169
11861WAT      O35824   2.896   8.390   6.179
11861WAT     H135825   2.864   8.444   6.101
11861WAT     H235826   2.967   8.327   6.148
11862WAT      O35827   6.775   7.119   4.293
11862WAT     H135828   6.851   7.073   4.247
11862WAT     H235829   6.811   7.177   4.366
11863WAT      O35830   9.462   3.394   2.187
11863WAT     H135831   9.526   3.470   2.187
11863WAT     H235832   9.454   3.356   2.280
11864WAT      O35833   8.563   0.578   3.958
11864WAT     H135834   8.661   0.563   3.972
11864WAT     H235835   8.514   0.492   3.970
11865WAT      O35836   7.159   1.807   4.002
11865WAT     H135837   7.230   1.797   3.933
11865WAT     H235838   7.075   1.841   3.959
11866WAT      O35839   2.732   1.461   5.297
11866WAT     H135840   2.770   1.383   5.346
11866WAT     H235841   2.659   1.502   5.352
11867WAT      O35842   9.372   4.537   7.268
11867WAT     H135843   9.281   4.573   7.247
11867WAT     H235844   9.374   4.504   7.363
11868WAT      O35845   6.528   8.958   1.397
11868WAT     H135846   6.600   8.988   1.460
11868WAT     H235847   6.454   9.026   1.396
11869WAT      O35848   1.770   0.928   6.488
11869WAT     H135849   1.788   0.858   6.557
11869WAT     H235850   1.673   0.951   6.489
11870WAT      O35851   8.840   3.308   7.290
11870WAT     H135852   8.913   3.281   7.353
11870WAT     H235853   8.880   3.356   7.212
11871WAT      O35854   7.194   2.654   7.080
11871WAT     H135855   7.126   2.612   7.140
11871WAT     H235856   7.154   2.668   6.989
11872WAT      O35857   6.707   9.307   2.849
11872WAT     H135858   6.748   9.398   2.845
11872WAT     H235859   6.686   9.276   2.756
11873WAT      O35860   7.729   5.886   7.982
11873WAT     H135861   7.743   5.883   8.081
11873WAT     H235862   7.774   5.967   7.945
11874WAT      O35863   5.008   2.592   9.280
11874WAT     H135864   4.926   2.645   9.301
11874WAT     H235865   5.040   2.545   9.362
11875WAT      O35866   4.752   8.937   1.807
11875WAT     H135867   4.843   8.911   1.840
11875WAT     H235868   4.689   8.861   1.821
11876WAT      O35869   4.268   3.662   4.969
11876WAT     H135870   4.267   3.567   5.000
11876WAT     H235871   4.360   3.687   4.942
11877WAT      O35872   5.237   1.618   5.585
11877WAT     H135873   5.159   1.666   5.543
11877WAT     H235874   5.224   1.614   5.684
11878WAT      O35875   3.917   5.060   0.268
11878WAT     H135876   3.842   5.032   0.207
11878WAT     H235877   3.933   5.158   0.257
11879WAT      O35878   7.424   6.200   5.916
11879WAT     H135879   7.348   6.143   5.944
11879WAT     H235880   7.510   6.156   5.941
11880WAT      O35881   4.281   8.022   5.137
11880WAT     H135882   4.375   7.989   5.139
11880WAT     H235883   4.220   7.947   5.111
11881WAT      O35884   6.571   7.126   5.896
11881WAT     H135885   6.631   7.187   5.844
11881WAT     H235886   6.484   7.114   5.847
11882WAT      O35887   1.031   0.817   8.376
11882WAT     H135888   1.045   0.732   8.427
11882WAT     H235889   1.009   0.796   8.281
11883WAT      O35890   4.937   8.658   8.216
11883WAT     H135891   4.964   8.612   8.132
11883WAT     H235892   4.842   8.634   8.238
11884WAT      O35893   0.110   8.474   2.876
11884WAT     H135894   0.124   8.485   2.975
11884WAT     H235895   0.183   8.416   2.839
11885WAT      O35896   7.760   5.896   8.252
11885WAT     H135897   7.698   5.873   8.327
11885WAT     H235898   7.798   5.987   8.267
11886WAT      O35899   8.939   5.914   0.799
11886WAT     H135900   9.027   5.879   0.831
11886WAT     H235901   8.901   5.977   0.866
11887WAT      O35902   8.915   4.794   9.330
11887WAT     H135903   8.960   4.856   9.394
11887WAT     H235904   8.936   4.700   9.354
11888WAT      O35905   1.780   0.372   9.545
11888WAT     H135906   1.816   0.367   9.638
11888WAT     H235907   1.688   0.411   9.547
11889WAT      O35908   7.773   3.172   0.583
11889WAT     H135909   7.718   3.234   0.526
11889WAT     H235910   7.832   3.116   0.524
11890WAT      O35911   9.572   6.516   7.000
11890WAT     H135912   9.512   6.538   6.923
11890WAT     H235913   9.625   6.434   6.978
11891WAT      O35914   7.390   0.378   8.688
11891WAT     H135915   7.420   0.458   8.636
11891WAT     H235916   7.373   0.404   8.783
11892WAT      O35917   2.056   9.361   3.460
11892WAT     H135918   2.133   9.383   3.400
11892WAT     H235919   1.984   9.429   3.447
11893WAT      O35920   7.005   2.544   1.470
11893WAT     H135921   6.929   2.546   1.406
11893WAT     H235922   7.052   2.456   1.464
11894WAT      O35923   0.782   9.095   4.796
11894WAT     H135924   0.756   9.192   4.791
11894WAT     H235925   0.860   9.078   4.736
11895WAT      O35926   6.891   0.748   8.218
11895WAT     H135927   6.841   0.670   8.254
11895WAT     H235928   6.976   0.759   8.270
11896WAT      O35929   4.353   0.079   0.615
11896WAT     H135930   4.300   0.108   0.535
11896WAT     H235931   4.450   0.094   0.597
11897WAT      O35932   7.492   8.419   5.900
11897WAT     H135933   7.577   8.459   5.865
11897WAT     H235934   7.431   8.401   5.823
11898WAT      O35935   7.138   7.466   0.439
11898WAT     H135936   7.085   7.445   0.357
11898WAT     H235937   7.134   7.564   0.457
11899WAT      O35938   7.708   3.066   6.962
11899WAT     H135939   7.695   3.004   6.885
11899WAT     H235940   7.629   3.127   6.971
11900WAT      O35941   1.335   7.596   3.225
11900WAT     H135942   1.345   7.694   3.244
11900WAT     H235943   1.353   7.544   3.309
11901WAT      O35944   8.940   0.152   9.497
11901WAT     H135945   8.955   0.235   9.442
11901WAT     H235946   8.844   0.128   9.494
11902WAT      O35947   5.236   5.234   4.589
11902WAT     H135948   5.200   5.307   4.530
11902WAT     H235949   5.167   5.209   4.657
11903WAT      O35950   1.146   6.567   9.229
11903WAT     H135951   1.211   6.639   9.207
11903WAT     H235952   1.075   6.603   9.290
11904WAT      O35953   2.824   2.699   3.942
11904WAT     H135954   2.758   2.682   3.868
11904WAT     H235955   2.810   2.791   3.978
11905WAT      O35956   9.212   8.295   6.989
11905WAT     H135957   9.128   8.263   6.945
11905WAT     H235958   9.262   8.356   6.926
11906WAT      O35959   1.359   1.789   4.839
11906WAT     H135960   1.326   1.715   4.897
11906WAT     H235961   1.297   1.867   4.846
11907WAT      O35962   4.671   7.275   7.459
11907WAT     H135963   4.669   7.175   7.459
11907WAT     H235964   4.748   7.307   7.404
11908WAT      O35965   9.618   1.330   8.623
11908WAT     H135966   9.642   1.240   8.660
11908WAT     H235967   9.569   1.317   8.536
11909WAT      O35968   4.464   1.753   0.222
11909WAT     H135969   4.442   1.830   0.162
11909WAT     H235970   4.541   1.777   0.281
11910WAT      O35971   2.186   8.920   1.629
11910WAT     H135972   2.188   8.965   1.540
11910WAT     H235973   2.160   8.824   1.617
11911WAT      O35974   8.669   7.874   7.605
11911WAT     H135975   8.744   7.933   7.576
11911WAT     H235976   8.582   7.910   7.570
11912WAT      O35977   8.205   7.027   0.640
11912WAT     H135978   8.251   6.964   0.577
11912WAT     H235979   8.160   7.100   0.588
11913WAT      O35980   8.314   3.280   4.639
11913WAT     H135981   8.344   3.306   4.731
11913WAT     H235982   8.312   3.181   4.631
11914WAT      O35983   0.575   5.592   6.312
11914WAT     H135984   0.578   5.543   6.399
11914WAT     H235985   0.627   5.541   6.243
11915WAT      O35986   8.637   1.251   2.986
11915WAT     H135987   8.652   1.154   3.007
11915WAT     H235988   8.543   1.265   2.956
11916WAT      O35989   5.499   8.717   4.993
11916WAT     H135990   5.464   8.636   4.946
11916WAT     H235991   5.598   8.706   5.007
11917WAT      O35992   5.279   1.764   2.977
11917WAT     H135993   5.314   1.851   2.943
11917WAT     H235994   5.264   1.702   2.899
11918WAT      O35995   5.002   7.391   4.468
11918WAT     H135996   5.088   7.398   4.520
11918WAT     H235997   4.965   7.299   4.480
11919WAT      O35998   2.095   7.960   8.348
11919WAT     H135999   2.125   8.055   8.357
11919WAT     H236000   2.079   7.922   8.439
11920WAT      O36001   1.063   9.105   8.403
11920WAT     H136002   1.097   9.160   8.327
11920WAT     H236003   1.066   9.158   8.488
11921WAT      O36004   0.130   1.850   8.773
11921WAT     H136005   0.042   1.813   8.804
11921WAT     H236006   0.183   1.882   8.852
11922WAT      O36007   3.374   7.325   7.173
11922WAT     H136008   3.430   7.254   7.129
11922WAT     H236009   3.291   7.283   7.210
11923WAT      O36010   7.244   6.513   4.392
11923WAT     H136011   7.203   6.422   4.382
11923WAT     H236012   7.189   6.567   4.456
11924WAT      O36013   2.941   3.334   3.781
11924WAT     H136014   2.923   3.236   3.774
11924WAT     H236015   2.859   3.386   3.757
11925WAT      O36016   8.292   8.795   1.793
11925WAT     H136017   8.329   8.810   1.701
11925WAT     H236018   8.277   8.697   1.807
11926WAT      O36019   1.905   1.396   0.991
11926WAT     H136020   1.889   1.473   0.930
11926WAT     H236021   1.975   1.336   0.951
11927WAT      O36022   7.312   5.629   5.838
11927WAT     H136023   7.271   5.544   5.871
11927WAT     H236024   7.243   5.701   5.839
11928WAT      O36025   5.455   0.027   0.962
11928WAT     H136026   5.375   0.020   1.022
11928WAT     H236027   5.470  -0.060   0.916
11929WAT      O36028   8.675   4.673   9.403
11929WAT     H136029   8.764   4.718   9.397
11929WAT     H236030   8.664   4.633   9.494
11930WAT      O36031   6.759   2.099   9.786
11930WAT     H136032   6.766   2.002   9.764
11930WAT     H236033   6.691   2.112   9.858
11931WAT      O36034   3.547   7.424   1.752
11931WAT     H136035   3.541   7.340   1.697
11931WAT     H236036   3.546   7.401   1.849
11932WAT      O36037   4.669   4.349   7.303
11932WAT     H136038   4.645   4.264   7.255
11932WAT     H236039   4.609   4.359   7.383
11933WAT      O36040   0.105   9.726   6.747
11933WAT     H136041   0.180   9.777   6.790
11933WAT     H236042   0.069   9.778   6.670
11934WAT      O36043   1.444   9.196   3.856
11934WAT     H136044   1.523   9.165   3.909
11934WAT     H236045   1.468   9.201   3.759
11935WAT      O36046   4.130   1.350   4.961
11935WAT     H136047   4.089   1.331   4.872
11935WAT     H236048   4.200   1.421   4.951
11936WAT      O36049   5.437   1.277   5.511
11936WAT     H136050   5.468   1.236   5.425
11936WAT     H236051   5.460   1.374   5.512
11937WAT      O36052   3.057   5.367   3.812
11937WAT     H136053   3.056   5.276   3.771
11937WAT     H236054   3.043   5.359   3.911
11938WAT      O36055   4.518   3.378   8.349
11938WAT     H136056   4.446   3.412   8.289
11938WAT     H236057   4.607   3.412   8.318
11939WAT      O36058   0.908   3.122   0.922
11939WAT     H136059   1.001   3.158   0.908
11939WAT     H236060   0.853   3.142   0.841
11940WAT      O36061   4.349   9.423   0.712
11940WAT     H136062   4.306   9.490   0.652
11940WAT     H236063   4.394   9.471   0.788
11941WAT      O36064   9.021   6.422   0.506
11941WAT     H136065   8.984   6.369   0.583
11941WAT     H236066   8.949   6.439   0.439
11942WAT      O36067   4.822   1.024   2.364
11942WAT     H136068   4.762   1.055   2.439
11942WAT     H236069   4.797   1.071   2.280
11943WAT      O36070   7.202   2.598   0.366
11943WAT     H136071   7.265   2.553   0.429
11943WAT     H236072   7.188   2.692   0.395
11944WAT      O36073   5.982   0.415   6.052
11944WAT     H136074   6.059   0.475   6.030
11944WAT     H236075   5.991   0.381   6.145
11945WAT      O36076   4.361   3.193   9.027
11945WAT     H136077   4.372   3.262   8.955
11945WAT     H236078   4.314   3.114   8.989
11946WAT      O36079   9.643   3.148   5.155
11946WAT     H136080   9.627   3.054   5.184
11946WAT     H236081   9.631   3.155   5.056
11947WAT      O36082   8.508   0.164   5.174
11947WAT     H136083   8.427   0.126   5.130
11947WAT     H236084   8.580   0.095   5.178
11948WAT      O36085   5.947   1.166   3.026
11948WAT     H136086   6.024   1.133   3.079
11948WAT     H236087   5.980   1.224   2.951
11949WAT      O36088   6.894   7.585   5.597
11949WAT     H136089   6.955   7.508   5.615
11949WAT     H236090   6.811   7.552   5.551
11950WAT      O36091   3.390   1.430   4.494
11950WAT     H136092   3.367   1.430   4.591
11950WAT     H236093   3.327   1.371   4.444
11951WAT      O36094   0.339   5.254   1.489
11951WAT     H136095   0.357   5.269   1.586
11951WAT     H236096   0.298   5.164   1.475
11952WAT      O36097   5.500   2.762   7.908
11952WAT     H136098   5.433   2.767   7.835
11952WAT     H236099   5.575   2.826   7.889
11953WAT      O36100   2.138   4.599   9.758
11953WAT     H136101   2.161   4.509   9.721
11953WAT     H236102   2.050   4.594   9.806
11954WAT      O36103   8.309   6.979   8.781
11954WAT     H136104   8.253   7.014   8.705
11954WAT     H236105   8.349   6.891   8.755
11955WAT      O36106   2.115   7.484   1.418
11955WAT     H136107   2.081   7.395   1.451
11955WAT     H236108   2.038   7.546   1.408
11956WAT      O36109   6.228   9.358   2.320
11956WAT     H136110   6.145   9.390   2.367
11956WAT     H236111   6.297   9.430   2.323
11957WAT      O36112   8.438   6.004   7.971
11957WAT     H136113   8.422   5.977   7.876
11957WAT     H236114   8.424   6.103   7.979
11958WAT      O36115   0.774   5.226   1.328
11958WAT     H136116   0.688   5.277   1.325
11958WAT     H236117   0.826   5.244   1.244
11959WAT      O36118   2.642   3.554   8.839
11959WAT     H136119   2.690   3.506   8.913
11959WAT     H236120   2.708   3.576   8.767
11960WAT      O36121   1.645   3.841   4.879
11960WAT     H136122   1.598   3.804   4.958
11960WAT     H236123   1.654   3.770   4.809
11961WAT      O36124   7.097   7.746   0.864
11961WAT     H136125   7.046   7.786   0.788
11961WAT     H236126   7.192   7.732   0.836
11962WAT      O36127   0.338   5.259   4.986
11962WAT     H136128   0.378   5.258   4.894
11962WAT     H236129   0.241   5.282   4.979
11963WAT      O36130   0.017   3.199   1.965
11963WAT     H136131  -0.007   3.274   1.904
11963WAT     H236132   0.052   3.122   1.912
11964WAT      O36133   4.752   0.720   7.172
11964WAT     H136134   4.722   0.766   7.088
11964WAT     H236135   4.773   0.625   7.152
11965WAT      O36136   7.951   8.429   2.578
11965WAT     H136137   7.883   8.398   2.511
11965WAT     H236138   7.958   8.528   2.575
11966WAT      O36139   1.464   2.994   7.166
11966WAT     H136140   1.428   2.920   7.222
11966WAT     H236141   1.403   3.074   7.172
11967WAT      O36142   1.692   9.632   7.201
11967WAT     H136143   1.594   9.649   7.214
11967WAT     H236144   1.728   9.584   7.281
11968WAT      O36145   1.770   2.078   5.608
11968WAT     H136146   1.869   2.067   5.613
11968WAT     H236147   1.727   1.988   5.608
11969WAT      O36148   7.725   5.628   1.949
11969WAT     H136149   7.642   5.654   1.999
11969WAT     H236150   7.710   5.641   1.851
11970WAT      O36151   5.669   6.777   1.583
11970WAT     H136152   5.730   6.702   1.559
11970WAT     H236153   5.705   6.863   1.547
11971WAT      O36154   3.370   2.956   4.181
11971WAT     H136155   3.335   2.898   4.254
11971WAT     H236156   3.417   3.035   4.220
11972WAT      O36157   6.854   3.332   5.726
11972WAT     H136158   6.820   3.243   5.755
11972WAT     H236159   6.777   3.395   5.714
11973WAT      O36160   7.819   8.636   3.897
11973WAT     H136161   7.902   8.591   3.866
11973WAT     H236162   7.816   8.729   3.862
11974WAT      O36163   4.384   6.212   1.782
11974WAT     H136164   4.291   6.234   1.809
11974WAT     H236165   4.388   6.198   1.683
11975WAT      O36166   5.062   9.443   2.410
11975WAT     H136167   5.131   9.410   2.475
11975WAT     H236168   5.103   9.510   2.349
11976WAT      O36169   7.118   4.325   7.358
11976WAT     H136170   7.081   4.346   7.267
11976WAT     H236171   7.138   4.227   7.364
11977WAT      O36172   9.020   4.576   2.833
11977WAT     H136173   9.093   4.520   2.794
11977WAT     H236174   8.979   4.527   2.910
11978WAT      O36175   4.625   9.806   2.218
11978WAT     H136176   4.585   9.719   2.191
11978WAT     H236177   4.619   9.871   2.141
11979WAT      O36178   1.933   3.011   8.971
11979WAT     H136179   1.881   3.093   8.996
11979WAT     H236180   1.874   2.948   8.921
11980WAT      O36181   5.602   8.546   8.646
11980WAT     H136182   5.627   8.508   8.557
11980WAT     H236183   5.538   8.484   8.693
11981WAT      O36184   7.848   8.528   3.532
11981WAT     H136185   7.825   8.625   3.525
11981WAT     H236186   7.903   8.513   3.615
11982WAT      O36187   5.568   6.661   3.558
11982WAT     H136188   5.597   6.671   3.654
11982WAT     H236189   5.586   6.747   3.509
11983WAT      O36190   2.909   0.047   7.250
11983WAT     H136191   2.873   0.033   7.159
11983WAT     H236192   3.005   0.076   7.244
11984WAT      O36193   5.129   8.348   2.673
11984WAT     H136194   5.055   8.281   2.662
11984WAT     H236195   5.097   8.425   2.728
11985WAT      O36196   4.277   6.908   2.174
11985WAT     H136197   4.187   6.884   2.209
11985WAT     H236198   4.347   6.881   2.241
11986WAT      O36199   5.584   1.957   8.757
11986WAT     H136200   5.488   1.978   8.772
11986WAT     H236201   5.597   1.930   8.661
11987WAT      O36202   5.715   2.738   7.334
11987WAT     H136203   5.661   2.714   7.415
11987WAT     H236204   5.668   2.705   7.252
11988WAT      O36205   5.250   5.857   2.805
11988WAT     H136206   5.191   5.805   2.867
11988WAT     H236207   5.204   5.942   2.778
11989WAT      O36208   5.003   7.455   0.287
11989WAT     H136209   5.096   7.463   0.252
11989WAT     H236210   5.006   7.416   0.379
11990WAT      O36211   0.492   4.999   3.186
11990WAT     H136212   0.487   5.098   3.177
11990WAT     H236213   0.400   4.962   3.198
11991WAT      O36214   8.064   6.812   8.395
11991WAT     H136215   8.066   6.903   8.437
11991WAT     H236216   8.138   6.803   8.329
11992WAT      O36217   7.685   5.245   0.635
11992WAT     H136218   7.732   5.178   0.692
11992WAT     H236219   7.602   5.203   0.597
11993WAT      O36220   2.439   4.135   7.604
11993WAT     H136221   2.362   4.193   7.577
11993WAT     H236222   2.414   4.080   7.683
11994WAT      O36223   1.595   9.688   0.809
11994WAT     H136224   1.531   9.750   0.854
11994WAT     H236225   1.547   9.636   0.738
11995WAT      O36226   3.801   1.464   5.353
11995WAT     H136227   3.856   1.528   5.407
11995WAT     H236228   3.843   1.451   5.263
11996WAT      O36229   9.288   7.400   9.235
11996WAT     H136230   9.225   7.343   9.182
11996WAT     H236231   9.350   7.341   9.287
11997WAT      O36232   5.841   5.956   2.072
11997WAT     H136233   5.938   5.976   2.053
11997WAT     H236234   5.793   6.042   2.092
11998WAT      O36235   7.281   7.724   2.804
11998WAT     H136236   7.306   7.809   2.850
11998WAT     H236237   7.194   7.737   2.756
11999WAT      O36238   6.780   8.819   2.038
11999WAT     H136239   6.869   8.831   1.996
11999WAT     H236240   6.741   8.909   2.058
12000WAT      O36241   8.579   0.592   0.469
12000WAT     H136242   8.512   0.518   0.475
12000WAT     H236243   8.568   0.642   0.383
12001WAT      O36244   3.717   9.465   5.687
12001WAT     H136245   3.800   9.503   5.727
12001WAT     H236246   3.712   9.367   5.706
12002WAT      O36247   7.332   7.584   9.824
12002WAT     H136248   7.365   7.665   9.775
12002WAT     H236249   7.238   7.599   9.853
12003WAT      O36250   0.135   7.499   4.284
12003WAT     H136251   0.213   7.496   4.222
12003WAT     H236252   0.089   7.410   4.285
12004WAT      O36253   7.947   7.683   0.251
12004WAT     H136254   7.897   7.766   0.225
12004WAT     H236255   7.974   7.689   0.347
12005WAT      O36256   9.078   7.813   1.648
12005WAT     H136257   9.137   7.732   1.651
12005WAT     H236258   9.118   7.885   1.704
12006WAT      O36259   5.127   3.508   0.282
12006WAT     H136260   5.116   3.565   0.363
12006WAT     H236261   5.194   3.436   0.301
12007WAT      O36262   0.961   6.155   6.493
12007WAT     H136263   0.977   6.059   6.470
12007WAT     H236264   0.884   6.189   6.439
12008WAT      O36265   8.547   8.674   7.460
12008WAT     H136266   8.561   8.760   7.412
12008WAT     H236267   8.636   8.637   7.489
12009WAT      O36268   1.216   8.092   9.816
12009WAT     H136269   1.171   8.179   9.836
12009WAT     H236270   1.150   8.029   9.776
12010WAT      O36271   8.309   0.825   0.211
12010WAT     H136272   8.403   0.807   0.240
12010WAT     H236273   8.282   0.916   0.240
12011WAT      O36274   1.828   9.485   2.812
12011WAT     H136275   1.797   9.559   2.753
12011WAT     H236276   1.766   9.407   2.803
12012WAT      O36277   3.618   0.698   3.310
12012WAT     H136278   3.539   0.755   3.284
12012WAT     H236279   3.684   0.698   3.234
12013WAT      O36280   9.073   1.332   1.219
12013WAT     H136281   9.018   1.415   1.220
12013WAT     H236282   9.051   1.279   1.136
12014WAT      O36283   4.964   9.264   7.999
12014WAT     H136284   5.017   9.180   8.013
12014WAT     H236285   4.962   9.286   7.901
12015WAT      O36286   2.162   0.577   9.454
12015WAT     H136287   2.216   0.579   9.539
12015WAT     H236288   2.221   0.603   9.377
12016WAT      O36289   2.217   8.174   6.165
12016WAT     H136290   2.298   8.210   6.117
12016WAT     H236291   2.247   8.125   6.247
12017WAT      O36292   0.741   1.727   4.125
12017WAT     H136293   0.816   1.792   4.111
12017WAT     H236294   0.768   1.659   4.193
12018WAT      O36295   9.362   9.677   8.476
12018WAT     H136296   9.399   9.757   8.524
12018WAT     H236297   9.435   9.630   8.427
12019WAT      O36298   2.342   2.133   4.522
12019WAT     H136299   2.428   2.148   4.572
12019WAT     H236300   2.346   2.045   4.475
12020WAT      O36301   8.640   9.210   7.059
12020WAT     H136302   8.691   9.183   6.977
12020WAT     H236303   8.543   9.215   7.037
12021WAT      O36304   8.045   0.476   4.415
12021WAT     H136305   8.144   0.465   4.415
12021WAT     H236306   8.002   0.390   4.389
12022WAT      O36307   0.423   4.366   4.510
12022WAT     H136308   0.511   4.396   4.474
12022WAT     H236309   0.406   4.271   4.485
12023WAT      O36310   5.225   7.865   0.383
12023WAT     H136311   5.199   7.813   0.301
12023WAT     H236312   5.200   7.961   0.372
12024WAT      O36313   3.134   8.964   8.182
12024WAT     H136314   3.074   8.921   8.115
12024WAT     H236315   3.183   9.039   8.140
12025WAT      O36316   4.288   0.964   6.861
12025WAT     H136317   4.212   0.904   6.839
12025WAT     H236318   4.350   0.918   6.924
12026WAT      O36319   9.477   8.828   8.885
12026WAT     H136320   9.484   8.925   8.906
12026WAT     H236321   9.560   8.798   8.837
12027WAT      O36322   6.536   0.213   4.017
12027WAT     H136323   6.579   0.237   3.930
12027WAT     H236324   6.601   0.228   4.091
12028WAT      O36325   2.337   9.014   5.761
12028WAT     H136326   2.281   9.086   5.803
12028WAT     H236327   2.327   9.018   5.662
12029WAT      O36328   3.781   8.340   7.141
12029WAT     H136329   3.698   8.395   7.129
12029WAT     H236330   3.792   8.279   7.062
12030WAT      O36331   9.128   5.538   9.236
12030WAT     H136332   9.208   5.555   9.294
12030WAT     H236333   9.148   5.564   9.142
12031WAT      O36334   4.656   2.632   9.088
12031WAT     H136335   4.714   2.661   9.011
12031WAT     H236336   4.706   2.643   9.173
12032WAT      O36337   7.565   5.725   9.286
12032WAT     H136338   7.507   5.718   9.205
12032WAT     H236339   7.533   5.660   9.355
12033WAT      O36340   3.491   6.523   7.681
12033WAT     H136341   3.411   6.464   7.680
12033WAT     H236342   3.479   6.595   7.749
12034WAT      O36343   1.099   7.203   0.179
12034WAT     H136344   1.151   7.282   0.213
12034WAT     H236345   1.163   7.135   0.142
12035WAT      O36346   8.577   9.085   1.632
12035WAT     H136347   8.605   8.989   1.643
12035WAT     H236348   8.653   9.137   1.593
12036WAT      O36349   5.639   3.427   4.201
12036WAT     H136350   5.562   3.458   4.145
12036WAT     H236351   5.715   3.492   4.192
12037WAT      O36352   7.616   0.875   3.675
12037WAT     H136353   7.618   0.788   3.724
12037WAT     H236354   7.710   0.902   3.652
12038WAT      O36355   0.765   0.197   6.063
12038WAT     H136356   0.693   0.131   6.085
12038WAT     H236357   0.820   0.215   6.145
12039WAT      O36358   5.280   4.234   7.488
12039WAT     H136359   5.329   4.179   7.421
12039WAT     H236360   5.199   4.184   7.519
12040WAT      O36361   9.205   0.919   4.692
12040WAT     H136362   9.212   0.936   4.790
12040WAT     H236363   9.174   0.825   4.677
12041WAT      O36364   1.400   2.826   1.778
12041WAT     H136365   1.443   2.820   1.869
12041WAT     H236366   1.413   2.740   1.729
12042WAT      O36367   7.991   6.414   7.495
12042WAT     H136368   7.914   6.404   7.432
12042WAT     H236369   7.963   6.388   7.587
12043WAT      O36370   2.951   4.441   4.802
12043WAT     H136371   2.851   4.441   4.804
12043WAT     H236372   2.985   4.361   4.850
12044WAT      O36373   0.410   9.022   3.261
12044WAT     H136374   0.442   9.116   3.266
12044WAT     H236375   0.488   8.960   3.267
12045WAT      O36376   7.934   7.722   5.428
12045WAT     H136377   7.973   7.778   5.501
12045WAT     H236378   7.925   7.627   5.459
12046WAT      O36379   7.013   7.432   3.512
12046WAT     H136380   7.106   7.465   3.494
12046WAT     H236381   6.967   7.493   3.575
12047WAT      O36382   7.953   2.900   7.900
12047WAT     H136383   7.861   2.860   7.900
12047WAT     H236384   8.021   2.827   7.890
12048WAT      O36385   1.996   4.681   7.745
12048WAT     H136386   1.968   4.607   7.806
12048WAT     H236387   1.915   4.722   7.704
12049WAT      O36388   7.722   9.050   7.670
12049WAT     H136389   7.696   9.085   7.580
12049WAT     H236390   7.715   9.123   7.738
12050WAT      O36391   6.617   2.791   1.995
12050WAT     H136392   6.668   2.866   1.951
12050WAT     H236393   6.563   2.828   2.070
12051WAT      O36394   6.991   1.973   3.236
12051WAT     H136395   7.017   1.990   3.331
12051WAT     H236396   6.904   2.018   3.216
12052WAT      O36397   4.400   3.162   7.338
12052WAT     H136398   4.446   3.249   7.324
12052WAT     H236399   4.330   3.172   7.409
12053WAT      O36400   7.977   5.332   4.448
12053WAT     H136401   7.896   5.322   4.506
12053WAT     H236402   8.045   5.263   4.472
12054WAT      O36403   9.635   9.070   4.661
12054WAT     H136404   9.610   9.052   4.756
12054WAT     H236405   9.672   8.987   4.619
12055WAT      O36406   9.502   0.450   0.436
12055WAT     H136407   9.406   0.464   0.409
12055WAT     H236408   9.524   0.353   0.429
12056WAT      O36409   9.753   2.367   4.122
12056WAT     H136410   9.677   2.372   4.057
12056WAT     H236411   9.839   2.360   4.073
12057WAT      O36412   4.070   1.462   9.825
12057WAT     H136413   4.159   1.489   9.789
12057WAT     H236414   3.998   1.497   9.765
12058WAT      O36415   2.229   8.329   4.754
12058WAT     H136416   2.145   8.343   4.807
12058WAT     H236417   2.301   8.293   4.814
12059WAT      O36418   3.029   3.051   2.772
12059WAT     H136419   2.984   3.040   2.861
12059WAT     H236420   2.962   3.083   2.704
12060WAT      O36421   1.263   0.962   2.643
12060WAT     H136422   1.305   0.874   2.624
12060WAT     H236423   1.329   1.021   2.689
12061WAT      O36424   8.755   2.403   2.462
12061WAT     H136425   8.833   2.464   2.447
12061WAT     H236426   8.733   2.400   2.559
12062WAT      O36427   9.221   8.963   1.030
12062WAT     H136428   9.224   8.885   1.092
12062WAT     H236429   9.228   8.931   0.935
12063WAT      O36430   7.971   6.041   0.896
12063WAT     H136431   7.880   6.081   0.905
12063WAT     H236432   8.011   6.069   0.809
12064WAT      O36433   3.419   1.888   5.468
12064WAT     H136434   3.497   1.900   5.529
12064WAT     H236435   3.373   1.802   5.489
12065WAT      O36436   8.353   2.745   6.823
12065WAT     H136437   8.320   2.835   6.793
12065WAT     H236438   8.286   2.704   6.885
12066WAT      O36439   1.211   4.977   9.747
12066WAT     H136440   1.176   5.070   9.738
12066WAT     H236441   1.228   4.939   9.656
12067WAT      O36442   4.217   8.083   0.559
12067WAT     H136443   4.213   8.117   0.465
12067WAT     H236444   4.293   8.127   0.606
12068WAT      O36445   4.266   8.773   7.161
12068WAT     H136446   4.294   8.812   7.073
12068WAT     H236447   4.174   8.734   7.152
12069WAT      O36448   2.265   7.594   6.723
12069WAT     H136449   2.258   7.589   6.823
12069WAT     H236450   2.362   7.590   6.697
12070WAT      O36451   0.469   0.611   3.247
12070WAT     H136452   0.371   0.591   3.255
12070WAT     H236453   0.494   0.616   3.151
12071WAT      O36454   1.269   6.853   2.542
12071WAT     H136455   1.320   6.772   2.511
12071WAT     H236456   1.299   6.933   2.491
12072WAT      O36457   6.891   2.266   1.808
12072WAT     H136458   6.891   2.166   1.815
12072WAT     H236459   6.797   2.300   1.816
12073WAT      O36460   2.456   7.209   8.611
12073WAT     H136461   2.426   7.229   8.518
12073WAT     H236462   2.424   7.118   8.637
12074WAT      O36463   0.566   7.421   1.158
12074WAT     H136464   0.563   7.332   1.204
12074WAT     H236465   0.568   7.408   1.059
12075WAT      O36466   8.930   9.692   5.455
12075WAT     H136467   8.844   9.689   5.506
12075WAT     H236468   8.933   9.614   5.392
12076WAT      O36469   3.854   1.237   4.366
12076WAT     H136470   3.759   1.270   4.369
12076WAT     H236471   3.886   1.224   4.460
12077WAT      O36472   8.567   1.510   3.380
12077WAT     H136473   8.621   1.572   3.437
12077WAT     H236474   8.514   1.563   3.314
12078WAT      O36475   3.896   9.082   3.543
12078WAT     H136476   3.814   9.086   3.600
12078WAT     H236477   3.932   8.989   3.544
12079WAT      O36478   4.123   6.723   6.036
12079WAT     H136479   4.176   6.808   6.031
12079WAT     H236480   4.026   6.745   6.049
12080WAT      O36481   7.271   2.275   7.783
12080WAT     H136482   7.360   2.236   7.758
12080WAT     H236483   7.260   2.273   7.882
12081WAT      O36484   3.705   7.579   6.370
12081WAT     H136485   3.619   7.583   6.320
12081WAT     H236486   3.730   7.670   6.401
12082WAT      O36487   5.943   7.596   2.438
12082WAT     H136488   6.038   7.627   2.439
12082WAT     H236489   5.917   7.575   2.344
12083WAT      O36490   5.632   6.172   8.587
12083WAT     H136491   5.657   6.077   8.567
12083WAT     H236492   5.672   6.232   8.518
12084WAT      O36493   1.184   8.140   7.882
12084WAT     H136494   1.195   8.195   7.965
12084WAT     H236495   1.199   8.198   7.802
12085WAT      O36496   7.889   4.342   7.163
12085WAT     H136497   7.873   4.409   7.236
12085WAT     H236498   7.863   4.382   7.075
12086WAT      O36499   6.049   7.909   8.477
12086WAT     H136500   6.148   7.901   8.465
12086WAT     H236501   6.016   7.831   8.530
12087WAT      O36502   2.898   2.064   8.464
12087WAT     H136503   2.914   1.966   8.458
12087WAT     H236504   2.943   2.100   8.546
12088WAT      O36505   1.260   1.543   4.969
12088WAT     H136506   1.169   1.558   4.929
12088WAT     H236507   1.255   1.558   5.068
12089WAT      O36508   4.445   2.315   5.586
12089WAT     H136509   4.464   2.336   5.490
12089WAT     H236510   4.404   2.395   5.630
12090WAT      O36511   0.371   4.103   2.655
12090WAT     H136512   0.301   4.050   2.704
12090WAT     H236513   0.399   4.181   2.711
12091WAT      O36514   0.309   4.029   3.016
12091WAT     H136515   0.315   3.936   3.053
12091WAT     H236516   0.213   4.054   3.007
12092WAT      O36517   9.152   6.354   4.267
12092WAT     H136518   9.073   6.388   4.216
12092WAT     H236519   9.227   6.334   4.203
12093WAT      O36520   2.204   6.964   9.180
12093WAT     H136521   2.155   6.877   9.179
12093WAT     H236522   2.139   7.039   9.164
12094WAT      O36523   8.865   5.624   1.018
12094WAT     H136524   8.794   5.689   0.993
12094WAT     H236525   8.931   5.615   0.944
12095WAT      O36526   7.670   6.262   2.931
12095WAT     H136527   7.639   6.357   2.925
12095WAT     H236528   7.744   6.254   2.997
12096WAT      O36529   0.670   0.006   0.499
12096WAT     H136530   0.629   0.024   0.588
12096WAT     H236531   0.699   0.093   0.458
12097WAT      O36532   2.562   9.019   2.703
12097WAT     H136533   2.501   8.954   2.748
12097WAT     H236534   2.656   8.984   2.707
12098WAT      O36535   2.960   1.781   5.549
12098WAT     H136536   3.012   1.865   5.538
12098WAT     H236537   2.909   1.762   5.465
12099WAT      O36538   0.326   8.777   9.246
12099WAT     H136539   0.230   8.765   9.271
12099WAT     H236540   0.374   8.690   9.256
12100WAT      O36541   2.187   0.893   2.415
12100WAT     H136542   2.184   0.832   2.335
12100WAT     H236543   2.166   0.840   2.497
12101WAT      O36544   8.619   0.820   7.945
12101WAT     H136545   8.641   0.874   8.026
12101WAT     H236546   8.663   0.730   7.952
12102WAT      O36547   9.030   2.968   8.457
12102WAT     H136548   9.098   2.991   8.527
12102WAT     H236549   8.939   2.994   8.489
12103WAT      O36550   6.598   0.965   8.411
12103WAT     H136551   6.646   1.032   8.355
12103WAT     H236552   6.515   1.006   8.448
12104WAT      O36553   0.237   5.359   0.271
12104WAT     H136554   0.213   5.281   0.328
12104WAT     H236555   0.182   5.358   0.188
12105WAT      O36556   2.344   2.035   8.276
12105WAT     H136557   2.318   2.096   8.202
12105WAT     H236558   2.286   2.052   8.356
12106WAT      O36559   8.198   7.688   2.839
12106WAT     H136560   8.245   7.628   2.773
12106WAT     H236561   8.199   7.645   2.929
12107WAT      O36562   3.839   7.281   2.338
12107WAT     H136563   3.870   7.345   2.408
12107WAT     H236564   3.798   7.331   2.262
12108WAT      O36565   9.541   5.006   1.229
12108WAT     H136566   9.570   4.987   1.323
12108WAT     H236567   9.515   5.102   1.221
12109WAT      O36568   1.605   1.586   6.721
12109WAT     H136569   1.542   1.607   6.796
12109WAT     H236570   1.697   1.617   6.746
12110WAT      O36571   3.189   4.967   8.814
12110WAT     H136572   3.183   4.901   8.739
12110WAT     H236573   3.221   4.920   8.896
12111WAT      O36574   1.558   5.673   0.788
12111WAT     H136575   1.466   5.635   0.804
12111WAT     H236576   1.562   5.766   0.823
12112WAT      O36577   0.345   7.300   2.723
12112WAT     H136578   0.289   7.327   2.644
12112WAT     H236579   0.349   7.376   2.788
12113WAT      O36580   5.783   2.407   0.257
12113WAT     H136581   5.795   2.335   0.325
12113WAT     H236582   5.819   2.493   0.292
12114WAT      O36583   2.998   2.991   6.395
12114WAT     H136584   2.946   2.907   6.389
12114WAT     H236585   2.966   3.046   6.471
12115WAT      O36586   8.901   7.004   4.481
12115WAT     H136587   9.000   6.996   4.493
12115WAT     H236588   8.877   7.101   4.470
12116WAT      O36589   6.498   1.482   7.518
12116WAT     H136590   6.572   1.521   7.572
12116WAT     H236591   6.411   1.525   7.545
12117WAT      O36592   8.206   8.846   4.361
12117WAT     H136593   8.270   8.770   4.355
12117WAT     H236594   8.166   8.850   4.452
12118WAT      O36595   0.020   0.780   1.602
12118WAT     H136596  -0.006   0.724   1.524
12118WAT     H236597   0.058   0.867   1.570
12119WAT      O36598   5.542   8.974   9.570
12119WAT     H136599   5.641   8.988   9.562
12119WAT     H236600   5.518   8.967   9.667
12120WAT      O36601   9.233   3.421   6.819
12120WAT     H136602   9.250   3.323   6.821
12120WAT     H236603   9.298   3.465   6.757
12121WAT      O36604   2.597   0.615   4.955
12121WAT     H136605   2.676   0.660   4.913
12121WAT     H236606   2.542   0.572   4.884
12122WAT      O36607   1.392   3.121   6.074
12122WAT     H136608   1.374   3.036   6.123
12122WAT     H236609   1.313   3.182   6.084
12123WAT      O36610   2.849   0.596   1.643
12123WAT     H136611   2.909   0.557   1.573
12123WAT     H236612   2.846   0.695   1.634
12124WAT      O36613   9.125   8.718   8.232
12124WAT     H136614   9.217   8.717   8.192
12124WAT     H236615   9.109   8.633   8.280
12125WAT      O36616   7.190   5.267   8.055
12125WAT     H136617   7.167   5.221   8.140
12125WAT     H236618   7.259   5.214   8.006
12126WAT      O36619   3.179   2.174   1.615
12126WAT     H136620   3.145   2.087   1.580
12126WAT     H236621   3.103   2.229   1.650
12127WAT      O36622   1.725   4.716   9.225
12127WAT     H136623   1.665   4.768   9.165
12127WAT     H236624   1.697   4.620   9.224
12128WAT      O36625   2.578   4.667   3.413
12128WAT     H136626   2.634   4.711   3.483
12128WAT     H236627   2.503   4.618   3.457
12129WAT      O36628   9.515   3.125   6.935
12129WAT     H136629   9.538   3.029   6.952
12129WAT     H236630   9.590   3.170   6.886
12130WAT      O36631   9.260   3.939   4.159
12130WAT     H136632   9.184   3.999   4.183
12130WAT     H236633   9.345   3.974   4.198
12131WAT      O36634   5.787   8.791   2.573
12131WAT     H136635   5.840   8.842   2.641
12131WAT     H236636   5.695   8.775   2.608
12132WAT      O36637   5.231   7.241   5.955
12132WAT     H136638   5.241   7.143   5.973
12132WAT     H236639   5.217   7.289   6.041
12133WAT      O36640   7.366   8.316   1.301
12133WAT     H136641   7.304   8.353   1.231
12133WAT     H236642   7.323   8.239   1.348
12134WAT      O36643   5.542   5.823   0.867
12134WAT     H136644   5.602   5.891   0.909
12134WAT     H236645   5.483   5.868   0.800
12135WAT      O36646   0.582   0.465   4.455
12135WAT     H136647   0.607   0.559   4.479
12135WAT     H236648   0.501   0.438   4.506
12136WAT      O36649   5.252   1.540   4.414
12136WAT     H136650   5.291   1.469   4.473
12136WAT     H236651   5.238   1.503   4.322
12137WAT      O36652   7.830   2.874   9.031
12137WAT     H136653   7.889   2.883   9.112
12137WAT     H236654   7.884   2.893   8.949
12138WAT      O36655   6.104   7.044   4.018
12138WAT     H136656   6.077   7.036   3.922
12138WAT     H236657   6.027   7.020   4.077
12139WAT      O36658   8.384   6.830   7.935
12139WAT     H136659   8.325   6.897   7.981
12139WAT     H236660   8.353   6.738   7.957
12140WAT      O36661   3.717   5.997   1.771
12140WAT     H136662   3.673   6.077   1.811
12140WAT     H236663   3.816   6.003   1.786
12141WAT      O36664   6.164   7.133   8.925
12141WAT     H136665   6.201   7.068   8.858
12141WAT     H236666   6.239   7.167   8.981
12142WAT      O36667   2.464   2.779   9.145
12142WAT     H136668   2.477   2.869   9.104
12142WAT     H236669   2.385   2.781   9.206
12143WAT      O36670   4.680   8.813   8.559
12143WAT     H136671   4.702   8.876   8.634
12143WAT     H236672   4.729   8.841   8.476
12144WAT      O36673   8.037   2.808   6.594
12144WAT     H136674   8.046   2.883   6.528
12144WAT     H236675   8.013   2.724   6.546
12145WAT      O36676   5.337   4.249   3.140
12145WAT     H136677   5.400   4.171   3.148
12145WAT     H236678   5.315   4.284   3.231
12146WAT      O36679   5.377   1.579   2.543
12146WAT     H136680   5.465   1.619   2.518
12146WAT     H236681   5.304   1.647   2.529
12147WAT      O36682   6.839   2.822   9.515
12147WAT     H136683   6.885   2.910   9.528
12147WAT     H236684   6.874   2.778   9.431
12148WAT      O36685   5.141   4.130   2.239
12148WAT     H136686   5.156   4.195   2.313
12148WAT     H236687   5.132   4.038   2.277
12149WAT      O36688   0.011   9.722   2.401
12149WAT     H136689  -0.008   9.758   2.310
12149WAT     H236690   0.021   9.622   2.396
12150WAT      O36691   5.510   3.185   4.182
12150WAT     H136692   5.553   3.273   4.202
12150WAT     H236693   5.555   3.142   4.104
12151WAT      O36694   0.225   6.605   0.865
12151WAT     H136695   0.297   6.563   0.920
12151WAT     H236696   0.226   6.567   0.773
12152WAT      O36697   8.991   1.014   1.445
12152WAT     H136698   9.075   1.068   1.445
12152WAT     H236699   8.960   1.000   1.351
12153WAT      O36700   2.789   4.740   3.626
12153WAT     H136701   2.763   4.833   3.598
12153WAT     H236702   2.862   4.745   3.694
12154WAT      O36703   4.699   3.371   2.697
12154WAT     H136704   4.732   3.352   2.604
12154WAT     H236705   4.612   3.420   2.692
12155WAT      O36706   9.097   2.201   2.230
12155WAT     H136707   9.109   2.140   2.152
12155WAT     H236708   9.028   2.164   2.292
12156WAT      O36709   1.803   3.613   1.915
12156WAT     H136710   1.895   3.611   1.954
12156WAT     H236711   1.781   3.522   1.878
12157WAT      O36712   5.654   1.153   6.631
12157WAT     H136713   5.753   1.145   6.630
12157WAT     H236714   5.627   1.235   6.580
12158WAT      O36715   4.899   0.075   9.377
12158WAT     H136716   4.877   0.115   9.288
12158WAT     H236717   4.983   0.021   9.369
12159WAT      O36718   6.364   6.168   0.284
12159WAT     H136719   6.405   6.210   0.202
12159WAT     H236720   6.265   6.172   0.277
12160WAT      O36721   1.316   0.289   1.591
12160WAT     H136722   1.302   0.345   1.510
12160WAT     H236723   1.354   0.201   1.564
12161WAT      O36724   0.295   3.035   7.722
12161WAT     H136725   0.364   2.998   7.660
12161WAT     H236726   0.330   3.118   7.765
12162WAT      O36727   0.987   7.282   3.793
12162WAT     H136728   0.916   7.218   3.821
12162WAT     H236729   0.953   7.376   3.798
12163WAT      O36730   3.070   2.359   7.137
12163WAT     H136731   2.986   2.333   7.088
12163WAT     H236732   3.102   2.447   7.102
12164WAT      O36733   7.270   4.710   1.459
12164WAT     H136734   7.326   4.789   1.483
12164WAT     H236735   7.252   4.711   1.360
12165WAT      O36736   6.911   1.440   5.027
12165WAT     H136737   6.899   1.540   5.028
12165WAT     H236738   6.983   1.416   4.962
12166WAT      O36739   3.479   6.029   1.576
12166WAT     H136740   3.487   6.029   1.476
12166WAT     H236741   3.561   6.070   1.616
12167WAT      O36742   4.883   5.013   5.120
12167WAT     H136743   4.949   4.963   5.177
12167WAT     H236744   4.899   4.991   5.024
12168WAT      O36745   4.025   2.491   1.136
12168WAT     H136746   3.941   2.475   1.187
12168WAT     H236747   4.064   2.579   1.163
12169WAT      O36748   8.562   7.447   8.913
12169WAT     H136749   8.607   7.364   8.947
12169WAT     H236750   8.465   7.428   8.897
12170WAT      O36751   4.375   4.883   5.779
12170WAT     H136752   4.360   4.881   5.680
12170WAT     H236753   4.307   4.944   5.821
12171WAT      O36754   8.063   1.983   6.328
12171WAT     H136755   8.013   1.994   6.413
12171WAT     H236756   8.055   2.066   6.273
12172WAT      O36757   5.131   7.840   8.641
12172WAT     H136758   5.178   7.920   8.677
12172WAT     H236759   5.118   7.851   8.542
12173WAT      O36760   2.555   6.209   9.315
12173WAT     H136761   2.647   6.181   9.288
12173WAT     H236762   2.560   6.266   9.396
12174WAT      O36763   7.018   7.389   7.118
12174WAT     H136764   7.049   7.361   7.209
12174WAT     H236765   6.992   7.485   7.121
12175WAT      O36766   8.316   0.624   2.237
12175WAT     H136767   8.248   0.611   2.165
12175WAT     H236768   8.378   0.697   2.212
12176WAT      O36769   0.222   8.042   7.496
12176WAT     H136770   0.185   8.006   7.411
12176WAT     H236771   0.156   8.028   7.570
12177WAT      O36772   7.127   2.769   8.926
12177WAT     H136773   7.216   2.741   8.888
12177WAT     H236774   7.139   2.852   8.980
12178WAT      O36775   5.100   3.287   3.376
12178WAT     H136776   5.032   3.283   3.303
12178WAT     H236777   5.190   3.266   3.340
12179WAT      O36778   1.750   4.808   9.493
12179WAT     H136779   1.754   4.767   9.402
12179WAT     H236780   1.779   4.903   9.489
12180WAT      O36781   5.808   1.017   7.310
12180WAT     H136782   5.747   0.941   7.287
12180WAT     H236783   5.814   1.027   7.409
12181WAT      O36784   6.784   3.720   2.870
12181WAT     H136785   6.801   3.794   2.934
12181WAT     H236786   6.712   3.661   2.906
12182WAT      O36787   3.722   8.215   3.980
12182WAT     H136788   3.700   8.312   3.975
12182WAT     H236789   3.648   8.166   4.026
12183WAT      O36790   9.172   6.801   5.444
12183WAT     H136791   9.107   6.814   5.369
12183WAT     H236792   9.265   6.795   5.407
12184WAT      O36793   9.260   0.355   0.708
12184WAT     H136794   9.260   0.370   0.609
12184WAT     H236795   9.354   0.354   0.741
12185WAT      O36796   6.230   3.898   7.604
12185WAT     H136797   6.240   3.987   7.649
12185WAT     H236798   6.218   3.911   7.506
12186WAT      O36799   3.984   3.614   5.063
12186WAT     H136800   3.988   3.529   5.115
12186WAT     H236801   4.077   3.647   5.045
12187WAT      O36802   2.694   1.801   1.037
12187WAT     H136803   2.705   1.901   1.036
12187WAT     H236804   2.688   1.770   1.132
12188WAT      O36805   5.330   6.495   6.566
12188WAT     H136806   5.348   6.546   6.482
12188WAT     H236807   5.405   6.431   6.583
12189WAT      O36808   1.176   4.215   1.882
12189WAT     H136809   1.223   4.198   1.796
12189WAT     H236810   1.236   4.190   1.958
12190WAT      O36811   7.478   4.919   4.802
12190WAT     H136812   7.495   4.899   4.899
12190WAT     H236813   7.381   4.936   4.787
12191WAT      O36814   7.825   5.190   8.274
12191WAT     H136815   7.733   5.151   8.288
12191WAT     H236816   7.819   5.289   8.271
12192WAT      O36817   2.459   6.983   7.760
12192WAT     H136818   2.529   6.959   7.828
12192WAT     H236819   2.493   7.056   7.702
12193WAT      O36820   4.058   4.669   7.921
12193WAT     H136821   3.961   4.689   7.908
12193WAT     H236822   4.111   4.711   7.847
12194WAT      O36823   0.458   9.768   3.375
12194WAT     H136824   0.464   9.844   3.440
12194WAT     H236825   0.373   9.718   3.391
12195WAT      O36826   3.996   9.644   0.569
12195WAT     H136827   3.968   9.605   0.482
12195WAT     H236828   3.918   9.649   0.631
12196WAT      O36829   6.582   1.666   9.316
12196WAT     H136830   6.587   1.675   9.415
12196WAT     H236831   6.644   1.732   9.273
12197WAT      O36832   7.281   3.200   7.519
12197WAT     H136833   7.245   3.292   7.537
12197WAT     H236834   7.366   3.208   7.467
12198WAT      O36835   4.988   7.746   9.450
12198WAT     H136836   4.981   7.806   9.530
12198WAT     H236837   4.950   7.794   9.370
12199WAT      O36838   5.809   5.492   9.420
12199WAT     H136839   5.853   5.405   9.442
12199WAT     H236840   5.750   5.519   9.496
12200WAT      O36841   1.405   9.040   2.177
12200WAT     H136842   1.379   9.107   2.246
12200WAT     H236843   1.376   9.072   2.087
12201WAT      O36844   1.221   6.319   9.136
12201WAT     H136845   1.185   6.238   9.181
12201WAT     H236846   1.211   6.398   9.197
12202WAT      O36847   1.661   5.840   1.162
12202WAT     H136848   1.654   5.865   1.259
12202WAT     H236849   1.674   5.922   1.107
12203WAT      O36850   5.779   1.100   3.508
12203WAT     H136851   5.774   1.200   3.517
12203WAT     H236852   5.736   1.058   3.588
12204WAT      O36853   1.702   1.810   4.184
12204WAT     H136854   1.721   1.720   4.225
12204WAT     H236855   1.739   1.881   4.243
12205WAT      O36856   5.752   7.522   8.512
12205WAT     H136857   5.750   7.437   8.460
12205WAT     H236858   5.825   7.581   8.477
12206WAT      O36859   2.514   4.739   1.228
12206WAT     H136860   2.466   4.745   1.316
12206WAT     H236861   2.597   4.684   1.239
12207WAT      O36862   6.367   5.701   0.072
12207WAT     H136863   6.276   5.667   0.049
12207WAT     H236864   6.361   5.762   0.151
12208WAT      O36865   1.876   3.533   8.168
12208WAT     H136866   1.915   3.574   8.085
12208WAT     H236867   1.778   3.522   8.157
12209WAT      O36868   3.318   9.242   6.583
12209WAT     H136869   3.386   9.207   6.647
12209WAT     H236870   3.227   9.211   6.611
12210WAT      O36871   4.985   7.385   8.802
12210WAT     H136872   5.084   7.395   8.792
12210WAT     H236873   4.939   7.431   8.726
12211WAT      O36874   9.805   3.801   6.141
12211WAT     H136875   9.763   3.735   6.078
12211WAT     H236876   9.866   3.753   6.203
12212WAT      O36877   7.350   7.243   5.659
12212WAT     H136878   7.409   7.310   5.703
12212WAT     H236879   7.315   7.179   5.727
12213WAT      O36880   1.090   0.882   6.065
12213WAT     H136881   1.161   0.949   6.087
12213WAT     H236882   1.110   0.796   6.111
12214WAT      O36883   9.150   6.341   7.971
12214WAT     H136884   9.237   6.311   8.009
12214WAT     H236885   9.150   6.440   7.959
12215WAT      O36886   0.281   4.827   2.752
12215WAT     H136887   0.293   4.729   2.767
12215WAT     H236888   0.268   4.873   2.839
12216WAT      O36889   1.851   1.966   4.978
12216WAT     H136890   1.889   1.884   4.936
12216WAT     H236891   1.751   1.963   4.974
12217WAT      O36892   2.647   6.031   1.212
12217WAT     H136893   2.570   5.985   1.256
12217WAT     H236894   2.733   6.000   1.254
12218WAT      O36895   3.836   6.617   1.769
12218WAT     H136896   3.905   6.680   1.806
12218WAT     H236897   3.749   6.633   1.816
12219WAT      O36898   6.758   5.182   5.405
12219WAT     H136899   6.821   5.260   5.409
12219WAT     H236900   6.664   5.216   5.395
12220WAT      O36901   2.469   0.867   4.215
12220WAT     H136902   2.380   0.880   4.261
12220WAT     H236903   2.508   0.780   4.243
12221WAT      O36904   8.316   0.505   4.390
12221WAT     H136905   8.411   0.480   4.371
12221WAT     H236906   8.305   0.519   4.489
12222WAT      O36907   0.883   1.263   7.289
12222WAT     H136908   0.980   1.244   7.304
12222WAT     H236909   0.855   1.228   7.199
12223WAT      O36910   1.140   3.261   9.557
12223WAT     H136911   1.197   3.283   9.478
12223WAT     H236912   1.192   3.276   9.641
12224WAT      O36913   8.987   7.912   3.556
12224WAT     H136914   8.970   7.821   3.593
12224WAT     H236915   8.904   7.967   3.563
12225WAT      O36916   2.138   0.195   8.627
12225WAT     H136917   2.130   0.156   8.535
12225WAT     H236918   2.111   0.127   8.695
12226WAT      O36919   7.396   5.819   4.422
12226WAT     H136920   7.441   5.892   4.369
12226WAT     H236921   7.349   5.860   4.500
12227WAT      O36922   5.430   9.173   4.731
12227WAT     H136923   5.458   9.111   4.805
12227WAT     H236924   5.345   9.140   4.690
12228WAT      O36925   6.210   4.813   9.144
12228WAT     H136926   6.260   4.893   9.111
12228WAT     H236927   6.271   4.734   9.147
12229WAT      O36928   6.928   2.295   6.349
12229WAT     H136929   6.942   2.347   6.265
12229WAT     H236930   6.874   2.349   6.413
12230WAT      O36931   3.553   2.752   4.090
12230WAT     H136932   3.632   2.784   4.143
12230WAT     H236933   3.491   2.828   4.073
12231WAT      O36934   5.545   9.637   5.135
12231WAT     H136935   5.524   9.729   5.101
12231WAT     H236936   5.631   9.606   5.095
12232WAT      O36937   1.326   8.440   0.796
12232WAT     H136938   1.240   8.464   0.840
12232WAT     H236939   1.308   8.414   0.700
12233WAT      O36940   0.108   1.731   0.487
12233WAT     H136941   0.095   1.799   0.559
12233WAT     H236942   0.194   1.682   0.502
12234WAT      O36943   9.192   0.848   2.577
12234WAT     H136944   9.169   0.945   2.570
12234WAT     H236945   9.113   0.793   2.550
12235WAT      O36946   7.747   6.353   2.647
12235WAT     H136947   7.702   6.435   2.612
12235WAT     H236948   7.721   6.339   2.742
12236WAT      O36949   4.586   6.504   5.539
12236WAT     H136950   4.671   6.466   5.575
12236WAT     H236951   4.521   6.519   5.613
12237WAT      O36952   8.024   7.897   2.798
12237WAT     H136953   8.091   7.830   2.832
12237WAT     H236954   8.059   7.940   2.715
12238WAT      O36955   4.607   1.633   3.756
12238WAT     H136956   4.580   1.548   3.710
12238WAT     H236957   4.707   1.643   3.751
12239WAT      O36958   7.561   5.470   5.646
12239WAT     H136959   7.658   5.490   5.663
12239WAT     H236960   7.504   5.530   5.701
12240WAT      O36961   3.663   7.595   0.130
12240WAT     H136962   3.708   7.642   0.055
12240WAT     H236963   3.601   7.658   0.177
12241WAT      O36964   6.003   2.851   2.699
12241WAT     H136965   6.072   2.798   2.747
12241WAT     H236966   5.960   2.915   2.764
12242WAT      O36967   1.804   5.745   1.521
12242WAT     H136968   1.730   5.796   1.476
12242WAT     H236969   1.835   5.672   1.460
12243WAT      O36970   7.982   7.864   7.533
12243WAT     H136971   7.900   7.880   7.587
12243WAT     H236972   7.956   7.838   7.439
12244WAT      O36973   0.194   4.909   0.208
12244WAT     H136974   0.193   4.974   0.284
12244WAT     H236975   0.220   4.819   0.242
12245WAT      O36976   6.608   8.961   3.585
12245WAT     H136977   6.529   8.910   3.620
12245WAT     H236978   6.654   8.907   3.515
12246WAT      O36979   4.652   8.145   2.055
12246WAT     H136980   4.585   8.129   2.128
12246WAT     H236981   4.614   8.115   1.968
12247WAT      O36982   3.384   2.493   8.028
12247WAT     H136983   3.319   2.500   8.104
12247WAT     H236984   3.477   2.495   8.064
12248WAT      O36985   8.797   3.706   8.221
12248WAT     H136986   8.867   3.726   8.290
12248WAT     H236987   8.751   3.621   8.244
12249WAT      O36988   4.713   1.170   3.357
12249WAT     H136989   4.758   1.258   3.375
12249WAT     H236990   4.739   1.104   3.428
12250WAT      O36991   9.109   3.412   5.056
12250WAT     H136992   9.126   3.439   4.962
12250WAT     H236993   9.038   3.342   5.059
12251WAT      O36994   1.588   5.924   1.427
12251WAT     H136995   1.567   5.885   1.517
12251WAT     H236996   1.509   5.975   1.393
12252WAT      O36997   7.941   2.900   9.451
12252WAT     H136998   7.849   2.937   9.434
12252WAT     H236999   7.992   2.899   9.366
12253WAT      O37000   5.906   0.239   4.772
12253WAT     H137001   6.003   0.215   4.776
12253WAT     H237002   5.874   0.263   4.864
12254WAT      O37003   1.114   1.116   0.472
12254WAT     H137004   1.021   1.120   0.437
12254WAT     H237005   1.116   1.154   0.565
12255WAT      O37006   9.797   0.027   1.838
12255WAT     H137007   9.870   0.081   1.796
12255WAT     H237008   9.836  -0.036   1.906
12256WAT      O37009   4.748   3.807   8.666
12256WAT     H137010   4.711   3.841   8.579
12256WAT     H237011   4.802   3.878   8.710
12257WAT      O37012   5.776   9.638   7.302
12257WAT     H137013   5.696   9.589   7.337
12257WAT     H237014   5.830   9.674   7.379
12258WAT      O37015   0.793   2.498   1.688
12258WAT     H137016   0.732   2.449   1.751
12258WAT     H237017   0.875   2.442   1.671
12259WAT      O37018   5.221   0.024   5.457
12259WAT     H137019   5.302   0.080   5.444
12259WAT     H237020   5.214  -0.002   5.554
12260WAT      O37021   0.057   1.625   8.992
12260WAT     H137022   0.042   1.659   9.084
12260WAT     H237023  -0.010   1.553   8.972
12261WAT      O37024   5.717   0.469   0.445
12261WAT     H137025   5.637   0.412   0.460
12261WAT     H237026   5.700   0.561   0.479
12262WAT      O37027   2.287   3.528   8.197
12262WAT     H137028   2.346   3.564   8.126
12262WAT     H237029   2.235   3.603   8.239
12263WAT      O37030   2.117   4.797   9.057
12263WAT     H137031   2.184   4.832   9.122
12263WAT     H237032   2.085   4.872   8.999
12264WAT      O37033   4.590   3.047   7.519
12264WAT     H137034   4.514   3.097   7.476
12264WAT     H237035   4.555   2.993   7.595
12265WAT      O37036   1.512   9.691   7.555
12265WAT     H137037   1.412   9.683   7.560
12265WAT     H237038   1.545   9.741   7.634
12266WAT      O37039   1.970   6.813   3.481
12266WAT     H137040   1.929   6.815   3.390
12266WAT     H237041   1.929   6.884   3.538
12267WAT      O37042   9.633   3.825   8.422
12267WAT     H137043   9.644   3.924   8.421
12267WAT     H237044   9.554   3.799   8.368
12268WAT      O37045   0.943   0.991   1.940
12268WAT     H137046   0.851   1.030   1.943
12268WAT     H237047   1.003   1.045   1.999
12269WAT      O37048   6.951   2.682   3.930
12269WAT     H137049   6.915   2.719   4.016
12269WAT     H237050   6.874   2.663   3.868
12270WAT      O37051   0.787   3.420   2.315
12270WAT     H137052   0.871   3.381   2.353
12270WAT     H237053   0.800   3.518   2.299
12271WAT      O37054   7.700   7.795   4.313
12271WAT     H137055   7.603   7.819   4.306
12271WAT     H237056   7.727   7.795   4.410
12272WAT      O37057   2.723   3.215   7.217
12272WAT     H137058   2.672   3.249   7.296
12272WAT     H237059   2.771   3.291   7.173
12273WAT      O37060   9.742   2.690   5.956
12273WAT     H137061   9.758   2.787   5.975
12273WAT     H237062   9.687   2.680   5.873
12274WAT      O37063   8.490   7.977   5.603
12274WAT     H137064   8.406   8.030   5.605
12274WAT     H237065   8.500   7.927   5.689
12275WAT      O37066   7.331   9.465   7.067
12275WAT     H137067   7.273   9.420   7.135
12275WAT     H237068   7.386   9.536   7.113
12276WAT      O37069   6.556   7.313   9.872
12276WAT     H137070   6.456   7.307   9.868
12276WAT     H237071   6.583   7.406   9.893
12277WAT      O37072   2.191   3.772   7.650
12277WAT     H137073   2.215   3.738   7.560
12277WAT     H237074   2.091   3.777   7.658
12278WAT      O37075   1.245   1.348   7.795
12278WAT     H137076   1.241   1.252   7.824
12278WAT     H237077   1.262   1.352   7.697
12279WAT      O37078   7.922   7.161   3.393
12279WAT     H137079   7.895   7.114   3.477
12279WAT     H237080   7.853   7.145   3.322
12280WAT      O37081   8.421   3.394   9.107
12280WAT     H137082   8.410   3.487   9.142
12280WAT     H237083   8.511   3.386   9.065
12281WAT      O37084   6.086   9.420   7.862
12281WAT     H137085   6.011   9.466   7.815
12281WAT     H237086   6.071   9.321   7.861
12282WAT      O37087   6.406   2.793   3.385
12282WAT     H137088   6.439   2.856   3.315
12282WAT     H237089   6.306   2.792   3.386
12283WAT      O37090   9.492   4.712   2.935
12283WAT     H137091   9.402   4.755   2.935
12283WAT     H237092   9.492   4.636   2.870
12284WAT      O37093   5.949   8.034   9.272
12284WAT     H137094   5.971   8.022   9.368
12284WAT     H237095   5.950   7.945   9.226
12285WAT      O37096   7.848   9.398   2.870
12285WAT     H137097   7.781   9.418   2.941
12285WAT     H237098   7.826   9.309   2.828
12286WAT      O37099   3.264   4.020   4.745
12286WAT     H137100   3.313   4.075   4.678
12286WAT     H237101   3.328   3.988   4.815
12287WAT      O37102   7.924   5.456   2.673
12287WAT     H137103   7.957   5.548   2.693
12287WAT     H237104   7.852   5.461   2.604
12288WAT      O37105   6.101   8.637   7.347
12288WAT     H137106   6.087   8.541   7.372
12288WAT     H237107   6.116   8.691   7.429
12289WAT      O37108   7.736   8.881   7.037
12289WAT     H137109   7.718   8.798   6.984
12289WAT     H237110   7.835   8.900   7.036
12290WAT      O37111   9.128   8.151   9.790
12290WAT     H137112   9.033   8.156   9.757
12290WAT     H237113   9.147   8.060   9.825
12291WAT      O37114   8.244   0.976   1.911
12291WAT     H137115   8.290   0.952   1.826
12291WAT     H237116   8.198   1.065   1.900
12292WAT      O37117   2.253   6.285   1.121
12292WAT     H137118   2.276   6.190   1.140
12292WAT     H237119   2.232   6.332   1.207
12293WAT      O37120   4.502   0.663   7.500
12293WAT     H137121   4.405   0.650   7.520
12293WAT     H237122   4.523   0.761   7.497
12294WAT      O37123   0.159   9.405   7.515
12294WAT     H137124   0.155   9.322   7.460
12294WAT     H237125   0.066   9.441   7.529
12295WAT      O37126   3.318   1.733   7.294
12295WAT     H137127   3.292   1.828   7.307
12295WAT     H237128   3.248   1.685   7.242
12296WAT      O37129   7.091   4.228   6.250
12296WAT     H137130   7.050   4.250   6.161
12296WAT     H237131   7.068   4.134   6.274
12297WAT      O37132   3.744   5.994   7.470
12297WAT     H137133   3.696   6.082   7.476
12297WAT     H237134   3.716   5.935   7.545
12298WAT      O37135   9.569   7.373   8.319
12298WAT     H137136   9.472   7.367   8.343
12298WAT     H237137   9.587   7.460   8.273
12299WAT      O37138   8.632   5.416   1.729
12299WAT     H137139   8.716   5.380   1.770
12299WAT     H237140   8.593   5.486   1.789
12300WAT      O37141   1.394   6.347   3.366
12300WAT     H137142   1.350   6.328   3.278
12300WAT     H237143   1.398   6.446   3.381
12301WAT      O37144   7.216   9.762   0.217
12301WAT     H137145   7.272   9.754   0.134
12301WAT     H237146   7.249   9.840   0.271
12302WAT      O37147   4.851   7.567   4.616
12302WAT     H137148   4.886   7.489   4.565
12302WAT     H237149   4.896   7.571   4.705
12303WAT      O37150   8.547   8.611   2.689
12303WAT     H137151   8.601   8.535   2.724
12303WAT     H237152   8.577   8.634   2.596
12304WAT      O37153   7.760   7.732   6.867
12304WAT     H137154   7.812   7.787   6.802
12304WAT     H237155   7.820   7.701   6.941
12305WAT      O37156   5.958   9.335   7.512
12305WAT     H137157   5.925   9.405   7.575
12305WAT     H237158   6.057   9.325   7.521
12306WAT      O37159   3.950   0.421   6.712
12306WAT     H137160   3.968   0.373   6.626
12306WAT     H237161   3.942   0.354   6.786
12307WAT      O37162   4.847   1.306   1.135
12307WAT     H137163   4.807   1.291   1.226
12307WAT     H237164   4.801   1.383   1.091
12308WAT      O37165   8.606   2.983   3.956
12308WAT     H137166   8.645   3.059   3.903
12308WAT     H237167   8.557   2.922   3.894
12309WAT      O37168   4.551   0.552   1.728
12309WAT     H137169   4.532   0.518   1.636
12309WAT     H237170   4.584   0.646   1.723
12310WAT      O37171   9.236   4.984   5.559
12310WAT     H137172   9.188   4.917   5.617
12310WAT     H237173   9.195   5.074   5.573
12311WAT      O37174   8.931   6.628   2.160
12311WAT     H137175   8.903   6.596   2.250
12311WAT     H237176   8.855   6.676   2.116
12312WAT      O37177   7.043   2.041   0.916
12312WAT     H137178   7.059   1.944   0.902
12312WAT     H237179   7.120   2.080   0.967
12313WAT      O37180   5.335   4.280   8.190
12313WAT     H137181   5.428   4.271   8.226
12313WAT     H237182   5.270   4.236   8.252
12314WAT      O37183   1.894   5.523   8.808
12314WAT     H137184   1.956   5.530   8.730
12314WAT     H237185   1.910   5.436   8.856
12315WAT      O37186   0.753   6.874   6.735
12315WAT     H137187   0.746   6.806   6.662
12315WAT     H237188   0.842   6.919   6.731
12316WAT      O37189   0.650   5.655   5.475
12316WAT     H137190   0.603   5.621   5.556
12316WAT     H237191   0.612   5.610   5.394
12317WAT      O37192   8.360   2.428   5.140
12317WAT     H137193   8.339   2.523   5.161
12317WAT     H237194   8.444   2.424   5.087
12318WAT      O37195   3.389   6.955   4.597
12318WAT     H137196   3.318   7.015   4.634
12318WAT     H237197   3.350   6.864   4.581
12319WAT      O37198   8.631   3.819   0.195
12319WAT     H137199   8.538   3.782   0.199
12319WAT     H237200   8.651   3.866   0.281
12320WAT      O37201   1.273   0.498   6.608
12320WAT     H137202   1.341   0.475   6.538
12320WAT     H237203   1.308   0.473   6.698
12321WAT      O37204   5.886   9.670   5.791
12321WAT     H137205   5.788   9.652   5.780
12321WAT     H237206   5.933   9.653   5.705
12322WAT      O37207   2.364   1.266   5.671
12322WAT     H137208   2.332   1.335   5.605
12322WAT     H237209   2.450   1.226   5.638
12323WAT      O37210   2.104   9.592   1.451
12323WAT     H137211   2.086   9.528   1.525
12323WAT     H237212   2.096   9.545   1.363
12324WAT      O37213   7.749   8.288   3.500
12324WAT     H137214   7.760   8.387   3.512
12324WAT     H237215   7.676   8.271   3.434
12325WAT      O37216   1.836   0.211   3.496
12325WAT     H137217   1.917   0.268   3.510
12325WAT     H237218   1.800   0.228   3.404
12326WAT      O37219   6.999   3.876   9.578
12326WAT     H137220   6.990   3.792   9.525
12326WAT     H237221   7.056   3.859   9.659
12327WAT      O37222   8.391   1.628   2.432
12327WAT     H137223   8.364   1.673   2.347
12327WAT     H237224   8.404   1.530   2.416
12328WAT      O37225   3.988   0.323   6.450
12328WAT     H137226   4.077   0.369   6.454
12328WAT     H237227   4.001   0.224   6.452
12329WAT      O37228   2.125   6.342   7.533
12329WAT     H137229   2.143   6.432   7.575
12329WAT     H237230   2.175   6.336   7.447
12330WAT      O37231   0.414   3.642   8.624
12330WAT     H137232   0.444   3.628   8.718
12330WAT     H237233   0.454   3.727   8.589
12331WAT      O37234   0.607   5.401   4.910
12331WAT     H137235   0.663   5.401   4.993
12331WAT     H237236   0.641   5.471   4.848
12332WAT      O37237   0.878   5.954   1.614
12332WAT     H137238   0.807   5.896   1.654
12332WAT     H237239   0.842   6.001   1.534
12333WAT      O37240   1.298   2.499   0.699
12333WAT     H137241   1.217   2.441   0.699
12333WAT     H237242   1.377   2.446   0.666
12334WAT      O37243   2.465   5.865   9.805
12334WAT     H137244   2.505   5.929   9.740
12334WAT     H237245   2.423   5.915   9.880
12335WAT      O37246   0.515   0.677   7.388
12335WAT     H137247   0.578   0.721   7.453
12335WAT     H237248   0.441   0.633   7.438
12336WAT      O37249   5.946   1.405   8.624
12336WAT     H137250   5.973   1.493   8.585
12336WAT     H237251   5.874   1.364   8.568
12337WAT      O37252   6.060   0.845   2.905
12337WAT     H137253   6.092   0.903   2.830
12337WAT     H237254   5.966   0.817   2.888
12338WAT      O37255   7.936   9.170   7.165
12338WAT     H137256   7.957   9.092   7.106
12338WAT     H237257   8.008   9.238   7.156
12339WAT      O37258   2.388   3.371   8.428
12339WAT     H137259   2.301   3.323   8.440
12339WAT     H237260   2.381   3.435   8.351
12340WAT      O37261   9.352   8.764   9.790
12340WAT     H137262   9.324   8.687   9.847
12340WAT     H237263   9.349   8.737   9.693
12341WAT      O37264   8.178   3.193   3.338
12341WAT     H137265   8.086   3.155   3.342
12341WAT     H237266   8.213   3.205   3.431
12342WAT      O37267   8.157   8.254   9.055
12342WAT     H137268   8.173   8.350   9.075
12342WAT     H237269   8.221   8.197   9.107
12343WAT      O37270   9.140   4.582   9.712
12343WAT     H137271   9.199   4.659   9.688
12343WAT     H237272   9.113   4.589   9.808
12344WAT      O37273   9.649   5.724   3.982
12344WAT     H137274   9.733   5.711   3.929
12344WAT     H237275   9.573   5.678   3.936
12345WAT      O37276   8.079   7.849   5.921
12345WAT     H137277   8.114   7.908   5.994
12345WAT     H237278   8.002   7.894   5.876
12346WAT      O37279   7.880   5.032   7.532
12346WAT     H137280   7.824   5.110   7.504
12346WAT     H237281   7.888   5.031   7.632
12347WAT      O37282   1.128   9.417   9.209
12347WAT     H137283   1.034   9.384   9.217
12347WAT     H237284   1.128   9.517   9.207
12348WAT      O37285   5.719   5.336   4.777
12348WAT     H137286   5.642   5.278   4.751
12348WAT     H237287   5.687   5.431   4.786
12349WAT      O37288   6.993   3.755   7.772
12349WAT     H137289   6.897   3.730   7.762
12349WAT     H237290   7.036   3.697   7.842
12350WAT      O37291   6.515   4.184   8.708
12350WAT     H137292   6.460   4.113   8.662
12350WAT     H237293   6.528   4.159   8.804
12351WAT      O37294   9.594   9.738   7.536
12351WAT     H137295   9.572   9.723   7.632
12351WAT     H237296   9.525   9.796   7.494
12352WAT      O37297   1.631   3.849   3.341
12352WAT     H137298   1.692   3.833   3.419
12352WAT     H237299   1.684   3.872   3.260
12353WAT      O37300   7.787   8.854   9.255
12353WAT     H137301   7.688   8.850   9.264
12353WAT     H237302   7.812   8.917   9.182
12354WAT      O37303   1.747   2.996   6.505
12354WAT     H137304   1.742   2.920   6.440
12354WAT     H237305   1.838   3.036   6.503
12355WAT      O37306   5.912   4.601   0.695
12355WAT     H137307   5.852   4.649   0.758
12355WAT     H237308   5.932   4.660   0.616
12356WAT      O37309   2.119   2.025   4.643
12356WAT     H137310   2.198   2.064   4.594
12356WAT     H237311   2.146   1.939   4.686
12357WAT      O37312   9.226   6.765   9.580
12357WAT     H137313   9.256   6.740   9.672
12357WAT     H237314   9.258   6.858   9.559
12358WAT      O37315   3.633   9.812   0.347
12358WAT     H137316   3.590   9.781   0.432
12358WAT     H237317   3.653   9.733   0.289
12359WAT      O37318   9.451   0.223   5.992
12359WAT     H137319   9.371   0.283   5.983
12359WAT     H237320   9.500   0.245   6.076
12360WAT      O37321   6.746   4.242   3.068
12360WAT     H137322   6.836   4.284   3.076
12360WAT     H237323   6.677   4.304   3.105
12361WAT      O37324   8.762   7.252   9.304
12361WAT     H137325   8.720   7.339   9.276
12361WAT     H237326   8.757   7.244   9.404
12362WAT      O37327   2.604   2.462   7.172
12362WAT     H137328   2.631   2.506   7.257
12362WAT     H237329   2.596   2.531   7.100
12363WAT      O37330   2.488   1.653   4.060
12363WAT     H137331   2.414   1.677   4.122
12363WAT     H237332   2.576   1.665   4.106
12364WAT      O37333   0.012   2.975   0.946
12364WAT     H137334   0.047   3.022   1.026
12364WAT     H237335   0.000   2.878   0.967
12365WAT      O37336   1.027   9.306   7.051
12365WAT     H137337   1.046   9.346   6.961
12365WAT     H237338   0.958   9.233   7.041
12366WAT      O37339   6.585   7.159   6.601
12366WAT     H137340   6.569   7.249   6.561
12366WAT     H237341   6.532   7.149   6.685
12367WAT      O37342   9.395   4.820   7.984
12367WAT     H137343   9.467   4.848   7.920
12367WAT     H237344   9.436   4.769   8.060
12368WAT      O37345   9.506   5.925   7.193
12368WAT     H137346   9.445   6.003   7.184
12368WAT     H237347   9.487   5.876   7.278
12369WAT      O37348   0.553   8.491   3.667
12369WAT     H137349   0.483   8.486   3.596
12369WAT     H237350   0.531   8.426   3.740
12370WAT      O37351   8.740   8.182   7.063
12370WAT     H137352   8.660   8.232   7.028
12370WAT     H237353   8.749   8.199   7.161
12371WAT      O37354   9.321   5.729   6.350
12371WAT     H137355   9.299   5.825   6.331
12371WAT     H237356   9.253   5.670   6.307
12372WAT      O37357   2.080   8.662   1.670
12372WAT     H137358   2.084   8.681   1.768
12372WAT     H237359   2.127   8.576   1.651
12373WAT      O37360   7.843   1.833   3.447
12373WAT     H137361   7.827   1.918   3.397
12373WAT     H237362   7.896   1.852   3.529
12374WAT      O37363   5.041   9.760   9.156
12374WAT     H137364   5.061   9.733   9.062
12374WAT     H237365   5.049   9.681   9.216
12375WAT      O37366   1.915   4.891   0.733
12375WAT     H137367   1.938   4.916   0.827
12375WAT     H237368   1.819   4.864   0.728
12376WAT      O37369   7.816   8.842   7.484
12376WAT     H137370   7.795   8.908   7.557
12376WAT     H237371   7.872   8.769   7.521
12377WAT      O37372   2.858   9.722   9.774
12377WAT     H137373   2.878   9.812   9.736
12377WAT     H237374   2.944   9.677   9.800
12378WAT      O37375   7.984   9.326   7.990
12378WAT     H137376   8.045   9.344   7.913
12378WAT     H237377   7.901   9.380   7.981
12379WAT      O37378   5.993   6.391   9.808
12379WAT     H137379   6.082   6.437   9.807
12379WAT     H237380   5.920   6.458   9.817
12380WAT      O37381   5.486   1.418   5.128
12380WAT     H137382   5.394   1.409   5.088
12380WAT     H237383   5.507   1.514   5.141
12381WAT      O37384   4.721   5.977   6.922
12381WAT     H137385   4.753   5.915   6.850
12381WAT     H237386   4.624   5.960   6.940
12382WAT      O37387   0.420   4.536   3.587
12382WAT     H137388   0.487   4.611   3.592
12382WAT     H237389   0.466   4.453   3.555
12383WAT      O37390   5.694   1.077   8.796
12383WAT     H137391   5.631   1.135   8.744
12383WAT     H237392   5.730   1.128   8.874
12384WAT      O37393   3.667   6.147   0.597
12384WAT     H137394   3.696   6.074   0.658
12384WAT     H237395   3.639   6.108   0.509
12385WAT      O37396   2.036   6.787   8.018
12385WAT     H137397   2.093   6.796   8.100
12385WAT     H237398   1.964   6.856   8.020
12386WAT      O37399   1.440   8.872   1.346
12386WAT     H137400   1.497   8.880   1.427
12386WAT     H237401   1.346   8.900   1.368
12387WAT      O37402   8.901   6.140   3.636
12387WAT     H137403   8.991   6.096   3.626
12387WAT     H237404   8.898   6.222   3.580
12388WAT      O37405   9.705   8.836   7.198
12388WAT     H137406   9.614   8.874   7.179
12388WAT     H237407   9.763   8.906   7.238
12389WAT      O37408   5.175   7.408   6.981
12389WAT     H137409   5.249   7.439   6.921
12389WAT     H237410   5.213   7.346   7.051
12390WAT      O37411   5.435   5.770   6.286
12390WAT     H137412   5.434   5.856   6.235
12390WAT     H237413   5.371   5.706   6.244
12391WAT      O37414   6.339   9.380   1.425
12391WAT     H137415   6.310   9.465   1.379
12391WAT     H237416   6.296   9.375   1.516
12392WAT      O37417   3.270   3.508   8.324
12392WAT     H137418   3.192   3.501   8.386
12392WAT     H237419   3.284   3.419   8.279
12393WAT      O37420   2.234   9.830   5.119
12393WAT     H137421   2.259   9.734   5.107
12393WAT     H237422   2.263   9.861   5.209
12394WAT      O37423   8.623   2.142   4.727
12394WAT     H137424   8.603   2.068   4.791
12394WAT     H237425   8.696   2.114   4.665
12395WAT      O37426   1.087   8.844   5.720
12395WAT     H137427   1.146   8.781   5.669
12395WAT     H237428   0.991   8.823   5.700
12396WAT      O37429   7.328   6.087   0.786
12396WAT     H137430   7.326   5.993   0.821
12396WAT     H237431   7.265   6.096   0.709
12397WAT      O37432   1.356   9.810   6.343
12397WAT     H137433   1.455   9.818   6.358
12397WAT     H237434   1.309   9.800   6.430
12398WAT      O37435   0.726   4.556   8.795
12398WAT     H137436   0.775   4.525   8.876
12398WAT     H237437   0.710   4.478   8.733
12399WAT      O37438   7.605   3.688   9.562
12399WAT     H137439   7.656   3.627   9.502
12399WAT     H237440   7.642   3.781   9.554
12400WAT      O37441   2.941   4.232   7.495
12400WAT     H137442   2.859   4.243   7.438
12400WAT     H237443   2.916   4.244   7.591
12401WAT      O37444   7.311   6.522   0.945
12401WAT     H137445   7.358   6.563   0.866
12401WAT     H237446   7.378   6.473   1.001
12402WAT      O37447   7.776   8.702   8.445
12402WAT     H137448   7.811   8.609   8.435
12402WAT     H237449   7.676   8.702   8.439
12403WAT      O37450   8.236   2.105   8.414
12403WAT     H137451   8.278   2.183   8.367
12403WAT     H237452   8.303   2.031   8.421
12404WAT      O37453   5.592   8.317   1.409
12404WAT     H137454   5.660   8.348   1.343
12404WAT     H237455   5.517   8.271   1.361
12405WAT      O37456   3.540   3.512   4.681
12405WAT     H137457   3.604   3.440   4.655
12405WAT     H237458   3.448   3.474   4.691
12406WAT      O37459   5.227   9.811   5.729
12406WAT     H137460   5.285   9.741   5.770
12406WAT     H237461   5.133   9.799   5.759
12407WAT      O37462   8.962   1.480   4.071
12407WAT     H137463   8.988   1.505   4.164
12407WAT     H237464   8.950   1.563   4.016
12408WAT      O37465   3.472   0.648   5.585
12408WAT     H137466   3.550   0.711   5.576
12408WAT     H237467   3.424   0.667   5.671
12409WAT      O37468   6.152   9.184   2.853
12409WAT     H137469   6.090   9.122   2.806
12409WAT     H237470   6.108   9.273   2.866
12410WAT      O37471   5.669   4.706   8.814
12410WAT     H137472   5.625   4.672   8.730
12410WAT     H237473   5.600   4.747   8.873
12411WAT      O37474   5.319   5.045   9.160
12411WAT     H137475   5.375   5.106   9.215
12411WAT     H237476   5.375   4.968   9.128
12412WAT      O37477   0.699   0.538   7.816
12412WAT     H137478   0.600   0.547   7.807
12412WAT     H237479   0.742   0.544   7.726
12413WAT      O37480   1.517   6.145   1.179
12413WAT     H137481   1.499   6.240   1.153
12413WAT     H237482   1.431   6.102   1.208
12414WAT      O37483   5.729   3.073   9.185
12414WAT     H137484   5.808   3.050   9.127
12414WAT     H237485   5.669   3.136   9.136
12415WAT      O37486   4.647   7.368   9.071
12415WAT     H137487   4.746   7.358   9.080
12415WAT     H237488   4.625   7.459   9.036
12416WAT      O37489   2.729   5.966   9.849
12416WAT     H137490   2.738   5.873   9.885
12416WAT     H237491   2.670   5.966   9.769
12417WAT      O37492   5.159   5.093   2.915
12417WAT     H137493   5.205   5.116   2.829
12417WAT     H237494   5.142   5.176   2.968
12418WAT      O37495   0.042   1.279   5.076
12418WAT     H137496   0.061   1.286   4.978
12418WAT     H237497   0.121   1.311   5.127
12419WAT      O37498   9.119   3.106   9.529
12419WAT     H137499   9.180   3.047   9.581
12419WAT     H237500   9.172   3.175   9.481
12420WAT      O37501   4.240   1.413   5.705
12420WAT     H137502   4.169   1.405   5.634
12420WAT     H237503   4.251   1.509   5.729
12421WAT      O37504   9.233   0.952   7.615
12421WAT     H137505   9.251   0.884   7.686
12421WAT     H237506   9.202   1.037   7.658
12422WAT      O37507   1.591   7.506   4.169
12422WAT     H137508   1.586   7.512   4.268
12422WAT     H237509   1.551   7.419   4.139
12423WAT      O37510   0.457   5.750   2.252
12423WAT     H137511   0.389   5.677   2.242
12423WAT     H237512   0.473   5.767   2.349
12424WAT      O37513   3.939   3.254   0.598
12424WAT     H137514   3.841   3.235   0.593
12424WAT     H237515   3.955   3.352   0.588
12425WAT      O37516   0.473   9.078   6.875
12425WAT     H137517   0.510   9.050   6.963
12425WAT     H237518   0.546   9.082   6.807
12426WAT      O37519   3.040   7.637   0.539
12426WAT     H137520   3.123   7.692   0.553
12426WAT     H237521   2.981   7.645   0.619
12427WAT      O37522   6.857   4.773   8.176
12427WAT     H137523   6.780   4.762   8.113
12427WAT     H237524   6.898   4.863   8.163
12428WAT      O37525   4.937   1.477   0.871
12428WAT     H137526   4.924   1.496   0.774
12428WAT     H237527   4.849   1.451   0.911
12429WAT      O37528   2.359   6.803   0.394
12429WAT     H137529   2.272   6.836   0.430
12429WAT     H237530   2.397   6.872   0.333
12430WAT      O37531   6.376   5.471   8.546
12430WAT     H137532   6.396   5.373   8.546
12430WAT     H237533   6.382   5.506   8.640
12431WAT      O37534   5.181   0.373   6.392
12431WAT     H137535   5.160   0.303   6.324
12431WAT     H237536   5.217   0.330   6.475
12432WAT      O37537   5.243   4.506   8.126
12432WAT     H137538   5.230   4.525   8.029
12432WAT     H237539   5.270   4.410   8.138
12433WAT      O37540   3.775   3.994   8.156
12433WAT     H137541   3.709   4.030   8.090
12433WAT     H237542   3.860   4.045   8.150
12434WAT      O37543   5.050   4.851   1.009
12434WAT     H137544   5.065   4.753   0.993
12434WAT     H237545   5.056   4.900   0.922
12435WAT      O37546   7.952   5.544   0.832
12435WAT     H137547   7.973   5.459   0.881
12435WAT     H237548   7.969   5.622   0.893
12436WAT      O37549   3.312   6.051   0.495
12436WAT     H137550   3.310   6.011   0.587
12436WAT     H237551   3.236   6.015   0.441
12437WAT      O37552   9.593   5.592   6.342
12437WAT     H137553   9.507   5.627   6.377
12437WAT     H237554   9.608   5.499   6.376
12438WAT      O37555   4.968   9.261   2.799
12438WAT     H137556   4.979   9.331   2.729
12438WAT     H237557   4.873   9.260   2.830
12439WAT      O37558   4.937   7.501   1.184
12439WAT     H137559   4.997   7.424   1.203
12439WAT     H237560   4.850   7.489   1.232
12440WAT      O37561   2.382   4.486   3.251
12440WAT     H137562   2.459   4.461   3.309
12440WAT     H237563   2.416   4.516   3.161
12441WAT      O37564   9.495   0.899   0.524
12441WAT     H137565   9.464   0.826   0.462
12441WAT     H237566   9.581   0.937   0.490
12442WAT      O37567   3.064   1.807   0.987
12442WAT     H137568   3.087   1.844   0.897
12442WAT     H237569   3.009   1.724   0.977
12443WAT      O37570   7.360   0.142   9.043
12443WAT     H137571   7.409   0.211   9.095
12443WAT     H237572   7.372   0.052   9.086
12444WAT      O37573   7.471   0.938   2.726
12444WAT     H137574   7.405   1.011   2.745
12444WAT     H237575   7.492   0.937   2.629
12445WAT      O37576   3.579   5.540   7.598
12445WAT     H137577   3.565   5.454   7.647
12445WAT     H237578   3.492   5.568   7.556
12446WAT      O37579   3.388   4.593   5.925
12446WAT     H137580   3.361   4.643   6.007
12446WAT     H237581   3.342   4.632   5.845
12447WAT      O37582   5.349   0.436   1.117
12447WAT     H137583   5.447   0.456   1.118
12447WAT     H237584   5.307   0.470   1.201
12448WAT      O37585   7.974   5.412   4.764
12448WAT     H137586   7.902   5.438   4.699
12448WAT     H237587   7.955   5.321   4.800
12449WAT      O37588   6.878   4.658   5.410
12449WAT     H137589   6.829   4.739   5.442
12449WAT     H237590   6.973   4.662   5.443
12450WAT      O37591   6.807   1.348   6.249
12450WAT     H137592   6.813   1.368   6.347
12450WAT     H237593   6.751   1.417   6.204
12451WAT      O37594   3.248   7.528   5.025
12451WAT     H137595   3.335   7.522   5.074
12451WAT     H237596   3.190   7.452   5.052
12452WAT      O37597   7.571   1.745   2.800
12452WAT     H137598   7.644   1.800   2.761
12452WAT     H237599   7.610   1.678   2.863
12453WAT      O37600   9.752   1.592   8.555
12453WAT     H137601   9.669   1.537   8.551
12453WAT     H237602   9.737   1.679   8.510
12454WAT      O37603   9.349   0.884   6.648
12454WAT     H137604   9.308   0.971   6.678
12454WAT     H237605   9.296   0.848   6.571
12455WAT      O37606   7.288   4.837   1.021
12455WAT     H137607   7.321   4.891   1.098
12455WAT     H237608   7.268   4.899   0.944
12456WAT      O37609   3.727   7.316   6.916
12456WAT     H137610   3.714   7.383   6.843
12456WAT     H237611   3.811   7.264   6.899
12457WAT      O37612   5.465   3.362   9.473
12457WAT     H137613   5.555   3.406   9.476
12457WAT     H237614   5.476   3.267   9.442
12458WAT      O37615   4.302   9.515   8.927
12458WAT     H137616   4.219   9.475   8.967
12458WAT     H237617   4.372   9.444   8.918
12459WAT      O37618   2.753   8.833   3.243
12459WAT     H137619   2.687   8.765   3.210
12459WAT     H237620   2.727   8.862   3.334
12460WAT      O37621   6.343   1.913   4.005
12460WAT     H137622   6.429   1.887   3.962
12460WAT     H237623   6.360   1.943   4.099
12461WAT      O37624   7.849   4.509   4.597
12461WAT     H137625   7.838   4.607   4.580
12461WAT     H237626   7.946   4.487   4.607
12462WAT      O37627   9.724   5.980   6.257
12462WAT     H137628   9.632   6.012   6.281
12462WAT     H237629   9.724   5.945   6.164
12463WAT      O37630   2.270   5.036   6.185
12463WAT     H137631   2.358   5.001   6.218
12463WAT     H237632   2.200   4.966   6.195
12464WAT      O37633   5.218   0.568   3.390
12464WAT     H137634   5.159   0.493   3.361
12464WAT     H237635   5.195   0.651   3.339
12465WAT      O37636   6.272   0.505   0.210
12465WAT     H137637   6.201   0.551   0.264
12465WAT     H237638   6.310   0.429   0.262
12466WAT      O37639   0.367   8.383   2.153
12466WAT     H137640   0.297   8.435   2.202
12466WAT     H237641   0.361   8.286   2.178
12467WAT      O37642   4.953   1.299   3.681
12467WAT     H137643   4.948   1.373   3.613
12467WAT     H237644   4.915   1.331   3.768
12468WAT      O37645   9.147   5.904   1.601
12468WAT     H137646   9.098   5.817   1.606
12468WAT     H237647   9.205   5.913   1.682
12469WAT      O37648   8.764   2.019   9.498
12469WAT     H137649   8.718   1.967   9.427
12469WAT     H237650   8.697   2.053   9.564
12470WAT      O37651   9.219   7.986   8.151
12470WAT     H137652   9.206   8.072   8.200
12470WAT     H237653   9.156   7.981   8.073
12471WAT      O37654   5.281   5.951   5.494
12471WAT     H137655   5.366   5.999   5.516
12471WAT     H237656   5.292   5.903   5.407
12472WAT      O37657   1.533   8.055   4.724
12472WAT     H137658   1.441   8.020   4.746
12472WAT     H237659   1.592   7.978   4.700
12473WAT      O37660   4.149   7.433   0.140
12473WAT     H137661   4.198   7.353   0.174
12473WAT     H237662   4.052   7.410   0.127
12474WAT      O37663   8.254   8.114   3.983
12474WAT     H137664   8.222   8.074   3.897
12474WAT     H237665   8.196   8.191   4.008
12475WAT      O37666   2.289   4.489   1.301
12475WAT     H137667   2.236   4.478   1.386
12475WAT     H237668   2.340   4.575   1.305
12476WAT      O37669   6.179   5.613   5.696
12476WAT     H137670   6.163   5.712   5.686
12476WAT     H237671   6.122   5.578   5.770
12477WAT      O37672   6.752   4.146   9.795
12477WAT     H137673   6.841   4.187   9.813
12477WAT     H237674   6.683   4.188   9.854
12478WAT      O37675   2.231   1.956   5.189
12478WAT     H137676   2.230   1.872   5.135
12478WAT     H237677   2.148   2.009   5.170
12479WAT      O37678   6.464   4.420   4.118
12479WAT     H137679   6.468   4.451   4.213
12479WAT     H237680   6.519   4.482   4.061
12480WAT      O37681   6.353   4.281   3.073
12480WAT     H137682   6.397   4.369   3.088
12480WAT     H237683   6.364   4.254   2.977
12481WAT      O37684   9.067   3.441   9.506
12481WAT     H137685   9.038   3.497   9.428
12481WAT     H237686   9.030   3.349   9.497
12482WAT      O37687   0.021   3.328   3.198
12482WAT     H137688  -0.056   3.284   3.153
12482WAT     H237689   0.106   3.288   3.166
12483WAT      O37690   0.024   0.804   9.390
12483WAT     H137691   0.003   0.716   9.349
12483WAT     H237692   0.095   0.850   9.337
12484WAT      O37693   6.682   0.349   5.913
12484WAT     H137694   6.695   0.250   5.915
12484WAT     H237695   6.739   0.391   5.983
12485WAT      O37696   6.468   5.046   5.184
12485WAT     H137697   6.517   5.068   5.100
12485WAT     H237698   6.462   5.127   5.242
12486WAT      O37699   6.640   1.755   4.241
12486WAT     H137700   6.559   1.702   4.216
12486WAT     H237701   6.687   1.710   4.316
12487WAT      O37702   5.918   8.817   5.252
12487WAT     H137703   6.009   8.811   5.211
12487WAT     H237704   5.922   8.785   5.347
12488WAT      O37705   0.500   2.983   3.099
12488WAT     H137706   0.503   3.031   3.186
12488WAT     H237707   0.593   2.957   3.072
12489WAT      O37708   1.071   7.520   1.695
12489WAT     H137709   1.089   7.617   1.711
12489WAT     H237710   1.061   7.504   1.597
12490WAT      O37711   6.898   7.103   9.171
12490WAT     H137712   6.824   7.057   9.122
12490WAT     H237713   6.905   7.066   9.264
12491WAT      O37714   6.535   9.562   6.110
12491WAT     H137715   6.615   9.584   6.166
12491WAT     H237716   6.552   9.591   6.015
12492WAT      O37717   3.319   3.531   2.558
12492WAT     H137718   3.282   3.609   2.507
12492WAT     H237719   3.280   3.531   2.651
12493WAT      O37720   4.149   6.224   1.920
12493WAT     H137721   4.150   6.272   2.008
12493WAT     H237722   4.087   6.270   1.857
12494WAT      O37723   6.602   2.323   7.728
12494WAT     H137724   6.571   2.406   7.680
12494WAT     H237725   6.690   2.294   7.690
12495WAT      O37726   2.248   4.335   7.975
12495WAT     H137727   2.342   4.355   8.000
12495WAT     H237728   2.238   4.237   7.957
12496WAT      O37729   4.683   6.487   7.660
12496WAT     H137730   4.742   6.546   7.606
12496WAT     H237731   4.589   6.521   7.657
12497WAT      O37732   4.182   4.243   1.506
12497WAT     H137733   4.176   4.198   1.417
12497WAT     H237734   4.277   4.247   1.535
12498WAT      O37735   0.417   6.723   6.460
12498WAT     H137736   0.390   6.815   6.486
12498WAT     H237737   0.494   6.693   6.517
12499WAT      O37738   5.971   2.355   0.020
12499WAT     H137739   5.921   2.342   0.106
12499WAT     H237740   5.985   2.453   0.005
12500WAT      O37741   6.222   2.552   3.476
12500WAT     H137742   6.234   2.483   3.547
12500WAT     H237743   6.260   2.639   3.506
12501WAT      O37744   0.079   5.356   0.064
12501WAT     H137745   0.018   5.421   0.018
12501WAT     H237746   0.106   5.284  -0.001
12502WAT      O37747   2.802   8.761   8.853
12502WAT     H137748   2.820   8.799   8.944
12502WAT     H237749   2.768   8.668   8.862
12503WAT      O37750   7.096   3.850   2.428
12503WAT     H137751   7.047   3.879   2.510
12503WAT     H237752   7.159   3.923   2.400
12504WAT      O37753   4.002   9.374   7.251
12504WAT     H137754   4.074   9.305   7.255
12504WAT     H237755   3.943   9.364   7.331
12505WAT      O37756   0.109   6.277   2.739
12505WAT     H137757   0.158   6.217   2.802
12505WAT     H237758   0.132   6.372   2.760
12506WAT      O37759   0.984   6.844   5.658
12506WAT     H137760   0.953   6.777   5.591
12506WAT     H237761   1.080   6.867   5.641
12507WAT      O37762   8.112   9.684   6.691
12507WAT     H137763   8.205   9.654   6.708
12507WAT     H237764   8.104   9.717   6.597
12508WAT      O37765   3.211   2.755   7.450
12508WAT     H137766   3.122   2.800   7.441
12508WAT     H237767   3.245   2.765   7.543
12509WAT      O37768   0.112   2.822   5.718
12509WAT     H137769   0.063   2.752   5.668
12509WAT     H237770   0.049   2.896   5.742
12510WAT      O37771   3.131   6.859   5.329
12510WAT     H137772   3.219   6.826   5.364
12510WAT     H237773   3.079   6.902   5.403
12511WAT      O37774   9.653   0.633   3.723
12511WAT     H137775   9.648   0.732   3.739
12511WAT     H237776   9.572   0.604   3.671
12512WAT      O37777   3.635   7.943   9.423
12512WAT     H137778   3.645   7.994   9.337
12512WAT     H237779   3.571   7.992   9.482
12513WAT      O37780   4.381   2.853   2.722
12513WAT     H137781   4.368   2.941   2.677
12513WAT     H237782   4.448   2.799   2.672
12514WAT      O37783   6.407   2.735   8.638
12514WAT     H137784   6.482   2.671   8.623
12514WAT     H237785   6.438   2.828   8.620
12515WAT      O37786   8.146   0.982   7.761
12515WAT     H137787   8.057   0.939   7.746
12515WAT     H237788   8.133   1.078   7.787
12516WAT      O37789   1.250   4.575   9.465
12516WAT     H137790   1.326   4.624   9.423
12516WAT     H237791   1.178   4.640   9.489
12517WAT      O37792   8.138   6.067   4.024
12517WAT     H137793   8.172   6.111   4.107
12517WAT     H237794   8.211   6.014   3.981
12518WAT      O37795   1.601   6.548   9.181
12518WAT     H137796   1.547   6.621   9.224
12518WAT     H237797   1.618   6.476   9.249
12519WAT      O37798   0.477   1.982   5.828
12519WAT     H137799   0.520   1.899   5.792
12519WAT     H237800   0.429   1.961   5.913
12520WAT      O37801   3.788   1.157   1.527
12520WAT     H137802   3.738   1.244   1.522
12520WAT     H237803   3.767   1.102   1.446
12521WAT      O37804   3.130   3.255   3.298
12521WAT     H137805   3.066   3.207   3.359
12521WAT     H237806   3.093   3.254   3.205
12522WAT      O37807   1.202   6.649   1.215
12522WAT     H137808   1.116   6.679   1.174
12522WAT     H237809   1.183   6.587   1.291
12523WAT      O37810   5.313   0.892   4.717
12523WAT     H137811   5.361   0.840   4.647
12523WAT     H237812   5.273   0.829   4.784
12524WAT      O37813   9.542   4.215   6.398
12524WAT     H137814   9.452   4.186   6.430
12524WAT     H237815   9.605   4.137   6.398
12525WAT      O37816   3.084   9.592   9.879
12525WAT     H137817   3.101   9.509   9.828
12525WAT     H237818   3.057   9.569   9.973
12526WAT      O37819   0.750   5.824   0.482
12526WAT     H137820   0.780   5.915   0.511
12526WAT     H237821   0.829   5.763   0.474
12527WAT      O37822   5.654   2.820   9.296
12527WAT     H137823   5.737   2.800   9.348
12527WAT     H237824   5.675   2.886   9.224
12528WAT      O37825   8.615   9.216   0.735
12528WAT     H137826   8.679   9.166   0.677
12528WAT     H237827   8.533   9.238   0.683
12529WAT      O37828   6.072   6.508   8.925
12529WAT     H137829   6.130   6.442   8.877
12529WAT     H237830   6.129   6.569   8.980
12530WAT      O37831   6.654   2.757   0.322
12530WAT     H137832   6.714   2.763   0.401
12530WAT     H237833   6.559   2.771   0.351
12531WAT      O37834   6.868   7.752   1.544
12531WAT     H137835   6.954   7.753   1.494
12531WAT     H237836   6.807   7.823   1.507
12532WAT      O37837   5.305   2.025   8.451
12532WAT     H137838   5.327   2.123   8.452
12532WAT     H237839   5.380   1.973   8.492
12533WAT      O37840   0.737   0.175   2.233
12533WAT     H137841   0.744   0.196   2.330
12533WAT     H237842   0.642   0.181   2.203
12534WAT      O37843   2.527   1.038   7.839
12534WAT     H137844   2.433   1.028   7.872
12534WAT     H237845   2.528   1.094   7.756
12535WAT      O37846   8.739   8.641   3.131
12535WAT     H137847   8.659   8.636   3.071
12535WAT     H237848   8.731   8.720   3.191
12536WAT      O37849   9.805   7.951   1.115
12536WAT     H137850   9.897   7.951   1.076
12536WAT     H237851   9.781   8.043   1.146
12537WAT      O37852   1.606   4.275   3.247
12537WAT     H137853   1.539   4.237   3.182
12537WAT     H237854   1.692   4.292   3.200
12538WAT      O37855   0.791   8.515   0.696
12538WAT     H137856   0.826   8.441   0.639
12538WAT     H237857   0.867   8.562   0.741
12539WAT      O37858   7.912   6.805   5.005
12539WAT     H137859   7.832   6.749   5.028
12539WAT     H237860   7.925   6.804   4.905
12540WAT      O37861   7.006   4.671   8.964
12540WAT     H137862   6.952   4.734   8.909
12540WAT     H237863   6.945   4.608   9.012
12541WAT      O37864   2.730   0.776   3.942
12541WAT     H137865   2.638   0.756   3.910
12541WAT     H237866   2.758   0.866   3.907
12542WAT      O37867   2.677   8.849   7.600
12542WAT     H137868   2.732   8.842   7.517
12542WAT     H237869   2.704   8.776   7.664
12543WAT      O37870   9.370   3.844   5.193
12543WAT     H137871   9.377   3.805   5.285
12543WAT     H237872   9.460   3.872   5.162
12544WAT      O37873   8.889   5.266   5.612
12544WAT     H137874   8.927   5.355   5.637
12544WAT     H237875   8.929   5.195   5.670
12545WAT      O37876   0.350   1.604   0.498
12545WAT     H137877   0.426   1.666   0.476
12545WAT     H237878   0.379   1.542   0.571
12546WAT      O37879   3.846   3.247   8.993
12546WAT     H137880   3.769   3.306   8.972
12546WAT     H237881   3.874   3.196   8.911
12547WAT      O37882   2.063   5.887   7.285
12547WAT     H137883   2.067   5.952   7.361
12547WAT     H237884   2.106   5.800   7.313
12548WAT      O37885   7.945   5.739   1.699
12548WAT     H137886   8.019   5.802   1.673
12548WAT     H237887   7.876   5.738   1.627
12549WAT      O37888   6.305   2.343   6.494
12549WAT     H137889   6.229   2.281   6.472
12549WAT     H237890   6.294   2.429   6.445
12550WAT      O37891   6.674   6.245   5.150
12550WAT     H137892   6.759   6.298   5.154
12550WAT     H237893   6.691   6.159   5.101
12551WAT      O37894   6.908   1.713   5.064
12551WAT     H137895   6.854   1.751   5.138
12551WAT     H237896   6.877   1.751   4.977
12552WAT      O37897   8.977   9.176   6.320
12552WAT     H137898   9.075   9.194   6.323
12552WAT     H237899   8.953   9.136   6.232
12553WAT      O37900   2.447   3.229   6.135
12553WAT     H137901   2.389   3.298   6.178
12553WAT     H237902   2.391   3.169   6.078
12554WAT      O37903   8.348   3.334   1.218
12554WAT     H137904   8.325   3.428   1.193
12554WAT     H237905   8.447   3.323   1.219
12555WAT      O37906   8.464   5.141   2.670
12555WAT     H137907   8.564   5.141   2.681
12555WAT     H237908   8.420   5.136   2.759
12556WAT      O37909   7.823   2.504   8.607
12556WAT     H137910   7.918   2.475   8.603
12556WAT     H237911   7.809   2.563   8.687
12557WAT      O37912   6.448   6.513   6.826
12557WAT     H137913   6.396   6.515   6.741
12557WAT     H237914   6.464   6.607   6.858
12558WAT      O37915   3.839   1.324   1.089
12558WAT     H137916   3.892   1.260   1.145
12558WAT     H237917   3.742   1.304   1.098
12559WAT      O37918   9.593   7.025   1.974
12559WAT     H137919   9.615   7.007   2.070
12559WAT     H237920   9.494   7.024   1.962
12560WAT      O37921   3.605   4.876   3.041
12560WAT     H137922   3.680   4.939   3.021
12560WAT     H237923   3.643   4.789   3.072
12561WAT      O37924   6.033   0.016   8.144
12561WAT     H137925   6.051   0.077   8.067
12561WAT     H237926   6.045  -0.079   8.115
12562WAT      O37927   5.338   3.055   4.409
12562WAT     H137928   5.409   3.067   4.339
12562WAT     H237929   5.319   2.958   4.420
12563WAT      O37930   3.415   3.595   5.083
12563WAT     H137931   3.385   3.573   5.176
12563WAT     H237932   3.515   3.592   5.078
12564WAT      O37933   3.434   7.988   6.408
12564WAT     H137934   3.443   7.913   6.474
12564WAT     H237935   3.470   8.072   6.448
12565WAT      O37936   6.876   1.786   6.191
12565WAT     H137937   6.832   1.699   6.167
12565WAT     H237938   6.975   1.772   6.198
12566WAT      O37939   1.467   0.325   2.004
12566WAT     H137940   1.471   0.361   1.911
12566WAT     H237941   1.422   0.393   2.063
12567WAT      O37942   0.809   0.668   3.929
12567WAT     H137943   0.769   0.731   3.996
12567WAT     H237944   0.808   0.710   3.839
12568WAT      O37945   1.019   0.928   7.291
12568WAT     H137946   0.932   0.930   7.340
12568WAT     H237947   1.014   0.860   7.218
12569WAT      O37948   4.602   1.224   3.916
12569WAT     H137949   4.619   1.203   4.012
12569WAT     H237950   4.505   1.244   3.902
12570WAT      O37951   1.072   1.907   7.447
12570WAT     H137952   1.121   1.863   7.522
12570WAT     H237953   1.111   1.876   7.360
12571WAT      O37954   2.402   7.796   0.767
12571WAT     H137955   2.451   7.742   0.699
12571WAT     H237956   2.460   7.870   0.800
12572WAT      O37957   4.786   7.895   3.360
12572WAT     H137958   4.774   7.928   3.267
12572WAT     H237959   4.883   7.881   3.379
12573WAT      O37960   6.099   2.078   7.586
12573WAT     H137961   6.134   2.165   7.552
12573WAT     H237962   6.005   2.090   7.618
12574WAT      O37963   0.254   8.116   6.511
12574WAT     H137964   0.205   8.059   6.446
12574WAT     H237965   0.318   8.176   6.463
12575WAT      O37966   8.025   4.568   5.656
12575WAT     H137967   8.023   4.469   5.670
12575WAT     H237968   8.045   4.613   5.743
12576WAT      O37969   8.762   5.778   5.737
12576WAT     H137970   8.793   5.840   5.664
12576WAT     H237971   8.714   5.701   5.696
12577WAT      O37972   8.572   6.260   8.243
12577WAT     H137973   8.514   6.264   8.161
12577WAT     H237974   8.525   6.209   8.315
12578WAT      O37975   3.076   7.913   4.298
12578WAT     H137976   3.005   7.979   4.272
12578WAT     H237977   3.108   7.933   4.390
12579WAT      O37978   0.010   3.070   9.037
12579WAT     H137979  -0.041   3.139   8.986
12579WAT     H237980   0.084   3.113   9.089
12580WAT      O37981   4.890   9.606   5.506
12580WAT     H137982   4.847   9.562   5.585
12580WAT     H237983   4.988   9.587   5.507
12581WAT      O37984   5.220   3.095   6.522
12581WAT     H137985   5.163   3.064   6.446
12581WAT     H237986   5.299   3.034   6.530
12582WAT      O37987   8.449   8.559   0.479
12582WAT     H137988   8.490   8.591   0.394
12582WAT     H237989   8.516   8.504   0.529
12583WAT      O37990   0.226   4.408   6.954
12583WAT     H137991   0.324   4.410   6.972
12583WAT     H237992   0.185   4.495   6.981
12584WAT      O37993   1.009   4.134   7.532
12584WAT     H137994   0.943   4.076   7.578
12584WAT     H237995   0.973   4.227   7.524
12585WAT      O37996   2.754   6.379   4.787
12585WAT     H137997   2.710   6.460   4.826
12585WAT     H237998   2.844   6.404   4.752
12586WAT      O37999   3.845   8.104   0.940
12586WAT     H138000   3.757   8.144   0.964
12586WAT     H238001   3.905   8.174   0.903
12587WAT      O38002   9.544   1.937   4.461
12587WAT     H138003   9.481   2.015   4.460
12587WAT     H238004   9.502   1.861   4.510
12588WAT      O38005   0.229   1.859   5.033
12588WAT     H138006   0.190   1.795   5.099
12588WAT     H238007   0.158   1.919   4.998
12589WAT      O38008   7.617   1.306   2.502
12589WAT     H138009   7.549   1.293   2.575
12589WAT     H238010   7.587   1.381   2.442
12590WAT      O38011   4.404   8.714   8.263
12590WAT     H138012   4.304   8.707   8.254
12590WAT     H238013   4.446   8.711   8.172
12591WAT      O38014   6.576   4.514   1.803
12591WAT     H138015   6.561   4.468   1.716
12591WAT     H238016   6.656   4.475   1.848
12592WAT      O38017   7.173   5.826   2.296
12592WAT     H138018   7.176   5.727   2.308
12592WAT     H238019   7.143   5.847   2.203
12593WAT      O38020   3.271   8.253   1.618
12593WAT     H138021   3.357   8.212   1.586
12593WAT     H238022   3.266   8.246   1.717
12594WAT      O38023   8.350   2.863   7.982
12594WAT     H138024   8.418   2.859   7.909
12594WAT     H238025   8.396   2.865   8.070
12595WAT      O38026   2.348   9.303   6.195
12595WAT     H138027   2.365   9.366   6.270
12595WAT     H238028   2.343   9.209   6.230
12596WAT      O38029   8.616   0.142   0.441
12596WAT     H138030   8.646   0.058   0.396
12596WAT     H238031   8.688   0.211   0.435
12597WAT      O38032   1.398   2.155   4.439
12597WAT     H138033   1.378   2.117   4.529
12597WAT     H238034   1.312   2.174   4.391
12598WAT      O38035   9.642   5.371   2.249
12598WAT     H138036   9.655   5.273   2.233
12598WAT     H238037   9.582   5.408   2.178
12599WAT      O38038   6.608   3.482   9.688
12599WAT     H138039   6.540   3.542   9.647
12599WAT     H238040   6.575   3.450   9.777
12600WAT      O38041   0.764   8.075   6.284
12600WAT     H138042   0.826   8.010   6.327
12600WAT     H238043   0.795   8.094   6.190
12601WAT      O38044   2.914   7.904   2.676
12601WAT     H138045   2.833   7.875   2.624
12601WAT     H238046   2.948   7.827   2.730
12602WAT      O38047   7.177   6.116   8.327
12602WAT     H138048   7.256   6.094   8.385
12602WAT     H238049   7.095   6.076   8.368
12603WAT      O38050   7.553   2.469   0.793
12603WAT     H138051   7.471   2.478   0.850
12603WAT     H238052   7.633   2.459   0.851
12604WAT      O38053   5.179   9.301   9.133
12604WAT     H138054   5.154   9.301   9.229
12604WAT     H238055   5.270   9.342   9.122
12605WAT      O38056   0.910   9.652   8.368
12605WAT     H138057   0.826   9.694   8.334
12605WAT     H238058   0.889   9.589   8.443
12606WAT      O38059   2.274   1.128   2.259
12606WAT     H138060   2.249   1.063   2.330
12606WAT     H238061   2.348   1.187   2.292
12607WAT      O38062   4.726   6.642   7.398
12607WAT     H138063   4.764   6.598   7.316
12607WAT     H238064   4.714   6.739   7.381
12608WAT      O38065   8.534   2.671   8.827
12608WAT     H138066   8.508   2.767   8.820
12608WAT     H238067   8.494   2.619   8.752
12609WAT      O38068   6.865   9.192   1.707
12609WAT     H138069   6.947   9.183   1.650
12609WAT     H238070   6.824   9.282   1.691
12610WAT      O38071   0.940   6.457   5.115
12610WAT     H138072   0.952   6.531   5.182
12610WAT     H238073   1.027   6.410   5.102
12611WAT      O38074   2.019   2.249   8.183
12611WAT     H138075   1.997   2.195   8.264
12611WAT     H238076   1.941   2.249   8.121
12612WAT      O38077   8.321   0.223   8.526
12612WAT     H138078   8.382   0.248   8.601
12612WAT     H238079   8.258   0.298   8.508
12613WAT      O38080   2.143   3.810   6.737
12613WAT     H138081   2.083   3.747   6.688
12613WAT     H238082   2.088   3.875   6.789
12614WAT      O38083   5.715   8.482   0.447
12614WAT     H138084   5.767   8.429   0.380
12614WAT     H238085   5.670   8.559   0.401
12615WAT      O38086   8.880   0.653   1.192
12615WAT     H138087   8.837   0.659   1.282
12615WAT     H238088   8.831   0.586   1.136
12616WAT      O38089   2.943   9.658   7.358
12616WAT     H138090   3.035   9.636   7.325
12616WAT     H238091   2.912   9.742   7.314
12617WAT      O38092   1.055   2.785   3.582
12617WAT     H138093   1.126   2.729   3.541
12617WAT     H238094   0.966   2.744   3.563
12618WAT      O38095   7.100   3.938   8.120
12618WAT     H138096   7.181   3.952   8.063
12618WAT     H238097   7.035   4.013   8.107
12619WAT      O38098   7.900   0.240   7.896
12619WAT     H138099   7.917   0.162   7.956
12619WAT     H238100   7.950   0.228   7.811
12620WAT      O38101   0.892   2.053   0.117
12620WAT     H138102   0.808   1.999   0.123
12620WAT     H238103   0.902   2.088   0.024
12621WAT      O38104   9.511   6.449   4.388
12621WAT     H138105   9.420   6.428   4.422
12621WAT     H238106   9.547   6.371   4.338
12622WAT      O38107   1.082   2.504   6.358
12622WAT     H138108   1.077   2.499   6.259
12622WAT     H238109   1.177   2.489   6.387
12623WAT      O38110   1.643   3.899   9.250
12623WAT     H138111   1.558   3.945   9.225
12623WAT     H238112   1.656   3.819   9.191
12624WAT      O38113   5.878   8.025   8.087
12624WAT     H138114   5.820   8.079   8.027
12624WAT     H238115   5.823   7.958   8.137
12625WAT      O38116   8.897   2.312   1.398
12625WAT     H138117   8.926   2.216   1.405
12625WAT     H238118   8.802   2.315   1.365
12626WAT      O38119   4.803   0.492   3.846
12626WAT     H138120   4.764   0.580   3.872
12626WAT     H238121   4.816   0.435   3.927
12627WAT      O38122   1.969   8.621   4.811
12627WAT     H138123   2.045   8.684   4.794
12627WAT     H238124   1.902   8.630   4.738
12628WAT      O38125   0.288   2.447   1.023
12628WAT     H138126   0.234   2.499   1.089
12628WAT     H238127   0.296   2.501   0.939
12629WAT      O38128   0.126   6.397   4.561
12629WAT     H138129   0.115   6.299   4.545
12629WAT     H238130   0.221   6.422   4.544
12630WAT      O38131   3.036   3.683   0.054
12630WAT     H138132   3.130   3.665   0.081
12630WAT     H238133   3.030   3.772   0.008
12631WAT      O38134   7.757   5.728   5.717
12631WAT     H138135   7.694   5.799   5.750
12631WAT     H238136   7.851   5.756   5.735
12632WAT      O38137   8.223   4.214   8.226
12632WAT     H138138   8.130   4.227   8.262
12632WAT     H238139   8.274   4.153   8.285
12633WAT      O38140   0.982   4.822   0.415
12633WAT     H138141   0.978   4.915   0.453
12633WAT     H238142   0.895   4.776   0.431
12634WAT      O38143   8.951   4.027   0.356
12634WAT     H138144   9.014   4.052   0.430
12634WAT     H238145   8.942   3.927   0.353
12635WAT      O38146   3.451   2.453   1.294
12635WAT     H138147   3.444   2.384   1.366
12635WAT     H238148   3.481   2.539   1.333
12636WAT      O38149   2.539   2.972   4.242
12636WAT     H138150   2.452   2.933   4.212
12636WAT     H238151   2.548   2.961   4.341
12637WAT      O38152   5.833   2.654   2.044
12637WAT     H138153   5.800   2.728   2.102
12637WAT     H238154   5.764   2.632   1.975
12638WAT      O38155   9.780   0.475   8.040
12638WAT     H138156   9.855   0.492   7.977
12638WAT     H238157   9.810   0.492   8.134
12639WAT      O38158   2.586   8.922   9.005
12639WAT     H138159   2.539   8.887   8.924
12639WAT     H238160   2.612   9.017   8.990
12640WAT      O38161   2.438   1.897   2.994
12640WAT     H138162   2.487   1.983   3.010
12640WAT     H238163   2.358   1.893   3.054
12641WAT      O38164   5.647   9.792   3.597
12641WAT     H138165   5.687   9.844   3.673
12641WAT     H238166   5.672   9.695   3.607
12642WAT      O38167   7.936   5.073   6.478
12642WAT     H138168   8.032   5.063   6.451
12642WAT     H238169   7.906   5.166   6.457
12643WAT      O38170   9.473   7.128   4.383
12643WAT     H138171   9.480   7.180   4.468
12643WAT     H238172   9.410   7.051   4.395
12644WAT      O38173   5.418   1.179   7.526
12644WAT     H138174   5.339   1.220   7.572
12644WAT     H238175   5.399   1.082   7.507
12645WAT      O38176   2.174   4.777   8.461
12645WAT     H138177   2.076   4.772   8.480
12645WAT     H238178   2.222   4.809   8.542
12646WAT      O38179   7.974   6.655   5.428
12646WAT     H138180   8.024   6.584   5.379
12646WAT     H238181   7.884   6.621   5.455
12647WAT      O38182   8.844   2.953   5.470
12647WAT     H138183   8.902   2.872   5.463
12647WAT     H238184   8.787   2.959   5.388
12648WAT      O38185   4.885   5.388   8.194
12648WAT     H138186   4.811   5.373   8.260
12648WAT     H238187   4.950   5.313   8.200
12649WAT      O38188   1.329   0.744   6.495
12649WAT     H138189   1.352   0.713   6.403
12649WAT     H238190   1.283   0.670   6.545
12650WAT      O38191   8.189   8.960   8.605
12650WAT     H138192   8.107   8.905   8.622
12650WAT     H238193   8.246   8.960   8.687
12651WAT      O38194   2.566   5.547   4.172
12651WAT     H138195   2.631   5.500   4.231
12651WAT     H238196   2.476   5.505   4.180
12652WAT      O38197   9.365   5.083   6.583
12652WAT     H138198   9.453   5.099   6.626
12652WAT     H238199   9.301   5.046   6.650
12653WAT      O38200   5.491   3.187   2.230
12653WAT     H138201   5.505   3.147   2.321
12653WAT     H238202   5.555   3.263   2.217
12654WAT      O38203   9.603   2.796   3.346
12654WAT     H138204   9.683   2.762   3.395
12654WAT     H238205   9.532   2.726   3.345
12655WAT      O38206   7.086   2.168   5.223
12655WAT     H138207   7.116   2.216   5.141
12655WAT     H238208   7.144   2.088   5.238
12656WAT      O38209   8.505   1.238   3.308
12656WAT     H138210   8.534   1.325   3.346
12656WAT     H238211   8.585   1.179   3.292
12657WAT      O38212   5.172   5.788   9.473
12657WAT     H138213   5.223   5.873   9.487
12657WAT     H238214   5.200   5.721   9.542
12658WAT      O38215   5.010   6.719   2.657
12658WAT     H138216   5.040   6.639   2.605
12658WAT     H238217   5.059   6.724   2.743
12659WAT      O38218   4.835   4.089   1.491
12659WAT     H138219   4.892   4.062   1.568
12659WAT     H238220   4.839   4.189   1.480
12660WAT      O38221   1.930   8.400   2.636
12660WAT     H138222   2.017   8.443   2.656
12660WAT     H238223   1.864   8.468   2.605
12661WAT      O38224   1.712   0.583   4.881
12661WAT     H138225   1.808   0.593   4.906
12661WAT     H238226   1.702   0.593   4.782
12662WAT      O38227   4.344   4.687   8.376
12662WAT     H138228   4.356   4.663   8.472
12662WAT     H238229   4.252   4.720   8.360
12663WAT      O38230   1.235   1.753   7.604
12663WAT     H138231   1.316   1.719   7.556
12663WAT     H238232   1.210   1.690   7.678
12664WAT      O38233   5.176   6.325   6.104
12664WAT     H138234   5.107   6.289   6.168
12664WAT     H238235   5.174   6.425   6.106
12665WAT      O38236   3.920   1.948   7.390
12665WAT     H138237   4.009   1.993   7.383
12665WAT     H238238   3.870   1.985   7.468
12666WAT      O38239   7.784   3.787   9.004
12666WAT     H138240   7.868   3.816   8.959
12666WAT     H238241   7.755   3.699   8.966
12667WAT      O38242   2.232   0.831   1.800
12667WAT     H138243   2.146   0.847   1.849
12667WAT     H238244   2.221   0.752   1.739
12668WAT      O38245   8.377   7.743   2.050
12668WAT     H138246   8.313   7.816   2.026
12668WAT     H238247   8.326   7.660   2.071
12669WAT      O38248   4.492   9.237   6.370
12669WAT     H138249   4.448   9.238   6.460
12669WAT     H238250   4.426   9.266   6.300
12670WAT      O38251   3.971   6.120   4.937
12670WAT     H138252   3.949   6.199   4.995
12670WAT     H238253   4.070   6.116   4.922
12671WAT      O38254   5.634   5.150   2.118
12671WAT     H138255   5.677   5.075   2.068
12671WAT     H238256   5.611   5.224   2.055
12672WAT      O38257   6.874   5.153   4.051
12672WAT     H138258   6.791   5.172   3.998
12672WAT     H238259   6.947   5.214   4.022
12673WAT      O38260   8.397   3.079   6.926
12673WAT     H138261   8.344   3.144   6.871
12673WAT     H238262   8.343   2.996   6.942
12674WAT      O38263   7.311   1.128   7.184
12674WAT     H138264   7.382   1.060   7.169
12674WAT     H238265   7.233   1.109   7.123
12675WAT      O38266   9.210   2.089   8.710
12675WAT     H138267   9.168   2.020   8.650
12675WAT     H238268   9.169   2.178   8.692
12676WAT      O38269   3.349   3.188   6.189
12676WAT     H138270   3.364   3.150   6.280
12676WAT     H238271   3.314   3.117   6.128
12677WAT      O38272   7.051   2.248   4.106
12677WAT     H138273   7.061   2.263   4.008
12677WAT     H238274   6.965   2.288   4.137
12678WAT      O38275   7.663   9.605   4.086
12678WAT     H138276   7.718   9.663   4.147
12678WAT     H238277   7.569   9.638   4.084
12679WAT      O38278   7.821   0.555   9.762
12679WAT     H138279   7.799   0.499   9.841
12679WAT     H238280   7.920   0.565   9.754
12680WAT      O38281   8.075   2.244   6.218
12680WAT     H138282   8.046   2.204   6.131
12680WAT     H238283   8.094   2.341   6.205
12681WAT      O38284   1.677   4.608   0.107
12681WAT     H138285   1.650   4.665   0.029
12681WAT     H238286   1.760   4.557   0.083
12682WAT      O38287   3.666   8.197   7.430
12682WAT     H138288   3.618   8.151   7.504
12682WAT     H238289   3.730   8.133   7.387
12683WAT      O38290   9.716   4.992   5.275
12683WAT     H138291   9.686   5.031   5.188
12683WAT     H238292   9.643   5.002   5.343
12684WAT      O38293   7.651   5.704   4.412
12684WAT     H138294   7.673   5.720   4.316
12684WAT     H238295   7.556   5.729   4.429
12685WAT      O38296   9.196   3.158   1.737
12685WAT     H138297   9.204   3.058   1.729
12685WAT     H238298   9.276   3.194   1.784
12686WAT      O38299   1.770   9.213   2.539
12686WAT     H138300   1.770   9.118   2.508
12686WAT     H238301   1.725   9.220   2.628
12687WAT      O38302   5.062   3.356   8.610
12687WAT     H138303   4.996   3.286   8.637
12687WAT     H238304   5.015   3.445   8.603
12688WAT      O38305   6.224   6.508   9.216
12688WAT     H138306   6.136   6.495   9.262
12688WAT     H238307   6.227   6.599   9.174
12689WAT      O38308   2.928   3.625   3.233
12689WAT     H138309   2.982   3.701   3.195
12689WAT     H238310   2.842   3.660   3.269
12690WAT      O38311   5.342   2.058   8.840
12690WAT     H138312   5.265   2.002   8.809
12690WAT     H238313   5.315   2.154   8.841
12691WAT      O38314   1.471   0.491   8.156
12691WAT     H138315   1.550   0.509   8.214
12691WAT     H238316   1.388   0.521   8.202
12692WAT      O38317   6.499   0.088   9.110
12692WAT     H138318   6.451   0.080   9.197
12692WAT     H238319   6.435   0.118   9.039
12693WAT      O38320   9.529   5.411   4.091
12693WAT     H138321   9.590   5.387   4.167
12693WAT     H238322   9.556   5.360   4.010
12694WAT      O38323   6.557   0.367   3.366
12694WAT     H138324   6.548   0.449   3.423
12694WAT     H238325   6.493   0.297   3.397
12695WAT      O38326   0.917   9.433   5.345
12695WAT     H138327   0.833   9.479   5.315
12695WAT     H238328   0.994   9.496   5.338
12696WAT      O38329   4.611   6.434   7.212
12696WAT     H138330   4.531   6.488   7.184
12696WAT     H238331   4.680   6.438   7.140
12697WAT      O38332   3.458   9.025   8.700
12697WAT     H138333   3.474   9.014   8.602
12697WAT     H238334   3.370   9.072   8.715
12698WAT      O38335   6.711   4.407   7.380
12698WAT     H138336   6.718   4.341   7.306
12698WAT     H238337   6.777   4.385   7.451
12699WAT      O38338   9.553   2.359   3.937
12699WAT     H138339   9.575   2.454   3.914
12699WAT     H238340   9.459   2.354   3.971
12700WAT      O38341   1.636   1.915   8.359
12700WAT     H138342   1.720   1.863   8.377
12700WAT     H238343   1.653   1.985   8.291
12701WAT      O38344   9.753   4.347   5.972
12701WAT     H138345   9.831   4.390   5.926
12701WAT     H238346   9.730   4.262   5.925
12702WAT      O38347   7.440   5.464   8.638
12702WAT     H138348   7.355   5.468   8.691
12702WAT     H238349   7.481   5.554   8.633
12703WAT      O38350   0.031   0.052   5.256
12703WAT     H138351   0.027   0.150   5.236
12703WAT     H238352  -0.022   0.033   5.339
12704WAT      O38353   0.922   3.835   5.591
12704WAT     H138354   0.994   3.785   5.640
12704WAT     H238355   0.932   3.820   5.493
12705WAT      O38356   9.297   0.024   4.977
12705WAT     H138357   9.322  -0.072   4.963
12705WAT     H238358   9.257   0.035   5.068
12706WAT      O38359   0.466   1.370   3.099
12706WAT     H138360   0.564   1.367   3.122
12706WAT     H238361   0.431   1.276   3.090
12707WAT      O38362   9.185   7.237   8.653
12707WAT     H138363   9.189   7.188   8.740
12707WAT     H238364   9.137   7.324   8.666
12708WAT      O38365   6.585   9.293   1.364
12708WAT     H138366   6.610   9.260   1.273
12708WAT     H238367   6.486   9.295   1.373
12709WAT      O38368   7.912   5.589   7.279
12709WAT     H138369   7.890   5.524   7.206
12709WAT     H238370   7.866   5.561   7.363
12710WAT      O38371   1.566   7.699   8.769
12710WAT     H138372   1.531   7.613   8.732
12710WAT     H238373   1.614   7.682   8.855
12711WAT      O38374   1.699   5.730   0.351
12711WAT     H138375   1.650   5.781   0.422
12711WAT     H238376   1.763   5.791   0.304
12712WAT      O38377   6.143   6.399   0.772
12712WAT     H138378   6.076   6.349   0.717
12712WAT     H238379   6.159   6.489   0.732
12713WAT      O38380   2.706   4.732   3.189
12713WAT     H138381   2.650   4.710   3.268
12713WAT     H238382   2.801   4.709   3.208
12714WAT      O38383   0.964   5.349   0.363
12714WAT     H138384   0.996   5.420   0.300
12714WAT     H238385   0.913   5.391   0.438
12715WAT      O38386   3.785   2.063   6.820
12715WAT     H138387   3.797   2.163   6.819
12715WAT     H238388   3.688   2.041   6.805
12716WAT      O38389   1.872   8.691   2.918
12716WAT     H138390   1.907   8.772   2.964
12716WAT     H238391   1.934   8.614   2.934
12717WAT      O38392   0.233   9.161   0.464
12717WAT     H138393   0.276   9.230   0.523
12717WAT     H238394   0.273   9.071   0.483
12718WAT      O38395   4.808   6.314   7.862
12718WAT     H138396   4.784   6.383   7.793
12718WAT     H238397   4.759   6.334   7.947
12719WAT      O38398   4.495   8.154   8.663
12719WAT     H138399   4.508   8.155   8.564
12719WAT     H238400   4.441   8.233   8.691
12720WAT      O38401   9.723   1.716   5.797
12720WAT     H138402   9.735   1.737   5.700
12720WAT     H238403   9.812   1.692   5.837
12721WAT      O38404   2.389   7.683   6.257
12721WAT     H138405   2.419   7.705   6.350
12721WAT     H238406   2.300   7.639   6.260
12722WAT      O38407   2.131   1.165   4.531
12722WAT     H138408   2.135   1.258   4.494
12722WAT     H238409   2.091   1.103   4.463
12723WAT      O38410   0.136   1.521   2.214
12723WAT     H138411   0.190   1.532   2.131
12723WAT     H238412   0.052   1.472   2.194
12724WAT      O38413   8.133   9.752   7.852
12724WAT     H138414   8.207   9.686   7.864
12724WAT     H238415   8.081   9.728   7.769
12725WAT      O38416   8.156   5.854   0.463
12725WAT     H138417   8.189   5.878   0.554
12725WAT     H238418   8.235   5.839   0.402
12726WAT      O38419   7.663   4.654   5.376
12726WAT     H138420   7.565   4.675   5.383
12726WAT     H238421   7.697   4.686   5.288
12727WAT      O38422   8.246   8.827   0.775
12727WAT     H138423   8.180   8.758   0.806
12727WAT     H238424   8.198   8.912   0.754
12728WAT      O38425   9.766   2.304   8.987
12728WAT     H138426   9.733   2.358   9.064
12728WAT     H238427   9.694   2.294   8.919
12729WAT      O38428   0.609   6.886   8.193
12729WAT     H138429   0.561   6.892   8.281
12729WAT     H238430   0.594   6.796   8.153
12730WAT      O38431   9.810   9.782   1.353
12730WAT     H138432   9.787   9.689   1.326
12730WAT     H238433   9.824   9.838   1.271
12731WAT      O38434   8.388   6.185   1.224
12731WAT     H138435   8.311   6.145   1.175
12731WAT     H238436   8.460   6.211   1.159
12732WAT      O38437   3.842   0.495   5.284
12732WAT     H138438   3.895   0.427   5.233
12732WAT     H238439   3.780   0.543   5.222
12733WAT      O38440   8.516   7.099   4.539
12733WAT     H138441   8.468   7.182   4.566
12733WAT     H238442   8.561   7.112   4.451
12734WAT      O38443   4.150   9.542   8.719
12734WAT     H138444   4.178   9.528   8.624
12734WAT     H238445   4.227   9.521   8.779
12735WAT      O38446   7.746   8.367   7.659
12735WAT     H138447   7.661   8.315   7.667
12735WAT     H238448   7.730   8.461   7.690
12736WAT      O38449   1.557   7.371   0.916
12736WAT     H138450   1.520   7.350   0.825
12736WAT     H238451   1.485   7.359   0.984
12737WAT      O38452   4.833   0.999   7.235
12737WAT     H138453   4.870   1.019   7.326
12737WAT     H238454   4.827   0.900   7.222
12738WAT      O38455   6.623   4.044   2.335
12738WAT     H138456   6.722   4.049   2.323
12738WAT     H238457   6.597   3.949   2.355
12739WAT      O38458   2.820   5.428   4.284
12739WAT     H138459   2.874   5.435   4.200
12739WAT     H238460   2.855   5.353   4.340
12740WAT      O38461   8.403   7.482   1.175
12740WAT     H138462   8.360   7.557   1.124
12740WAT     H238463   8.375   7.395   1.135
12741WAT      O38464   3.004   2.061   1.110
12741WAT     H138465   2.968   2.016   1.028
12741WAT     H238466   3.074   2.126   1.084
12742WAT      O38467   0.189   9.610   3.330
12742WAT     H138468   0.198   9.516   3.297
12742WAT     H238469   0.095   9.642   3.317
12743WAT      O38470   7.000   3.142   9.743
12743WAT     H138471   6.905   3.152   9.773
12743WAT     H238472   7.001   3.113   9.647
12744WAT      O38473   7.012   5.852   3.914
12744WAT     H138474   7.110   5.866   3.926
12744WAT     H238475   6.963   5.883   3.996
12745WAT      O38476   3.102   7.773   1.143
12745WAT     H138477   3.142   7.739   1.057
12745WAT     H238478   3.129   7.868   1.158
12746WAT      O38479   5.102   0.197   3.555
12746WAT     H138480   5.060   0.271   3.607
12746WAT     H238481   5.157   0.140   3.616
12747WAT      O38482   6.347   4.299   9.562
12747WAT     H138483   6.441   4.276   9.540
12747WAT     H238484   6.314   4.370   9.500
12748WAT      O38485   2.061   5.487   4.930
12748WAT     H138486   2.011   5.558   4.880
12748WAT     H238487   1.999   5.412   4.952
12749WAT      O38488   6.382   8.811   3.601
12749WAT     H138489   6.337   8.797   3.689
12749WAT     H238490   6.313   8.812   3.528
12750WAT      O38491   4.694   2.405   9.787
12750WAT     H138492   4.727   2.498   9.802
12750WAT     H238493   4.599   2.398   9.815
12751WAT      O38494   4.738   0.398   0.717
12751WAT     H138495   4.753   0.300   0.708
12751WAT     H238496   4.648   0.422   0.681
12752WAT      O38497   2.578   3.385   2.542
12752WAT     H138498   2.636   3.304   2.550
12752WAT     H238499   2.482   3.358   2.553
12753WAT      O38500   7.966   3.108   8.658
12753WAT     H138501   7.997   3.064   8.574
12753WAT     H238502   8.011   3.197   8.668
12754WAT      O38503   9.767   8.422   7.670
12754WAT     H138504   9.863   8.418   7.695
12754WAT     H238505   9.758   8.445   7.573
12755WAT      O38506   2.017   3.146   5.157
12755WAT     H138507   2.030   3.047   5.150
12755WAT     H238508   2.082   3.184   5.223
12756WAT      O38509   6.486   3.445   0.984
12756WAT     H138510   6.413   3.498   0.941
12756WAT     H238511   6.472   3.445   1.084
12757WAT      O38512   7.725   8.040   4.168
12757WAT     H138513   7.717   7.951   4.213
12757WAT     H238514   7.635   8.071   4.138
12758WAT      O38515   4.856   1.307   7.516
12758WAT     H138516   4.799   1.291   7.596
12758WAT     H238517   4.836   1.397   7.477
12759WAT      O38518   6.077   9.410   5.744
12759WAT     H138519   5.997   9.358   5.774
12759WAT     H238520   6.048   9.499   5.710
12760WAT      O38521   3.237   7.063   5.183
12760WAT     H138522   3.293   7.016   5.115
12760WAT     H238523   3.189   6.995   5.239
12761WAT      O38524   6.758   8.884   3.944
12761WAT     H138525   6.758   8.789   3.975
12761WAT     H238526   6.818   8.894   3.865
12762WAT      O38527   4.278   2.192   5.208
12762WAT     H138528   4.301   2.108   5.159
12762WAT     H238529   4.268   2.267   5.142
12763WAT      O38530   9.842   0.068   8.354
12763WAT     H138531   9.888   0.147   8.315
12763WAT     H238532   9.746   0.068   8.328
12764WAT      O38533   5.211   7.166   2.184
12764WAT     H138534   5.148   7.244   2.182
12764WAT     H238535   5.304   7.199   2.200
12765WAT      O38536   1.380   4.884   8.040
12765WAT     H138537   1.403   4.940   8.120
12765WAT     H238538   1.289   4.845   8.051
12766WAT      O38539   0.633   7.169   8.984
12766WAT     H138540   0.539   7.166   9.017
12766WAT     H238541   0.669   7.076   8.977
12767WAT      O38542   2.359   9.817   5.418
12767WAT     H138543   2.399   9.895   5.369
12767WAT     H238544   2.272   9.845   5.459
12768WAT      O38545   1.003   3.993   4.778
12768WAT     H138546   1.045   4.083   4.792
12768WAT     H238547   0.904   4.004   4.769
12769WAT      O38548   5.587   7.937   8.686
12769WAT     H138549   5.572   7.838   8.686
12769WAT     H238550   5.516   7.981   8.741
12770WAT      O38551   2.293   7.605   2.068
12770WAT     H138552   2.194   7.592   2.076
12770WAT     H238553   2.340   7.541   2.128
12771WAT      O38554   2.502   5.881   1.900
12771WAT     H138555   2.540   5.864   1.991
12771WAT     H238556   2.457   5.798   1.867
12772WAT      O38557   5.382   2.239   7.315
12772WAT     H138558   5.300   2.231   7.260
12772WAT     H238559   5.451   2.292   7.266
12773WAT      O38560   6.171   6.273   4.852
12773WAT     H138561   6.189   6.195   4.792
12773WAT     H238562   6.102   6.332   4.810
12774WAT      O38563   6.460   4.847   9.806
12774WAT     H138564   6.385   4.831   9.870
12774WAT     H238565   6.497   4.939   9.819
12775WAT      O38566   1.533   5.532   1.620
12775WAT     H138567   1.564   5.626   1.605
12775WAT     H238568   1.559   5.503   1.712
12776WAT      O38569   4.236   1.895   4.772
12776WAT     H138570   4.309   1.848   4.723
12776WAT     H238571   4.148   1.872   4.730
12777WAT      O38572   7.785   0.756   0.556
12777WAT     H138573   7.857   0.698   0.519
12777WAT     H238574   7.717   0.774   0.484
12778WAT      O38575   1.903   3.203   1.466
12778WAT     H138576   1.935   3.252   1.547
12778WAT     H238577   1.954   3.233   1.386
12779WAT      O38578   8.265   6.516   5.465
12779WAT     H138579   8.273   6.615   5.474
12779WAT     H238580   8.187   6.483   5.518
12780WAT      O38581   4.743   0.391   9.589
12780WAT     H138582   4.673   0.432   9.647
12780WAT     H238583   4.739   0.431   9.497
12781WAT      O38584   7.747   3.630   8.367
12781WAT     H138585   7.829   3.599   8.416
12781WAT     H238586   7.666   3.604   8.420
12782WAT      O38587   4.383   9.633   4.007
12782WAT     H138588   4.372   9.534   4.015
12782WAT     H238589   4.296   9.673   3.979
12783WAT      O38590   8.451   9.558   5.137
12783WAT     H138591   8.374   9.550   5.200
12783WAT     H238592   8.514   9.628   5.170
12784WAT      O38593   7.616   1.911   1.869
12784WAT     H138594   7.657   1.831   1.823
12784WAT     H238595   7.551   1.880   1.938
12785WAT      O38596   8.817   1.950   0.620
12785WAT     H138597   8.879   1.882   0.661
12785WAT     H238598   8.723   1.928   0.645
12786WAT      O38599   4.561   8.247   8.049
12786WAT     H138600   4.469   8.270   8.017
12786WAT     H238601   4.621   8.326   8.039
12787WAT      O38602   6.098   8.131   5.233
12787WAT     H138603   6.089   8.216   5.284
12787WAT     H238604   6.124   8.057   5.296
12788WAT      O38605   8.199   2.355   2.919
12788WAT     H138606   8.220   2.281   2.983
12788WAT     H238607   8.206   2.443   2.966
12789WAT      O38608   5.425   0.218   5.477
12789WAT     H138609   5.406   0.274   5.558
12789WAT     H238610   5.393   0.266   5.395
12790WAT      O38611   8.090   6.325   0.729
12790WAT     H138612   8.172   6.369   0.693
12790WAT     H238613   8.021   6.395   0.750
12791WAT      O38614   2.771   4.875   9.718
12791WAT     H138615   2.821   4.931   9.784
12791WAT     H238616   2.725   4.934   9.652
12792WAT      O38617   1.438   2.034   0.870
12792WAT     H138618   1.470   2.062   0.960
12792WAT     H238619   1.516   2.024   0.808
12793WAT      O38620   5.545   4.852   6.656
12793WAT     H138621   5.473   4.784   6.669
12793WAT     H238622   5.536   4.923   6.726
12794WAT      O38623   7.286   4.814   1.868
12794WAT     H138624   7.207   4.858   1.910
12794WAT     H238625   7.369   4.842   1.916
12795WAT      O38626   4.653   1.630   4.262
12795WAT     H138627   4.593   1.690   4.209
12795WAT     H238628   4.611   1.539   4.268
12796WAT      O38629   8.488   3.607   7.405
12796WAT     H138630   8.388   3.597   7.408
12796WAT     H238631   8.524   3.557   7.326
12797WAT      O38632   1.164   3.358   8.628
12797WAT     H138633   1.093   3.314   8.573
12797WAT     H238634   1.245   3.376   8.572
12798WAT      O38635   5.819   5.569   8.117
12798WAT     H138636   5.828   5.473   8.145
12798WAT     H238637   5.906   5.615   8.130
12799WAT      O38638   1.591   8.908   4.446
12799WAT     H138639   1.625   8.816   4.466
12799WAT     H238640   1.581   8.959   4.532
12800WAT      O38641   2.618   0.968   5.882
12800WAT     H138642   2.533   0.915   5.882
12800WAT     H238643   2.657   0.970   5.790
12801WAT      O38644   1.051   0.890   2.822
12801WAT     H138645   1.118   0.924   2.756
12801WAT     H238646   1.092   0.891   2.914
12802WAT      O38647   2.899   1.139   3.263
12802WAT     H138648   2.832   1.071   3.233
12802WAT     H238649   2.953   1.102   3.339
12803WAT      O38650   4.108   8.157   9.342
12803WAT     H138651   4.168   8.103   9.402
12803WAT     H238652   4.160   8.235   9.306
12804WAT      O38653   6.434   2.090   1.431
12804WAT     H138654   6.470   2.160   1.369
12804WAT     H238655   6.439   2.001   1.387
12805WAT      O38656   6.448   3.667   5.900
12805WAT     H138657   6.486   3.678   5.808
12805WAT     H238658   6.444   3.570   5.923
12806WAT      O38659   3.774   0.094   1.629
12806WAT     H138660   3.819   0.170   1.677
12806WAT     H238661   3.708   0.050   1.691
12807WAT      O38662   4.223   6.254   6.685
12807WAT     H138663   4.132   6.290   6.665
12807WAT     H238664   4.252   6.192   6.612
12808WAT      O38665   0.363   3.914   7.418
12808WAT     H138666   0.354   3.951   7.325
12808WAT     H238667   0.410   3.826   7.414
12809WAT      O38668   4.405   6.882   8.873
12809WAT     H138669   4.448   6.969   8.900
12809WAT     H238670   4.401   6.821   8.952
12810WAT      O38671   5.521   3.413   0.213
12810WAT     H138672   5.459   3.474   0.263
12810WAT     H238673   5.511   3.320   0.248
12811WAT      O38674   8.385   0.743   3.860
12811WAT     H138675   8.330   0.689   3.796
12811WAT     H238676   8.459   0.685   3.896
12812WAT      O38677   9.008   1.419   5.187
12812WAT     H138678   9.018   1.503   5.133
12812WAT     H238679   8.916   1.383   5.175
12813WAT      O38680   3.356   9.424   1.493
12813WAT     H138681   3.377   9.512   1.450
12813WAT     H238682   3.280   9.436   1.558
12814WAT      O38683   2.690   2.623   2.661
12814WAT     H138684   2.627   2.547   2.678
12814WAT     H238685   2.773   2.589   2.617
12815WAT      O38686   1.204   8.981   4.002
12815WAT     H138687   1.141   9.054   4.029
12815WAT     H238688   1.279   8.975   4.068
12816WAT      O38689   4.802   4.985   9.279
12816WAT     H138690   4.723   5.018   9.228
12816WAT     H238691   4.779   4.900   9.327
12817WAT      O38692   9.268   1.146   8.440
12817WAT     H138693   9.295   1.208   8.366
12817WAT     H238694   9.320   1.168   8.522
12818WAT      O38695   9.300   2.447   0.101
12818WAT     H138696   9.266   2.433   0.008
12818WAT     H238697   9.395   2.480   0.097
12819WAT      O38698   9.248   4.261   7.005
12819WAT     H138699   9.330   4.310   7.036
12819WAT     H238700   9.172   4.326   6.996
12820WAT      O38701   5.260   3.681   0.916
12820WAT     H138702   5.186   3.718   0.973
12820WAT     H238703   5.313   3.756   0.878
12821WAT      O38704   1.444   3.584   1.313
12821WAT     H138705   1.461   3.683   1.310
12821WAT     H238706   1.370   3.561   1.250
12822WAT      O38707   0.728   8.925   1.864
12822WAT     H138708   0.751   8.827   1.859
12822WAT     H238709   0.647   8.943   1.808
12823WAT      O38710   9.114   1.211   7.667
12823WAT     H138711   9.035   1.150   7.652
12823WAT     H238712   9.082   1.297   7.706
12824WAT      O38713   4.713   8.196   2.952
12824WAT     H138714   4.801   8.230   2.983
12824WAT     H238715   4.725   8.144   2.867
12825WAT      O38716   0.857   9.390   1.945
12825WAT     H138717   0.829   9.392   1.849
12825WAT     H238718   0.812   9.464   1.994
12826WAT      O38719   5.112   2.198   7.858
12826WAT     H138720   5.020   2.220   7.828
12826WAT     H238721   5.109   2.164   7.952
12827WAT      O38722   8.330   4.645   8.019
12827WAT     H138723   8.331   4.579   8.094
12827WAT     H238724   8.354   4.600   7.933
12828WAT      O38725   8.364   2.956   5.731
12828WAT     H138726   8.316   2.946   5.818
12828WAT     H238727   8.418   3.039   5.732
12829WAT      O38728   2.957   8.980   8.464
12829WAT     H138729   2.966   8.963   8.562
12829WAT     H238730   3.007   8.910   8.413
12830WAT      O38731   6.213   1.967   1.178
12830WAT     H138732   6.131   1.946   1.231
12830WAT     H238733   6.286   1.903   1.204
12831WAT      O38734   8.023   0.695   6.787
12831WAT     H138735   8.044   0.787   6.753
12831WAT     H238736   8.090   0.630   6.750
12832WAT      O38737   6.427   6.245   1.473
12832WAT     H138738   6.385   6.309   1.409
12832WAT     H238739   6.453   6.161   1.425
12833WAT      O38740   3.289   7.720   9.249
12833WAT     H138741   3.269   7.647   9.314
12833WAT     H238742   3.388   7.725   9.234
12834WAT      O38743   1.839   9.055   7.290
12834WAT     H138744   1.917   9.111   7.316
12834WAT     H238745   1.823   8.985   7.360
12835WAT      O38746   8.895   8.170   5.882
12835WAT     H138747   8.979   8.220   5.907
12835WAT     H238748   8.816   8.214   5.926
12836WAT      O38749   5.650   5.327   5.105
12836WAT     H138750   5.592   5.369   5.035
12836WAT     H238751   5.688   5.242   5.070
12837WAT      O38752   6.295   3.348   6.936
12837WAT     H138753   6.232   3.404   6.882
12837WAT     H238754   6.350   3.407   6.995
12838WAT      O38755   5.502   9.112   6.734
12838WAT     H138756   5.557   9.143   6.656
12838WAT     H238757   5.558   9.051   6.791
12839WAT      O38758   5.201   0.211   6.880
12839WAT     H138759   5.107   0.215   6.913
12839WAT     H238760   5.251   0.138   6.927
12840WAT      O38761   4.241   2.895   8.545
12840WAT     H138762   4.312   2.842   8.590
12840WAT     H238763   4.227   2.982   8.593
12841WAT      O38764   7.039   8.638   6.984
12841WAT     H138765   7.023   8.575   7.060
12841WAT     H238766   7.137   8.645   6.967
12842WAT      O38767   5.618   0.702   5.124
12842WAT     H138768   5.632   0.725   5.028
12842WAT     H238769   5.652   0.776   5.181
12843WAT      O38770   7.896   6.154   5.553
12843WAT     H138771   7.983   6.105   5.546
12843WAT     H238772   7.914   6.252   5.567
12844WAT      O38773   4.985   1.901   6.069
12844WAT     H138774   4.992   1.822   6.130
12844WAT     H238775   5.031   1.980   6.111
12845WAT      O38776   9.478   3.743   6.510
12845WAT     H138777   9.568   3.743   6.552
12845WAT     H238778   9.483   3.786   6.420
12846WAT      O38779   7.224   4.623   4.648
12846WAT     H138780   7.139   4.675   4.646
12846WAT     H238781   7.291   4.665   4.586
12847WAT      O38782   5.109   3.611   6.975
12847WAT     H138783   5.071   3.686   7.029
12847WAT     H238784   5.083   3.622   6.879
12848WAT      O38785   7.660   2.742   2.389
12848WAT     H138786   7.746   2.723   2.340
12848WAT     H238787   7.674   2.726   2.486
12849WAT      O38788   2.182   2.814   0.462
12849WAT     H138789   2.114   2.785   0.530
12849WAT     H238790   2.170   2.911   0.441
12850WAT      O38791   4.579   2.815   6.742
12850WAT     H138792   4.493   2.765   6.741
12850WAT     H238793   4.653   2.754   6.715
12851WAT      O38794   3.695   6.807   8.621
12851WAT     H138795   3.729   6.793   8.529
12851WAT     H238796   3.749   6.879   8.666
12852WAT      O38797   4.825   2.511   5.277
12852WAT     H138798   4.736   2.552   5.298
12852WAT     H238799   4.832   2.496   5.178
12853WAT      O38800   7.642   4.753   1.440
12853WAT     H138801   7.692   4.779   1.357
12853WAT     H238802   7.637   4.653   1.446
12854WAT      O38803   2.657   5.099   4.124
12854WAT     H138804   2.753   5.095   4.097
12854WAT     H238805   2.614   5.181   4.085
12855WAT      O38806   9.108   0.596   1.330
12855WAT     H138807   9.105   0.686   1.374
12855WAT     H238808   9.032   0.589   1.264
12856WAT      O38809   8.836   0.219   0.190
12856WAT     H138810   8.852   0.249   0.284
12856WAT     H238811   8.742   0.188   0.180
12857WAT      O38812   7.058   7.682   4.706
12857WAT     H138813   7.047   7.612   4.777
12857WAT     H238814   7.012   7.652   4.623
12858WAT      O38815   9.200   3.942   1.307
12858WAT     H138816   9.200   3.878   1.384
12858WAT     H238817   9.142   4.020   1.329
12859WAT      O38818   7.730   9.196   6.890
12859WAT     H138819   7.631   9.206   6.885
12859WAT     H238820   7.754   9.099   6.891
12860WAT      O38821   3.433   8.776   5.015
12860WAT     H138822   3.368   8.834   4.967
12860WAT     H238823   3.498   8.834   5.065
12861WAT      O38824   2.689   1.459   1.072
12861WAT     H138825   2.740   1.523   1.014
12861WAT     H238826   2.738   1.372   1.077
12862WAT      O38827   1.085   1.779   1.944
12862WAT     H138828   1.092   1.859   1.884
12862WAT     H238829   1.175   1.735   1.949
12863WAT      O38830   7.633   8.658   6.862
12863WAT     H138831   7.606   8.617   6.949
12863WAT     H238832   7.552   8.688   6.812
12864WAT      O38833   5.425   2.175   4.996
12864WAT     H138834   5.380   2.263   5.005
12864WAT     H238835   5.360   2.102   5.018
12865WAT      O38836   1.284   3.784   1.597
12865WAT     H138837   1.314   3.695   1.631
12865WAT     H238838   1.189   3.778   1.568
12866WAT      O38839   1.317   9.834   7.098
12866WAT     H138840   1.349   9.784   7.018
12866WAT     H238841   1.334   9.780   7.180
12867WAT      O38842   9.494   7.680   4.249
12867WAT     H138843   9.457   7.769   4.222
12867WAT     H238844   9.428   7.609   4.224
12868WAT      O38845   6.034   5.939   5.355
12868WAT     H138846   5.988   5.901   5.435
12868WAT     H238847   6.132   5.950   5.375
12869WAT      O38848   0.205   1.295   9.457
12869WAT     H138849   0.243   1.326   9.370
12869WAT     H238850   0.105   1.301   9.454
12870WAT      O38851   5.313   1.915   8.018
12870WAT     H138852   5.308   1.844   8.089
12870WAT     H238853   5.267   1.998   8.050
12871WAT      O38854   9.626   5.223   5.586
12871WAT     H138855   9.569   5.197   5.508
12871WAT     H238856   9.681   5.303   5.562
12872WAT      O38857   8.477   3.414   3.679
12872WAT     H138858   8.531   3.347   3.629
12872WAT     H238859   8.530   3.499   3.689
12873WAT      O38860   0.330   8.115   4.816
12873WAT     H138861   0.275   8.109   4.732
12873WAT     H238862   0.269   8.115   4.895
12874WAT      O38863   2.934   8.462   8.305
12874WAT     H138864   2.855   8.439   8.249
12874WAT     H238865   3.016   8.421   8.266
12875WAT      O38866   5.332   3.479   7.553
12875WAT     H138867   5.321   3.491   7.652
12875WAT     H238868   5.290   3.393   7.525
12876WAT      O38869   9.235   2.077   6.470
12876WAT     H138870   9.164   2.119   6.527
12876WAT     H238871   9.302   2.146   6.443
12877WAT      O38872   2.320   5.209   0.747
12877WAT     H138873   2.275   5.264   0.818
12877WAT     H238874   2.379   5.268   0.692
12878WAT      O38875   9.324   9.660   6.926
12878WAT     H138876   9.236   9.644   6.882
12878WAT     H238877   9.396   9.668   6.856
12879WAT      O38878   9.589   7.981   3.414
12879WAT     H138879   9.491   7.964   3.405
12879WAT     H238880   9.605   8.078   3.434
12880WAT      O38881   0.139   6.152   7.202
12880WAT     H138882   0.079   6.072   7.211
12880WAT     H238883   0.220   6.140   7.258
12881WAT      O38884   1.587   9.309   7.854
12881WAT     H138885   1.512   9.324   7.918
12881WAT     H238886   1.551   9.278   7.766
12882WAT      O38887   8.255   3.651   6.576
12882WAT     H138888   8.217   3.621   6.664
12882WAT     H238889   8.320   3.725   6.592
12883WAT      O38890   1.414   4.642   7.373
12883WAT     H138891   1.445   4.600   7.458
12883WAT     H238892   1.314   4.645   7.372
12884WAT      O38893   7.607   9.071   8.165
12884WAT     H138894   7.584   9.158   8.122
12884WAT     H238895   7.523   9.026   8.196
12885WAT      O38896   8.644   7.089   7.902
12885WAT     H138897   8.742   7.095   7.920
12885WAT     H238898   8.629   7.059   7.808
12886WAT      O38899   0.688   5.519   7.556
12886WAT     H138900   0.622   5.588   7.526
12886WAT     H238901   0.737   5.484   7.477
12887WAT      O38902   1.478   8.453   3.764
12887WAT     H138903   1.434   8.540   3.744
12887WAT     H238904   1.576   8.467   3.776
12888WAT      O38905   2.606   6.138   8.136
12888WAT     H138906   2.685   6.174   8.086
12888WAT     H238907   2.532   6.205   8.133
12889WAT      O38908   5.261   3.265   9.648
12889WAT     H138909   5.346   3.316   9.640
12889WAT     H238910   5.218   3.286   9.736
12890WAT      O38911   0.654   3.505   5.531
12890WAT     H138912   0.679   3.593   5.491
12890WAT     H238913   0.736   3.448   5.541
12891WAT      O38914   1.287   6.842   9.123
12891WAT     H138915   1.324   6.843   9.030
12891WAT     H238916   1.202   6.895   9.125
12892WAT      O38917   2.387   6.123   2.671
12892WAT     H138918   2.299   6.156   2.639
12892WAT     H238919   2.459   6.154   2.608
12893WAT      O38920   7.292   7.093   8.348
12893WAT     H138921   7.371   7.121   8.404
12893WAT     H238922   7.313   7.111   8.251
12894WAT      O38923   8.744   4.413   2.192
12894WAT     H138924   8.838   4.381   2.201
12894WAT     H238925   8.693   4.391   2.275
12895WAT      O38926   3.954   1.683   9.572
12895WAT     H138927   3.984   1.740   9.496
12895WAT     H238928   3.949   1.588   9.542
12896WAT      O38929   9.080   6.891   3.568
12896WAT     H138930   9.176   6.921   3.568
12896WAT     H238931   9.022   6.967   3.538
12897WAT      O38932   4.966   6.909   7.953
12897WAT     H138933   4.962   6.816   7.917
12897WAT     H238934   4.908   6.917   8.034
12898WAT      O38935   0.667   4.132   3.778
12898WAT     H138936   0.751   4.091   3.744
12898WAT     H238937   0.668   4.230   3.759
12899WAT      O38938   8.665   0.560   5.376
12899WAT     H138939   8.607   0.501   5.321
12899WAT     H238940   8.608   0.621   5.432
12900WAT      O38941   4.659   4.904   8.082
12900WAT     H138942   4.638   4.982   8.024
12900WAT     H238943   4.604   4.908   8.165
12901WAT      O38944   1.668   8.373   4.213
12901WAT     H138945   1.587   8.321   4.239
12901WAT     H238946   1.749   8.315   4.224
12902WAT      O38947   7.494   1.644   4.544
12902WAT     H138948   7.414   1.670   4.599
12902WAT     H238949   7.466   1.581   4.472
12903WAT      O38950   1.371   6.826   9.768
12903WAT     H138951   1.361   6.782   9.679
12903WAT     H238952   1.426   6.909   9.759
12904WAT      O38953   6.310   7.168   7.998
12904WAT     H138954   6.364   7.098   8.046
12904WAT     H238955   6.358   7.255   8.003
12905WAT      O38956   6.092   1.580   9.251
12905WAT     H138957   6.063   1.485   9.253
12905WAT     H238958   6.075   1.622   9.340
12906WAT      O38959   8.236   8.490   0.619
12906WAT     H138960   8.281   8.541   0.546
12906WAT     H238961   8.143   8.525   0.632
12907WAT      O38962   8.196   7.553   0.218
12907WAT     H138963   8.143   7.471   0.242
12907WAT     H238964   8.136   7.632   0.215
12908WAT      O38965   6.056   2.034   0.664
12908WAT     H138966   6.090   2.114   0.616
12908WAT     H238967   6.134   1.976   0.691
12909WAT      O38968   0.088   6.012   4.674
12909WAT     H138969   0.094   6.044   4.579
12909WAT     H238970   0.173   6.032   4.722
12910WAT      O38971   4.802   4.993   0.338
12910WAT     H138972   4.811   5.086   0.301
12910WAT     H238973   4.761   4.934   0.268
12911WAT      O38974   0.031   1.612   1.046
12911WAT     H138975   0.016   1.708   1.022
12911WAT     H238976   0.048   1.559   0.963
12912WAT      O38977   5.117   6.234   1.877
12912WAT     H138978   5.110   6.237   1.777
12912WAT     H238979   5.025   6.235   1.916
12913WAT      O38980   1.610   0.712   2.039
12913WAT     H138981   1.529   0.656   2.058
12913WAT     H238982   1.589   0.808   2.059
12914WAT      O38983   9.351   3.130   7.974
12914WAT     H138984   9.386   3.037   7.962
12914WAT     H238985   9.359   3.156   8.071
12915WAT      O38986   4.714   6.363   0.749
12915WAT     H138987   4.672   6.273   0.737
12915WAT     H238988   4.767   6.365   0.834
12916WAT      O38989   5.835   6.100   0.383
12916WAT     H138990   5.737   6.084   0.382
12916WAT     H238991   5.883   6.015   0.361
12917WAT      O38992   7.177   2.849   0.458
12917WAT     H138993   7.084   2.872   0.487
12917WAT     H238994   7.241   2.917   0.492
12918WAT      O38995   6.739   6.625   2.855
12918WAT     H138996   6.774   6.584   2.770
12918WAT     H238997   6.641   6.642   2.846
12919WAT      O38998   3.589   2.355   9.877
12919WAT     H138999   3.545   2.294   9.944
12919WAT     H239000   3.664   2.404   9.921
12920WAT      O39001   1.945   7.352   3.924
12920WAT     H139002   2.013   7.279   3.921
12920WAT     H239003   1.936   7.386   4.018
12921WAT      O39004   1.274   2.995   2.965
12921WAT     H139005   1.188   3.034   2.997
12921WAT     H239006   1.296   3.033   2.875
12922WAT      O39007   0.395   5.328   5.724
12922WAT     H139008   0.325   5.270   5.766
12922WAT     H239009   0.445   5.275   5.655
12923WAT      O39010   6.088   1.104   1.055
12923WAT     H139011   6.073   1.056   0.968
12923WAT     H239012   6.130   1.193   1.036
12924WAT      O39013   1.552   9.262   0.198
12924WAT     H139014   1.556   9.261   0.098
12924WAT     H239015   1.475   9.206   0.229
12925WAT      O39016   5.330   3.819   1.625
12925WAT     H139017   5.354   3.869   1.708
12925WAT     H239018   5.413   3.782   1.584
12926WAT      O39019   5.951   0.288   1.883
12926WAT     H139020   5.939   0.202   1.932
12926WAT     H239021   6.029   0.338   1.921
12927WAT      O39022   7.976   8.242   3.700
12927WAT     H139023   8.025   8.170   3.650
12927WAT     H239024   7.912   8.288   3.638
12928WAT      O39025   0.787   4.285   4.423
12928WAT     H139026   0.828   4.266   4.334
12928WAT     H239027   0.737   4.371   4.420
12929WAT      O39028   7.117   2.531   8.108
12929WAT     H139029   7.169   2.563   8.187
12929WAT     H239030   7.141   2.436   8.089
12930WAT      O39031   5.873   9.144   4.159
12930WAT     H139032   5.841   9.052   4.180
12930WAT     H239033   5.842   9.208   4.230
12931WAT      O39034   5.485   8.839   3.074
12931WAT     H139035   5.538   8.755   3.059
12931WAT     H239036   5.449   8.839   3.168
12932WAT      O39037   3.787   9.338   1.677
12932WAT     H139038   3.701   9.387   1.693
12932WAT     H239039   3.847   9.394   1.621
12933WAT      O39040   6.556   3.347   1.726
12933WAT     H139041   6.488   3.417   1.705
12933WAT     H239042   6.534   3.263   1.677
12934WAT      O39043   7.281   0.245   4.552
12934WAT     H139044   7.287   0.226   4.649
12934WAT     H239045   7.373   0.262   4.515
12935WAT      O39046   0.725   4.593   8.072
12935WAT     H139047   0.697   4.680   8.113
12935WAT     H239048   0.753   4.530   8.145
12936WAT      O39049   2.030   1.748   3.767
12936WAT     H139050   2.063   1.839   3.740
12936WAT     H239051   1.973   1.757   3.848
12937WAT      O39052   2.259   4.142   6.195
12937WAT     H139053   2.264   4.232   6.237
12937WAT     H239054   2.337   4.128   6.134
12938WAT      O39055   8.754   2.258   7.299
12938WAT     H139056   8.831   2.210   7.258
12938WAT     H239057   8.671   2.240   7.247
12939WAT      O39058   4.632   1.963   4.683
12939WAT     H139059   4.721   1.986   4.644
12939WAT     H239060   4.632   1.988   4.780
12940WAT      O39061   1.692   8.764   8.413
12940WAT     H139062   1.785   8.801   8.416
12940WAT     H239063   1.641   8.808   8.340
12941WAT      O39064   2.070   4.411   1.152
12941WAT     H139065   2.090   4.405   1.054
12941WAT     H239066   2.151   4.442   1.201
12942WAT      O39067   2.136   6.827   2.659
12942WAT     H139068   2.179   6.812   2.569
12942WAT     H239069   2.208   6.838   2.728
12943WAT      O39070   5.476   2.772   3.088
12943WAT     H139071   5.529   2.774   3.003
12943WAT     H239072   5.410   2.696   3.084
12944WAT      O39073   6.818   2.858   2.757
12944WAT     H139074   6.835   2.808   2.842
12944WAT     H239075   6.869   2.814   2.682
12945WAT      O39076   2.952   3.263   1.248
12945WAT     H139077   3.018   3.210   1.193
12945WAT     H239078   2.935   3.351   1.204
12946WAT      O39079   2.444   5.096   1.035
12946WAT     H139080   2.479   5.030   0.968
12946WAT     H239081   2.397   5.047   1.108
12947WAT      O39082   1.415   6.217   9.397
12947WAT     H139083   1.454   6.131   9.432
12947WAT     H239084   1.343   6.248   9.460
12948WAT      O39085   2.971   4.501   2.774
12948WAT     H139086   2.988   4.600   2.777
12948WAT     H239087   3.042   4.454   2.827
12949WAT      O39088   3.920   3.370   3.378
12949WAT     H139089   3.919   3.425   3.295
12949WAT     H239090   3.831   3.374   3.423
12950WAT      O39091   1.471   6.297   5.367
12950WAT     H139092   1.538   6.302   5.293
12950WAT     H239093   1.465   6.203   5.401
12951WAT      O39094   2.772   1.563   2.501
12951WAT     H139095   2.762   1.645   2.558
12951WAT     H239096   2.866   1.558   2.466
12952WAT      O39097   4.604   9.585   7.265
12952WAT     H139098   4.584   9.536   7.179
12952WAT     H239099   4.689   9.637   7.254
12953WAT      O39100   8.261   6.304   2.151
12953WAT     H139101   8.352   6.263   2.159
12953WAT     H239102   8.270   6.397   2.114
12954WAT      O39103   9.355   2.514   6.530
12954WAT     H139104   9.441   2.556   6.559
12954WAT     H239105   9.283   2.539   6.594
12955WAT      O39106   5.280   3.893   1.136
12955WAT     H139107   5.221   3.874   1.215
12955WAT     H239108   5.225   3.937   1.064
12956WAT      O39109   8.891   9.392   0.016
12956WAT     H139110   8.909   9.358  -0.077
12956WAT     H239111   8.837   9.324   0.066
12957WAT      O39112   8.576   7.481   7.734
12957WAT     H139113   8.491   7.528   7.711
12957WAT     H239114   8.569   7.441   7.825
12958WAT      O39115   9.790   1.599   0.405
12958WAT     H139116   9.867   1.660   0.423
12958WAT     H239117   9.718   1.650   0.357
12959WAT      O39118   0.837   0.521   3.461
12959WAT     H139119   0.910   0.589   3.474
12959WAT     H239120   0.836   0.491   3.366
12960WAT      O39121   5.617   7.505   9.148
12960WAT     H139122   5.642   7.433   9.084
12960WAT     H239123   5.570   7.465   9.227
12961WAT      O39124   5.851   8.815   6.027
12961WAT     H139125   5.839   8.906   6.065
12961WAT     H239126   5.917   8.817   5.953
12962WAT      O39127   6.341   1.222   8.051
12962WAT     H139128   6.248   1.194   8.029
12962WAT     H239129   6.380   1.272   7.974
12963WAT      O39130   1.862   0.441   6.582
12963WAT     H139131   1.771   0.438   6.623
12963WAT     H239132   1.854   0.467   6.486
12964WAT      O39133   8.666   5.771   1.258
12964WAT     H139134   8.655   5.850   1.317
12964WAT     H239135   8.586   5.763   1.198
12965WAT      O39136   3.009   9.825   9.044
12965WAT     H139137   3.060   9.745   9.075
12965WAT     H239138   2.919   9.827   9.087
12966WAT      O39139   7.584   7.205   2.582
12966WAT     H139140   7.658   7.189   2.516
12966WAT     H239141   7.503   7.239   2.534
12967WAT      O39142   5.047   1.164   4.887
12967WAT     H139143   5.054   1.215   4.801
12967WAT     H239144   5.138   1.155   4.928
12968WAT      O39145   8.377   8.631   9.763
12968WAT     H139146   8.345   8.682   9.683
12968WAT     H239147   8.355   8.682   9.846
12969WAT      O39148   5.886   2.130   6.303
12969WAT     H139149   5.888   2.067   6.226
12969WAT     H239150   5.793   2.135   6.339
12970WAT      O39151   7.423   1.589   5.827
12970WAT     H139152   7.461   1.497   5.819
12970WAT     H239153   7.423   1.617   5.923
12971WAT      O39154   3.470   6.021   1.986
12971WAT     H139155   3.409   5.974   1.922
12971WAT     H239156   3.546   5.960   2.010
12972WAT      O39157   7.911   1.701   9.415
12972WAT     H139158   7.948   1.766   9.481
12972WAT     H239159   7.897   1.746   9.327
12973WAT      O39160   9.252   7.148   7.842
12973WAT     H139161   9.197   7.086   7.787
12973WAT     H239162   9.194   7.194   7.910
12974WAT      O39163   2.375   5.349   7.086
12974WAT     H139164   2.436   5.273   7.064
12974WAT     H239165   2.310   5.320   7.157
12975WAT      O39166   8.491   1.765   6.313
12975WAT     H139167   8.396   1.787   6.291
12975WAT     H239168   8.539   1.846   6.346
12976WAT      O39169   6.523   8.798   2.136
12976WAT     H139170   6.562   8.889   2.144
12976WAT     H239171   6.578   8.744   2.072
12977WAT      O39172   4.922   8.440   8.611
12977WAT     H139173   4.887   8.391   8.531
12977WAT     H239174   4.923   8.538   8.592
12978WAT      O39175   4.312   6.774   4.636
12978WAT     H139176   4.337   6.823   4.552
12978WAT     H239177   4.394   6.760   4.692
12979WAT      O39178   9.388   2.232   4.421
12979WAT     H139179   9.439   2.313   4.395
12979WAT     H239180   9.330   2.203   4.344
12980WAT      O39181   2.103   3.939   0.252
12980WAT     H139182   2.093   3.965   0.348
12980WAT     H239183   2.105   4.021   0.195
12981WAT      O39184   5.146   3.473   9.882
12981WAT     H139185   5.186   3.550   9.832
12981WAT     H239186   5.156   3.487   9.980
12982WAT      O39187   6.219   4.180   5.178
12982WAT     H139188   6.265   4.124   5.109
12982WAT     H239189   6.131   4.139   5.201
12983WAT      O39190   7.755   6.708   1.431
12983WAT     H139191   7.808   6.787   1.401
12983WAT     H239192   7.657   6.728   1.424
12984WAT      O39193   0.067   3.196   5.996
12984WAT     H139194   0.147   3.204   6.056
12984WAT     H239195   0.045   3.287   5.959
12985WAT      O39196   8.465   3.190   6.082
12985WAT     H139197   8.398   3.232   6.142
12985WAT     H239198   8.530   3.137   6.137
12986WAT      O39199   2.198   8.389   6.691
12986WAT     H139200   2.178   8.435   6.604
12986WAT     H239201   2.261   8.445   6.745
12987WAT      O39202   1.904   8.270   4.305
12987WAT     H139203   1.931   8.174   4.296
12987WAT     H239204   1.978   8.329   4.272
12988WAT      O39205   4.046   2.744   5.404
12988WAT     H139206   3.950   2.717   5.389
12988WAT     H239207   4.052   2.843   5.406
12989WAT      O39208   8.768   1.247   6.096
12989WAT     H139209   8.779   1.341   6.062
12989WAT     H239210   8.779   1.246   6.195
12990WAT      O39211   2.322   7.026   9.423
12990WAT     H139212   2.293   7.010   9.329
12990WAT     H239213   2.419   7.004   9.432
12991WAT      O39214   7.604   3.852   2.877
12991WAT     H139215   7.658   3.897   2.948
12991WAT     H239216   7.570   3.764   2.911
12992WAT      O39217   5.810   3.707   5.765
12992WAT     H139218   5.835   3.674   5.856
12992WAT     H239219   5.728   3.659   5.734
12993WAT      O39220   1.156   7.630   6.434
12993WAT     H139221   1.128   7.721   6.466
12993WAT     H239222   1.110   7.560   6.489
12994WAT      O39223   7.225   1.779   2.507
12994WAT     H139224   7.141   1.829   2.528
12994WAT     H239225   7.210   1.681   2.521
12995WAT      O39226   6.185   1.565   8.005
12995WAT     H139227   6.096   1.545   7.965
12995WAT     H239228   6.181   1.554   8.104
12996WAT      O39229   4.409   6.630   9.270
12996WAT     H139230   4.469   6.622   9.190
12996WAT     H239231   4.328   6.684   9.245
12997WAT      O39232   7.442   4.951   1.477
12997WAT     H139233   7.499   5.033   1.487
12997WAT     H239234   7.500   4.869   1.481
12998WAT      O39235   1.988   8.078   1.640
12998WAT     H139236   1.902   8.065   1.591
12998WAT     H239237   1.973   8.064   1.738
12999WAT      O39238   1.142   9.732   1.258
12999WAT     H139239   1.237   9.736   1.227
12999WAT     H239240   1.139   9.725   1.358
13000WAT      O39241   1.671   3.446   0.439
13000WAT     H139242   1.706   3.480   0.526
13000WAT     H239243   1.637   3.353   0.450
13001WAT      O39244   5.065   5.753   7.530
13001WAT     H139245   5.087   5.762   7.433
13001WAT     H239246   5.149   5.760   7.584
13002WAT      O39247   2.288   1.189   3.782
13002WAT     H139248   2.339   1.228   3.706
13002WAT     H239249   2.245   1.262   3.835
13003WAT      O39250   0.836   2.228   4.645
13003WAT     H139251   0.901   2.199   4.575
13003WAT     H239252   0.870   2.310   4.691
13004WAT      O39253   1.883   3.155   7.902
13004WAT     H139254   1.943   3.193   7.832
13004WAT     H239255   1.909   3.190   7.992
13005WAT      O39256   7.115   0.776   4.852
13005WAT     H139257   7.081   0.691   4.813
13005WAT     H239258   7.174   0.756   4.931
13006WAT      O39259   1.906   3.619   8.625
13006WAT     H139260   1.959   3.637   8.542
13006WAT     H239261   1.846   3.541   8.610
13007WAT      O39262   1.952   7.267   2.544
13007WAT     H139263   1.928   7.191   2.604
13007WAT     H239264   1.988   7.232   2.458
13008WAT      O39265   0.148   8.777   4.160
13008WAT     H139266   0.194   8.865   4.163
13008WAT     H239267   0.067   8.779   4.219
13009WAT      O39268   9.786   0.611   7.542
13009WAT     H139269   9.829   0.522   7.555
13009WAT     H239270   9.829   0.678   7.603
13010WAT      O39271   3.534   0.087   4.780
13010WAT     H139272   3.478   0.109   4.700
13010WAT     H239273   3.617   0.142   4.778
13011WAT      O39274   0.573   7.340   3.367
13011WAT     H139275   0.571   7.307   3.273
13011WAT     H239276   0.612   7.269   3.426
13012WAT      O39277   3.241   0.342   8.452
13012WAT     H139278   3.261   0.416   8.389
13012WAT     H239279   3.318   0.278   8.456
13013WAT      O39280   9.573   9.788   1.533
13013WAT     H139281   9.580   9.745   1.623
13013WAT     H239282   9.661   9.783   1.487
13014WAT      O39283   7.324   9.286   3.570
13014WAT     H139284   7.259   9.228   3.620
13014WAT     H239285   7.295   9.382   3.579
13015WAT      O39286   9.391   0.958   0.093
13015WAT     H139287   9.401   1.035   0.031
13015WAT     H239288   9.478   0.909   0.100
13016WAT      O39289   6.717   0.275   3.158
13016WAT     H139290   6.653   0.307   3.227
13016WAT     H239291   6.729   0.176   3.166
13017WAT      O39292   7.043   8.836   1.075
13017WAT     H139293   6.971   8.887   1.121
13017WAT     H239294   7.069   8.884   0.991
13018WAT      O39295   2.563   6.196   7.333
13018WAT     H139296   2.551   6.120   7.270
13018WAT     H239297   2.621   6.265   7.290
13019WAT      O39298   0.239   0.439   4.755
13019WAT     H139299   0.286   0.518   4.793
13019WAT     H239300   0.154   0.423   4.805
13020WAT      O39301   6.935   4.382   7.577
13020WAT     H139302   7.009   4.345   7.521
13020WAT     H239303   6.963   4.469   7.617
13021WAT      O39304   0.502   8.051   1.882
13021WAT     H139305   0.482   8.057   1.980
13021WAT     H239306   0.556   8.131   1.854
13022WAT      O39307   4.770   6.491   9.707
13022WAT     H139308   4.780   6.587   9.681
13022WAT     H239309   4.821   6.434   9.643
13023WAT      O39310   9.572   0.322   8.135
13023WAT     H139311   9.646   0.359   8.079
13023WAT     H239312   9.563   0.376   8.219
13024WAT      O39313   7.665   6.644   4.372
13024WAT     H139314   7.603   6.718   4.344
13024WAT     H239315   7.612   6.568   4.409
13025WAT      O39316   2.139   9.152   5.906
13025WAT     H139317   2.085   9.099   5.971
13025WAT     H239318   2.209   9.204   5.954
13026WAT      O39319   7.156   1.475   0.845
13026WAT     H139320   7.244   1.515   0.819
13026WAT     H239321   7.107   1.444   0.763
13027WAT      O39322   1.469   4.442   5.881
13027WAT     H139323   1.483   4.477   5.788
13027WAT     H239324   1.490   4.344   5.883
13028WAT      O39325   4.213   7.495   9.662
13028WAT     H139326   4.214   7.402   9.627
13028WAT     H239327   4.290   7.546   9.625
13029WAT      O39328   0.312   0.657   1.872
13029WAT     H139329   0.229   0.673   1.926
13029WAT     H239330   0.294   0.677   1.776
13030WAT      O39331   7.720   8.455   3.041
13030WAT     H139332   7.681   8.533   2.991
13030WAT     H239333   7.648   8.390   3.064
13031WAT      O39334   7.792   1.252   7.635
13031WAT     H139335   7.871   1.310   7.617
13031WAT     H239336   7.709   1.309   7.637
13032WAT      O39337   3.973   1.857   3.684
13032WAT     H139338   3.907   1.796   3.640
13032WAT     H239339   3.925   1.915   3.751
13033WAT      O39340   4.269   7.917   3.415
13033WAT     H139341   4.361   7.956   3.420
13033WAT     H239342   4.245   7.877   3.503
13034WAT      O39343   9.579   3.883   2.329
13034WAT     H139344   9.549   3.854   2.420
13034WAT     H239345   9.679   3.883   2.325
13035WAT      O39346   9.872   3.942   2.535
13035WAT     H139347   9.810   3.880   2.582
13035WAT     H239348   9.885   3.911   2.440
13036WAT      O39349   3.600   4.434   7.857
13036WAT     H139350   3.541   4.431   7.937
13036WAT     H239351   3.694   4.412   7.883
13037WAT      O39352   7.892   0.413   0.143
13037WAT     H139353   7.840   0.473   0.204
13037WAT     H239354   7.879   0.318   0.170
13038WAT      O39355   8.757   9.242   8.627
13038WAT     H139356   8.689   9.281   8.689
13038WAT     H239357   8.784   9.152   8.660
13039WAT      O39358   1.364   3.867   6.053
13039WAT     H139359   1.272   3.881   6.088
13039WAT     H239360   1.417   3.814   6.119
13040WAT      O39361   6.833   7.096   2.165
13040WAT     H139362   6.801   7.191   2.165
13040WAT     H239363   6.798   7.050   2.247
13041WAT      O39364   2.196   6.551   4.847
13041WAT     H139365   2.235   6.466   4.811
13041WAT     H239366   2.101   6.559   4.817
13042WAT      O39367   4.146   3.438   1.518
13042WAT     H139368   4.156   3.511   1.449
13042WAT     H239369   4.148   3.479   1.609
13043WAT      O39370   8.364   2.799   3.284
13043WAT     H139371   8.384   2.710   3.243
13043WAT     H239372   8.407   2.870   3.229
13044WAT      O39373   7.752   0.064   2.553
13044WAT     H139374   7.844   0.104   2.555
13044WAT     H239375   7.693   0.114   2.616
13045WAT      O39376   4.987   2.394   4.971
13045WAT     H139377   5.024   2.487   4.976
13045WAT     H239378   4.948   2.379   4.880
13046WAT      O39379   5.663   1.625   6.714
13046WAT     H139380   5.581   1.591   6.759
13046WAT     H239381   5.738   1.629   6.780
13047WAT      O39382   5.056   8.091   9.563
13047WAT     H139383   4.999   8.024   9.611
13047WAT     H239384   5.153   8.068   9.577
13048WAT      O39385   3.688   7.358   0.552
13048WAT     H139386   3.634   7.379   0.633
13048WAT     H239387   3.639   7.388   0.470
13049WAT      O39388   2.758   4.663   8.514
13049WAT     H139389   2.776   4.609   8.432
13049WAT     H239390   2.840   4.665   8.571
13050WAT      O39391   9.476   7.349   6.383
13050WAT     H139392   9.398   7.403   6.416
13050WAT     H239393   9.533   7.323   6.461
13051WAT      O39394   4.251   1.121   9.704
13051WAT     H139395   4.294   1.122   9.794
13051WAT     H239396   4.304   1.063   9.642
13052WAT      O39397   7.308   7.025   3.609
13052WAT     H139398   7.264   6.950   3.559
13052WAT     H239399   7.334   6.994   3.700
13053WAT      O39400   8.853   5.405   6.357
13053WAT     H139401   8.889   5.314   6.374
13053WAT     H239402   8.877   5.466   6.433
13054WAT      O39403   0.923   1.549   6.730
13054WAT     H139404   0.941   1.511   6.821
13054WAT     H239405   1.005   1.544   6.674
13055WAT      O39406   6.048   6.824   6.975
13055WAT     H139407   5.998   6.759   6.918
13055WAT     H239408   6.130   6.780   7.012
13056WAT      O39409   7.348   2.428   3.736
13056WAT     H139410   7.336   2.526   3.724
13056WAT     H239411   7.432   2.399   3.689
13057WAT      O39412   6.233   8.626   5.564
13057WAT     H139413   6.209   8.703   5.505
13057WAT     H239414   6.322   8.590   5.538
13058WAT      O39415   0.746   1.709   6.574
13058WAT     H139416   0.823   1.652   6.601
13058WAT     H239417   0.660   1.660   6.592
13059WAT      O39418   5.981   6.974   6.665
13059WAT     H139419   5.979   6.882   6.627
13059WAT     H239420   6.001   7.040   6.592
13060WAT      O39421   0.386   1.607   3.410
13060WAT     H139422   0.323   1.542   3.368
13060WAT     H239423   0.391   1.590   3.508
13061WAT      O39424   5.940   7.614   6.308
13061WAT     H139425   6.010   7.652   6.368
13061WAT     H239426   5.983   7.578   6.225
13062WAT      O39427   5.185   3.837   9.351
13062WAT     H139428   5.215   3.869   9.440
13062WAT     H239429   5.176   3.737   9.352
13063WAT      O39430   6.273   9.294   3.135
13063WAT     H139431   6.253   9.374   3.078
13063WAT     H239432   6.196   9.276   3.196
13064WAT      O39433   3.519   8.042   7.603
13064WAT     H139434   3.557   7.961   7.557
13064WAT     H239435   3.422   8.050   7.581
13065WAT      O39436   0.423   6.234   2.559
13065WAT     H139437   0.448   6.329   2.541
13065WAT     H239438   0.375   6.197   2.479
13066WAT      O39439   1.797   4.800   1.883
13066WAT     H139440   1.858   4.857   1.938
13066WAT     H239441   1.822   4.704   1.895
13067WAT      O39442   9.862   0.329   5.232
13067WAT     H139443   9.766   0.352   5.214
13067WAT     H239444   9.921   0.403   5.201
13068WAT      O39445   5.553   5.304   4.175
13068WAT     H139446   5.474   5.314   4.115
13068WAT     H239447   5.522   5.289   4.269
13069WAT      O39448   5.343   5.527   2.512
13069WAT     H139449   5.422   5.587   2.499
13069WAT     H239450   5.323   5.517   2.609
13070WAT      O39451   1.032   8.203   1.034
13070WAT     H139452   0.987   8.134   0.977
13070WAT     H239453   1.080   8.158   1.110
13071WAT      O39454   3.024   5.260   0.529
13071WAT     H139455   2.988   5.308   0.609
13071WAT     H239456   3.119   5.233   0.546
13072WAT      O39457   3.242   4.072   3.627
13072WAT     H139458   3.323   4.071   3.686
13072WAT     H239459   3.163   4.102   3.680
13073WAT      O39460   4.502   7.781   2.105
13073WAT     H139461   4.453   7.861   2.070
13073WAT     H239462   4.510   7.712   2.033
13074WAT      O39463   7.250   2.693   7.801
13074WAT     H139464   7.252   2.767   7.868
13074WAT     H239465   7.341   2.651   7.796
13075WAT      O39466   0.832   3.144   3.320
13075WAT     H139467   0.782   3.063   3.289
13075WAT     H239468   0.784   3.185   3.398
13076WAT      O39469   6.379   3.142   6.090
13076WAT     H139470   6.380   3.091   6.176
13076WAT     H239471   6.425   3.088   6.019
13077WAT      O39472   0.816   7.407   5.080
13077WAT     H139473   0.872   7.469   5.134
13077WAT     H239474   0.854   7.315   5.084
13078WAT      O39475   8.252   7.621   5.911
13078WAT     H139476   8.224   7.564   5.988
13078WAT     H239477   8.222   7.715   5.927
13079WAT      O39478   6.376   2.356   9.605
13079WAT     H139479   6.399   2.330   9.511
13079WAT     H239480   6.384   2.455   9.616
13080WAT      O39481   5.034   0.022   7.100
13080WAT     H139482   5.131   0.045   7.103
13080WAT     H239483   4.984   0.092   7.050
13081WAT      O39484   3.954   1.687   4.261
13081WAT     H139485   3.916   1.744   4.187
13081WAT     H239486   3.949   1.591   4.234
13082WAT      O39487   3.041   3.489   3.433
13082WAT     H139488   3.092   3.410   3.400
13082WAT     H239489   3.001   3.537   3.355
13083WAT      O39490   6.013   3.314   9.602
13083WAT     H139491   6.073   3.389   9.573
13083WAT     H239492   5.984   3.262   9.522
13084WAT      O39493   7.521   0.961   7.219
13084WAT     H139494   7.600   0.906   7.246
13084WAT     H239495   7.508   1.035   7.285
13085WAT      O39496   3.896   2.949   7.963
13085WAT     H139497   3.919   2.860   7.925
13085WAT     H239498   3.952   2.966   8.044
13086WAT      O39499   5.051   0.322   7.391
13086WAT     H139500   4.997   0.321   7.475
13086WAT     H239501   5.077   0.416   7.370
13087WAT      O39502   0.294   6.704   9.221
13087WAT     H139503   0.327   6.625   9.273
13087WAT     H239504   0.213   6.678   9.168
13088WAT      O39505   7.094   6.726   4.568
13088WAT     H139506   7.125   6.820   4.576
13088WAT     H239507   7.029   6.718   4.492
13089WAT      O39508   6.763   7.684   3.446
13089WAT     H139509   6.848   7.674   3.393
13089WAT     H239510   6.784   7.676   3.543
13090WAT      O39511   4.313   8.606   5.916
13090WAT     H139512   4.263   8.668   5.977
13090WAT     H239513   4.252   8.573   5.844
13091WAT      O39514   8.657   2.590   0.851
13091WAT     H139515   8.630   2.596   0.947
13091WAT     H239516   8.583   2.624   0.793
13092WAT      O39517   6.517   0.466   8.200
13092WAT     H139518   6.541   0.404   8.125
13092WAT     H239519   6.429   0.438   8.239
13093WAT      O39520   5.651   6.807   5.075
13093WAT     H139521   5.584   6.858   5.022
13093WAT     H239522   5.606   6.730   5.121
13094WAT      O39523   3.886   1.351   3.196
13094WAT     H139524   3.926   1.279   3.139
13094WAT     H239525   3.937   1.436   3.182
13095WAT      O39526   9.422   1.631   9.256
13095WAT     H139527   9.450   1.652   9.349
13095WAT     H239528   9.333   1.584   9.256
13096WAT      O39529   1.905   5.444   6.518
13096WAT     H139530   1.842   5.368   6.535
13096WAT     H239531   1.916   5.498   6.601
13097WAT      O39532   3.493   5.836   9.701
13097WAT     H139533   3.495   5.928   9.742
13097WAT     H239534   3.449   5.840   9.612
13098WAT      O39535   9.533   3.208   7.380
13098WAT     H139536   9.583   3.293   7.364
13098WAT     H239537   9.495   3.208   7.472
13099WAT      O39538   2.565   2.371   0.593
13099WAT     H139539   2.481   2.328   0.558
13099WAT     H239540   2.577   2.460   0.549
13100WAT      O39541   6.767   2.119   7.319
13100WAT     H139542   6.849   2.081   7.276
13100WAT     H239543   6.691   2.114   7.255
13101WAT      O39544   1.778   4.008   5.934
13101WAT     H139545   1.862   4.058   5.954
13101WAT     H239546   1.792   3.952   5.852
13102WAT      O39547   3.267   0.177   2.352
13102WAT     H139548   3.271   0.103   2.420
13102WAT     H239549   3.346   0.236   2.362
13103WAT      O39550   2.295   2.474   6.289
13103WAT     H139551   2.386   2.454   6.253
13103WAT     H239552   2.303   2.530   6.371
13104WAT      O39553   1.336   8.923   3.478
13104WAT     H139554   1.313   8.987   3.405
13104WAT     H239555   1.255   8.871   3.503
13105WAT      O39556   3.353   4.982   0.512
13105WAT     H139557   3.285   4.921   0.554
13105WAT     H239558   3.444   4.960   0.548
13106WAT      O39559   7.214   4.109   6.627
13106WAT     H139560   7.239   4.197   6.587
13106WAT     H239561   7.247   4.105   6.721
13107WAT      O39562   2.479   8.808   0.588
13107WAT     H139563   2.525   8.855   0.513
13107WAT     H239564   2.522   8.719   0.602
13108WAT      O39565   4.494   8.775   0.054
13108WAT     H139566   4.576   8.737   0.097
13108WAT     H239567   4.516   8.810  -0.037
13109WAT      O39568   0.092   0.240   9.703
13109WAT     H139569   0.046   0.239   9.792
13109WAT     H239570   0.170   0.178   9.704
13110WAT      O39571   9.553   8.305   6.009
13110WAT     H139572   9.477   8.304   6.074
13110WAT     H239573   9.519   8.275   5.919
13111WAT      O39574   5.805   1.898   0.027
13111WAT     H139575   5.811   1.807   0.068
13111WAT     H239576   5.837   1.966   0.093
13112WAT      O39577   6.039   9.310   2.523
13112WAT     H139578   6.068   9.217   2.546
13112WAT     H239579   6.080   9.374   2.587
13113WAT      O39580   9.788   5.343   1.477
13113WAT     H139581   9.696   5.309   1.495
13113WAT     H239582   9.804   5.427   1.529
13114WAT      O39583   9.391   4.436   6.097
13114WAT     H139584   9.395   4.438   6.197
13114WAT     H239585   9.460   4.499   6.060
13115WAT      O39586   4.907   2.246   0.658
13115WAT     H139587   4.928   2.212   0.566
13115WAT     H239588   4.917   2.172   0.724
13116WAT      O39589   2.190   3.088   6.008
13116WAT     H139590   2.141   3.027   5.945
13116WAT     H239591   2.159   3.071   6.101
13117WAT      O39592   2.800   5.062   6.860
13117WAT     H139593   2.835   5.133   6.798
13117WAT     H239594   2.827   5.082   6.954
13118WAT      O39595   3.295   5.048   8.351
13118WAT     H139596   3.215   5.006   8.393
13118WAT     H239597   3.378   5.014   8.395
13119WAT      O39598   3.595   0.926   9.142
13119WAT     H139599   3.510   0.926   9.090
13119WAT     H239600   3.668   0.966   9.087
13120WAT      O39601   4.365   3.838   2.616
13120WAT     H139602   4.322   3.760   2.662
13120WAT     H239603   4.353   3.920   2.671
13121WAT      O39604   3.295   0.395   1.417
13121WAT     H139605   3.365   0.407   1.488
13121WAT     H239606   3.303   0.470   1.351
13122WAT      O39607   1.892   2.543   6.410
13122WAT     H139608   1.949   2.624   6.421
13122WAT     H239609   1.913   2.478   6.483
13123WAT      O39610   0.199   3.597   2.918
13123WAT     H139611   0.257   3.661   2.866
13123WAT     H239612   0.244   3.575   3.005
13124WAT      O39613   9.321   8.273   2.964
13124WAT     H139614   9.317   8.188   2.912
13124WAT     H239615   9.357   8.346   2.906
13125WAT      O39616   7.171   4.391   4.402
13125WAT     H139617   7.220   4.447   4.335
13125WAT     H239618   7.237   4.338   4.456
13126WAT      O39619   5.563   1.178   5.958
13126WAT     H139620   5.645   1.127   5.983
13126WAT     H239621   5.589   1.256   5.900
13127WAT      O39622   7.713   5.865   6.594
13127WAT     H139623   7.741   5.958   6.568
13127WAT     H239624   7.613   5.861   6.598
13128WAT      O39625   7.002   2.193   6.864
13128WAT     H139626   6.979   2.290   6.866
13128WAT     H239627   6.940   2.145   6.801
13129WAT      O39628   7.983   3.911   8.386
13129WAT     H139629   8.027   3.847   8.322
13129WAT     H239630   8.049   3.939   8.456
13130WAT      O39631   2.865   1.926   6.568
13130WAT     H139632   2.840   1.829   6.562
13130WAT     H239633   2.955   1.940   6.528
13131WAT      O39634   6.741   0.993   5.220
13131WAT     H139635   6.741   1.067   5.153
13131WAT     H239636   6.680   1.017   5.296
13132WAT      O39637   9.544   1.806   1.591
13132WAT     H139638   9.503   1.741   1.526
13132WAT     H239639   9.476   1.875   1.615
13133WAT      O39640   4.552   2.495   8.514
13133WAT     H139641   4.608   2.575   8.490
13133WAT     H239642   4.588   2.455   8.599
13134WAT      O39643   7.977   2.620   8.805
13134WAT     H139644   8.050   2.567   8.762
13134WAT     H239645   8.004   2.716   8.809
13135WAT      O39646   2.860   6.729   6.080
13135WAT     H139647   2.777   6.676   6.099
13135WAT     H239648   2.936   6.666   6.063
13136WAT      O39649   5.465   0.503   3.448
13136WAT     H139650   5.503   0.590   3.416
13136WAT     H239651   5.365   0.508   3.447
13137WAT      O39652   8.266   8.436   1.054
13137WAT     H139653   8.327   8.485   1.116
13137WAT     H239654   8.246   8.345   1.093
13138WAT      O39655   8.519   8.274   0.414
13138WAT     H139656   8.427   8.312   0.408
13138WAT     H239657   8.559   8.294   0.503
13139WAT      O39658   3.211   1.102   3.880
13139WAT     H139659   3.252   1.104   3.971
13139WAT     H239660   3.153   1.182   3.868
13140WAT      O39661   0.919   1.111   0.263
13140WAT     H139662   0.944   1.116   0.166
13140WAT     H239663   0.917   1.016   0.293
13141WAT      O39664   0.750   8.131   7.774
13141WAT     H139665   0.653   8.155   7.775
13141WAT     H239666   0.764   8.043   7.820
13142WAT      O39667   3.720   9.114   4.885
13142WAT     H139668   3.686   9.080   4.797
13142WAT     H239669   3.819   9.102   4.889
13143WAT      O39670   1.701   5.061   9.594
13143WAT     H139671   1.616   5.111   9.578
13143WAT     H239672   1.680   4.966   9.619
13144WAT      O39673   7.884   1.123   1.637
13144WAT     H139674   7.801   1.097   1.587
13144WAT     H239675   7.914   1.213   1.606
13145WAT      O39676   9.657   1.799   7.738
13145WAT     H139677   9.642   1.761   7.829
13145WAT     H239678   9.700   1.889   7.746
13146WAT      O39679   1.514   7.390   0.108
13146WAT     H139680   1.586   7.407   0.175
13146WAT     H239681   1.425   7.414   0.148
13147WAT      O39682   1.324   0.442   1.380
13147WAT     H139683   1.409   0.402   1.346
13147WAT     H239684   1.314   0.535   1.344
13148WAT      O39685   2.120   1.597   1.779
13148WAT     H139686   2.056   1.582   1.704
13148WAT     H239687   2.122   1.516   1.837
13149WAT      O39688   9.224   5.872   5.741
13149WAT     H139689   9.284   5.870   5.821
13149WAT     H239690   9.128   5.868   5.770
13150WAT      O39691   8.955   6.029   7.281
13150WAT     H139692   8.858   6.020   7.259
13150WAT     H239693   8.992   6.109   7.234
13151WAT      O39694   3.295   5.689   0.372
13151WAT     H139695   3.206   5.692   0.326
13151WAT     H239696   3.282   5.667   0.468
13152WAT      O39697   6.173   5.850   6.023
13152WAT     H139698   6.127   5.939   6.024
13152WAT     H239699   6.257   5.855   6.077
13153WAT      O39700   9.571   0.703   7.744
13153WAT     H139701   9.625   0.670   7.667
13153WAT     H239702   9.548   0.625   7.803
13154WAT      O39703   8.265   4.115   2.874
13154WAT     H139704   8.227   4.205   2.853
13154WAT     H239705   8.316   4.081   2.795
13155WAT      O39706   5.935   2.886   4.612
13155WAT     H139707   5.860   2.919   4.670
13155WAT     H239708   6.004   2.958   4.603
13156WAT      O39709   6.660   8.027   5.850
13156WAT     H139710   6.704   8.063   5.768
13156WAT     H239711   6.690   8.080   5.930
13157WAT      O39712   3.041   0.588   0.380
13157WAT     H139713   3.126   0.602   0.431
13157WAT     H239714   2.973   0.655   0.409
13158WAT      O39715   6.269   4.447   3.618
13158WAT     H139716   6.299   4.515   3.552
13158WAT     H239717   6.265   4.488   3.709
13159WAT      O39718   2.692   9.175   8.683
13159WAT     H139719   2.674   9.235   8.761
13159WAT     H239720   2.790   9.165   8.671
13160WAT      O39721   1.343   3.102   7.954
13160WAT     H139722   1.285   3.144   7.885
13160WAT     H239723   1.301   3.018   7.988
13161WAT      O39724   5.667   6.334   8.827
13161WAT     H139725   5.655   6.261   8.760
13161WAT     H239726   5.731   6.304   8.898
13162WAT      O39727   1.938   4.983   2.521
13162WAT     H139728   1.844   4.996   2.490
13162WAT     H239729   1.939   4.961   2.619
13163WAT      O39730   2.007   0.594   5.482
13163WAT     H139731   2.067   0.606   5.561
13163WAT     H239732   2.038   0.652   5.407
13164WAT      O39733   0.648   5.623   3.880
13164WAT     H139734   0.590   5.700   3.906
13164WAT     H239735   0.702   5.593   3.958
13165WAT      O39736   7.056   7.715   5.117
13165WAT     H139737   7.100   7.794   5.159
13165WAT     H239738   6.961   7.709   5.147
13166WAT      O39739   3.910   2.916   4.859
13166WAT     H139740   3.966   2.833   4.850
13166WAT     H239741   3.901   2.960   4.770
13167WAT      O39742   1.944   7.288   6.079
13167WAT     H139743   2.014   7.356   6.100
13167WAT     H239744   1.985   7.196   6.079
13168WAT      O39745   1.823   7.919   6.830
13168WAT     H139746   1.900   7.974   6.864
13168WAT     H239747   1.857   7.830   6.801
13169WAT      O39748   3.343   0.017   6.511
13169WAT     H139749   3.277  -0.003   6.439
13169WAT     H239750   3.425   0.059   6.471
13170WAT      O39751   4.854   4.185   5.202
13170WAT     H139752   4.806   4.253   5.257
13170WAT     H239753   4.807   4.173   5.115
13171WAT      O39754   0.534   4.162   5.767
13171WAT     H139755   0.534   4.253   5.808
13171WAT     H239756   0.472   4.102   5.819
13172WAT      O39757   3.056   6.829   4.808
13172WAT     H139758   2.994   6.843   4.885
13172WAT     H239759   3.067   6.732   4.791
13173WAT      O39760   6.191   4.300   5.897
13173WAT     H139761   6.138   4.379   5.928
13173WAT     H239762   6.273   4.291   5.954
13174WAT      O39763   8.335   9.716   9.194
13174WAT     H139764   8.239   9.744   9.199
13174WAT     H239765   8.371   9.739   9.103
13175WAT      O39766   2.972   4.046   6.081
13175WAT     H139767   3.012   3.957   6.060
13175WAT     H239768   2.888   4.034   6.134
13176WAT      O39769   0.553   5.906   7.331
13176WAT     H139770   0.619   5.890   7.257
13176WAT     H239771   0.594   5.877   7.418
13177WAT      O39772   8.783   3.411   2.416
13177WAT     H139773   8.726   3.481   2.459
13177WAT     H239774   8.728   3.358   2.351
13178WAT      O39775   5.238   8.278   1.375
13178WAT     H139776   5.268   8.359   1.425
13178WAT     H239777   5.175   8.306   1.302
13179WAT      O39778   1.307   0.176   9.738
13179WAT     H139779   1.397   0.149   9.773
13179WAT     H239780   1.282   0.266   9.774
13180WAT      O39781   2.076   6.949   7.113
13180WAT     H139782   2.137   7.021   7.078
13180WAT     H239783   2.014   6.989   7.181
13181WAT      O39784   1.511   4.920   5.730
13181WAT     H139785   1.509   5.010   5.773
13181WAT     H239786   1.529   4.850   5.799
13182WAT      O39787   5.542   0.299   3.276
13182WAT     H139788   5.542   0.369   3.346
13182WAT     H239789   5.453   0.299   3.228
13183WAT      O39790   2.884   8.918   1.526
13183WAT     H139791   2.955   8.988   1.514
13183WAT     H239792   2.917   8.831   1.489
13184WAT      O39793   6.235   8.657   6.243
13184WAT     H139794   6.194   8.722   6.179
13184WAT     H239795   6.332   8.645   6.221
13185WAT      O39796   0.492   2.695   2.145
13185WAT     H139797   0.470   2.696   2.047
13185WAT     H239798   0.441   2.767   2.192
13186WAT      O39799   1.608   7.614   2.580
13186WAT     H139800   1.668   7.584   2.505
13186WAT     H239801   1.650   7.592   2.668
13187WAT      O39802   7.586   6.855   9.550
13187WAT     H139803   7.537   6.874   9.465
13187WAT     H239804   7.658   6.923   9.563
13188WAT      O39805   4.967   4.596   1.820
13188WAT     H139806   5.000   4.530   1.753
13188WAT     H239807   4.996   4.570   1.912
13189WAT      O39808   6.027   3.093   4.840
13189WAT     H139809   6.021   2.995   4.825
13189WAT     H239810   6.096   3.112   4.910
13190WAT      O39811   1.872   3.382   5.039
13190WAT     H139812   1.914   3.294   5.061
13190WAT     H239813   1.933   3.434   4.978
13191WAT      O39814   2.698   7.775   8.218
13191WAT     H139815   2.598   7.778   8.226
13191WAT     H239816   2.732   7.864   8.190
13192WAT      O39817   3.317   5.922   1.758
13192WAT     H139818   3.379   5.967   1.694
13192WAT     H239819   3.252   5.865   1.707
13193WAT      O39820   8.761   9.022   5.700
13193WAT     H139821   8.691   9.067   5.754
13193WAT     H239822   8.729   8.931   5.673
13194WAT      O39823   9.566   3.557   5.614
13194WAT     H139824   9.524   3.571   5.525
13194WAT     H239825   9.512   3.491   5.666
13195WAT      O39826   9.484   0.024   9.831
13195WAT     H139827   9.466  -0.053   9.769
13195WAT     H239828   9.529   0.098   9.781
13196WAT      O39829   3.776   9.613   2.291
13196WAT     H139830   3.798   9.702   2.331
13196WAT     H239831   3.767   9.622   2.191
13197WAT      O39832   2.217   3.587   7.849
13197WAT     H139833   2.254   3.503   7.810
13197WAT     H239834   2.205   3.655   7.776
13198WAT      O39835   2.112   0.675   3.277
13198WAT     H139836   2.179   0.602   3.268
13198WAT     H239837   2.066   0.689   3.189
13199WAT      O39838   8.122   2.329   7.048
13199WAT     H139839   8.127   2.268   7.127
13199WAT     H239840   8.027   2.358   7.035
13200WAT      O39841   8.589   2.169   9.298
13200WAT     H139842   8.629   2.121   9.220
13200WAT     H239843   8.662   2.210   9.353
13201WAT      O39844   3.020   8.017   0.069
13201WAT     H139845   2.977   7.950   0.008
13201WAT     H239846   2.987   8.109   0.045
13202WAT      O39847   6.650   6.934   5.126
13202WAT     H139848   6.661   6.913   5.029
13202WAT     H239849   6.563   6.898   5.159
13203WAT      O39850   3.458   6.068   9.804
13203WAT     H139851   3.404   6.028   9.878
13203WAT     H239852   3.418   6.156   9.777
13204WAT      O39853   8.907   3.314   3.976
13204WAT     H139854   8.896   3.243   4.045
13204WAT     H239855   8.925   3.402   4.021
13205WAT      O39856   3.311   6.638   5.349
13205WAT     H139857   3.308   6.663   5.446
13205WAT     H239858   3.392   6.679   5.307
13206WAT      O39859   9.407   9.160   6.948
13206WAT     H139860   9.447   9.136   7.036
13206WAT     H239861   9.336   9.229   6.961
13207WAT      O39862   6.536   8.131   5.271
13207WAT     H139863   6.628   8.103   5.298
13207WAT     H239864   6.541   8.202   5.201
13208WAT      O39865   3.826   0.734   3.152
13208WAT     H139866   3.858   0.660   3.213
13208WAT     H239867   3.828   0.821   3.202
13209WAT      O39868   4.365   0.891   3.587
13209WAT     H139869   4.452   0.844   3.598
13209WAT     H239870   4.379   0.989   3.599
13210WAT      O39871   2.219   1.062   6.191
13210WAT     H139872   2.125   1.057   6.156
13210WAT     H239873   2.249   1.158   6.191
13211WAT      O39874   1.753   7.143   4.503
13211WAT     H139875   1.795   7.121   4.592
13211WAT     H239876   1.825   7.169   4.438
13212WAT      O39877   4.514   4.244   4.361
13212WAT     H139878   4.526   4.327   4.307
13212WAT     H239879   4.565   4.168   4.319
13213WAT      O39880   5.860   5.791   0.952
13213WAT     H139881   5.956   5.770   0.973
13213WAT     H239882   5.805   5.708   0.956
13214WAT      O39883   3.165   2.093   4.565
13214WAT     H139884   3.261   2.116   4.579
13214WAT     H239885   3.156   1.994   4.554
13215WAT      O39886   4.389   6.561   0.444
13215WAT     H139887   4.482   6.578   0.410
13215WAT     H239888   4.367   6.627   0.516
13216WAT      O39889   2.972   2.791   4.627
13216WAT     H139890   2.912   2.869   4.610
13216WAT     H239891   2.940   2.741   4.708
13217WAT      O39892   2.310   4.669   3.867
13217WAT     H139893   2.285   4.589   3.922
13217WAT     H239894   2.370   4.728   3.919
13218WAT      O39895   8.396   0.377   6.735
13218WAT     H139896   8.311   0.371   6.788
13218WAT     H239897   8.474   0.377   6.797
13219WAT      O39898   6.813   4.878   5.150
13219WAT     H139899   6.739   4.831   5.101
13219WAT     H239900   6.774   4.928   5.228
13220WAT      O39901   5.629   4.965   7.692
13220WAT     H139902   5.557   4.978   7.759
13220WAT     H239903   5.700   5.034   7.706
13221WAT      O39904   3.736   7.729   3.492
13221WAT     H139905   3.809   7.779   3.540
13221WAT     H239906   3.668   7.699   3.559
13222WAT      O39907   8.211   2.597   9.486
13222WAT     H139908   8.162   2.658   9.549
13222WAT     H239909   8.275   2.649   9.431
13223WAT      O39910   9.839   7.438   2.005
13223WAT     H139911   9.892   7.464   2.086
13223WAT     H239912   9.750   7.483   2.009
13224WAT      O39913   3.005   8.181   3.592
13224WAT     H139914   2.941   8.162   3.667
13224WAT     H239915   3.090   8.217   3.629
13225WAT      O39916   0.935   5.784   3.647
13225WAT     H139917   0.991   5.762   3.727
13225WAT     H239918   0.947   5.880   3.623
13226WAT      O39919   8.382   1.575   8.965
13226WAT     H139920   8.322   1.610   8.892
13226WAT     H239921   8.327   1.521   9.029
13227WAT      O39922   0.373   2.661   2.979
13227WAT     H139923   0.400   2.711   2.897
13227WAT     H239924   0.339   2.725   3.048
13228WAT      O39925   9.373   2.743   4.120
13228WAT     H139926   9.351   2.841   4.119
13228WAT     H239927   9.471   2.731   4.103
13229WAT      O39928   9.728   4.706   6.670
13229WAT     H139929   9.704   4.726   6.575
13229WAT     H239930   9.815   4.656   6.673
13230WAT      O39931   2.552   8.588   7.137
13230WAT     H139932   2.554   8.678   7.181
13230WAT     H239933   2.525   8.598   7.041
13231WAT      O39934   4.085   2.188   8.960
13231WAT     H139935   4.036   2.113   8.915
13231WAT     H239936   4.178   2.193   8.924
13232WAT      O39937   5.931   3.814   3.245
13232WAT     H139938   5.893   3.738   3.192
13232WAT     H239939   6.030   3.817   3.232
13233WAT      O39940   4.164   8.209   1.577
13233WAT     H139941   4.227   8.189   1.501
13233WAT     H239942   4.085   8.259   1.542
13234WAT      O39943   2.981   2.879   7.414
13234WAT     H139944   2.945   2.920   7.330
13234WAT     H239945   3.016   2.951   7.474
13235WAT      O39946   2.969   0.351   4.684
13235WAT     H139947   3.051   0.340   4.739
13235WAT     H239948   2.891   0.309   4.732
13236WAT      O39949   4.931   5.978   0.848
13236WAT     H139950   4.958   5.884   0.869
13236WAT     H239951   4.921   5.989   0.749
13237WAT      O39952   8.984   5.939   4.164
13237WAT     H139953   9.031   5.986   4.239
13237WAT     H239954   8.987   5.995   4.082
13238WAT      O39955   9.172   1.897   5.666
13238WAT     H139956   9.135   1.804   5.660
13238WAT     H239957   9.131   1.955   5.596
13239WAT      O39958   1.804   1.923   2.188
13239WAT     H139959   1.801   1.932   2.287
13239WAT     H239960   1.870   1.852   2.162
13240WAT      O39961   9.032   1.701   0.443
13240WAT     H139962   9.102   1.748   0.497
13240WAT     H239963   9.063   1.609   0.421
13241WAT      O39964   0.647   7.886   2.834
13241WAT     H139965   0.739   7.910   2.866
13241WAT     H239966   0.621   7.797   2.870
13242WAT      O39967   6.266   7.426   5.401
13242WAT     H139968   6.262   7.439   5.500
13242WAT     H239969   6.174   7.425   5.363
13243WAT      O39970   1.519   3.535   8.570
13243WAT     H139971   1.450   3.466   8.548
13243WAT     H239972   1.494   3.580   8.656
13244WAT      O39973   5.790   1.475   4.258
13244WAT     H139974   5.784   1.545   4.328
13244WAT     H239975   5.870   1.418   4.274
13245WAT      O39976   9.677   5.508   8.292
13245WAT     H139977   9.673   5.537   8.197
13245WAT     H239978   9.770   5.519   8.327
13246WAT      O39979   4.471   3.609   7.085
13246WAT     H139980   4.563   3.611   7.124
13246WAT     H239981   4.418   3.687   7.121
13247WAT      O39982   5.451   8.251   0.182
13247WAT     H139983   5.402   8.185   0.125
13247WAT     H239984   5.446   8.342   0.141
13248WAT      O39985   1.473   3.248   4.875
13248WAT     H139986   1.450   3.275   4.969
13248WAT     H239987   1.449   3.151   4.862
13249WAT      O39988   1.663   9.031   5.825
13249WAT     H139989   1.698   8.944   5.860
13249WAT     H239990   1.564   9.035   5.838
13250WAT      O39991   6.990   8.091   7.123
13250WAT     H139992   7.032   8.000   7.118
13250WAT     H239993   6.952   8.106   7.214
13251WAT      O39994   4.338   6.567   5.142
13251WAT     H139995   4.249   6.611   5.128
13251WAT     H239996   4.328   6.469   5.126
13252WAT      O39997   4.180   0.017   1.522
13252WAT     H139998   4.122   0.070   1.460
13252WAT     H239999   4.251  -0.029   1.468
13253WAT      O40000   8.101   2.384   1.197
13253WAT     H140001   8.086   2.476   1.231
13253WAT     H240002   8.125   2.388   1.100
13254WAT      O40003   6.760   7.779   2.037
13254WAT     H140004   6.828   7.764   2.109
13254WAT     H240005   6.789   7.734   1.953
13255WAT      O40006   0.795   0.672   6.086
13255WAT     H140007   0.796   0.685   5.987
13255WAT     H240008   0.739   0.743   6.129
13256WAT      O40009   6.038   2.673   3.745
13256WAT     H140010   5.976   2.708   3.675
13256WAT     H240011   6.133   2.685   3.714
13257WAT      O40012   1.137   4.921   2.816
13257WAT     H140013   1.152   4.879   2.727
13257WAT     H240014   1.220   4.915   2.871
13258WAT      O40015   7.232   8.322   8.600
13258WAT     H140016   7.138   8.346   8.624
13258WAT     H240017   7.247   8.339   8.502
13259WAT      O40018   0.860   9.305   1.238
13259WAT     H140019   0.837   9.402   1.243
13259WAT     H240020   0.955   9.294   1.212
13260WAT      O40021   6.023   2.743   7.104
13260WAT     H140022   6.063   2.814   7.047
13260WAT     H240023   6.000   2.780   7.194
13261WAT      O40024   6.570   7.313   2.802
13261WAT     H140025   6.569   7.413   2.811
13261WAT     H240026   6.596   7.272   2.890
13262WAT      O40027   7.775   9.249   0.678
13262WAT     H140028   7.846   9.264   0.746
13262WAT     H240029   7.723   9.167   0.702
13263WAT      O40030   6.368   5.230   8.818
13263WAT     H140031   6.454   5.251   8.864
13263WAT     H240032   6.385   5.210   8.722
13264WAT      O40033   3.356   5.659   5.106
13264WAT     H140034   3.319   5.695   5.021
13264WAT     H240035   3.281   5.628   5.165
13265WAT      O40036   9.822   2.586   1.637
13265WAT     H140037   9.878   2.605   1.717
13265WAT     H240038   9.772   2.669   1.611
13266WAT      O40039   7.721   6.193   3.643
13266WAT     H140040   7.778   6.244   3.707
13266WAT     H240041   7.750   6.214   3.549
13267WAT      O40042   7.081   0.513   4.742
13267WAT     H140043   7.117   0.431   4.785
13267WAT     H240044   6.981   0.508   4.740
13268WAT      O40045   7.314   7.101   8.947
13268WAT     H140046   7.287   7.120   9.042
13268WAT     H240047   7.246   7.140   8.885
13269WAT      O40048   3.939   4.319   2.816
13269WAT     H140049   3.963   4.288   2.908
13269WAT     H240050   3.910   4.241   2.761
13270WAT      O40051   2.520   2.253   1.699
13270WAT     H140052   2.549   2.253   1.795
13270WAT     H240053   2.492   2.161   1.673
13271WAT      O40054   5.248   9.075   1.286
13271WAT     H140055   5.251   9.133   1.367
13271WAT     H240056   5.310   8.998   1.298
13272WAT      O40057   8.115   2.910   4.209
13272WAT     H140058   8.133   3.006   4.227
13272WAT     H240059   8.088   2.899   4.113
13273WAT      O40060   8.248   4.951   1.425
13273WAT     H140061   8.260   4.863   1.472
13273WAT     H240062   8.337   4.983   1.393
13274WAT      O40063   1.038   8.567   0.493
13274WAT     H140064   1.011   8.488   0.439
13274WAT     H240065   0.958   8.623   0.513
13275WAT      O40066   3.516   2.122   6.771
13275WAT     H140067   3.497   2.206   6.721
13275WAT     H240068   3.538   2.144   6.866
13276WAT      O40069   4.591   4.143   9.564
13276WAT     H140070   4.633   4.083   9.495
13276WAT     H240071   4.658   4.209   9.596
13277WAT      O40072   1.886   6.792   8.615
13277WAT     H140073   1.970   6.797   8.561
13277WAT     H240074   1.898   6.843   8.700
13278WAT      O40075   0.062   4.029   0.372
13278WAT     H140076  -0.035   4.025   0.393
13278WAT     H240077   0.102   3.938   0.381
13279WAT      O40078   9.526   3.609   0.764
13279WAT     H140079   9.453   3.554   0.723
13279WAT     H240080   9.508   3.622   0.861
13280WAT      O40081   9.844   9.758   5.754
13280WAT     H140082   9.920   9.816   5.725
13280WAT     H240083   9.856   9.666   5.717
13281WAT      O40084   0.569   1.074   7.415
13281WAT     H140085   0.484   1.047   7.460
13281WAT     H240086   0.604   1.157   7.459
13282WAT      O40087   0.685   6.855   7.496
13282WAT     H140088   0.771   6.807   7.511
13282WAT     H240089   0.649   6.832   7.406
13283WAT      O40090   6.189   5.310   1.446
13283WAT     H140091   6.266   5.253   1.475
13283WAT     H240092   6.175   5.301   1.348
13284WAT      O40093   9.813   9.695   2.953
13284WAT     H140094   9.846   9.789   2.946
13284WAT     H240095   9.791   9.660   2.861
13285WAT      O40096   5.888   8.312   2.579
13285WAT     H140097   5.807   8.275   2.534
13285WAT     H240098   5.913   8.253   2.656
13286WAT      O40099   6.433   1.735   2.773
13286WAT     H140100   6.472   1.814   2.819
13286WAT     H240101   6.503   1.692   2.715
13287WAT      O40102   1.751   6.451   0.739
13287WAT     H140103   1.781   6.356   0.756
13287WAT     H240104   1.651   6.455   0.741
13288WAT      O40105   0.246   0.755   3.797
13288WAT     H140106   0.330   0.730   3.749
13288WAT     H240107   0.209   0.838   3.756
13289WAT      O40108   1.389   5.565   8.261
13289WAT     H140109   1.299   5.605   8.278
13289WAT     H240110   1.428   5.604   8.177
13290WAT      O40111   5.151   5.577   2.306
13290WAT     H140112   5.225   5.533   2.356
13290WAT     H240113   5.174   5.581   2.208
13291WAT      O40114   4.272   1.437   2.820
13291WAT     H140115   4.221   1.351   2.819
13291WAT     H240116   4.212   1.512   2.846
13292WAT      O40117   7.989   8.721   9.844
13292WAT     H140118   8.069   8.769   9.809
13292WAT     H240119   7.992   8.721   9.944
13293WAT      O40120   0.351   6.096   7.750
13293WAT     H140121   0.415   6.148   7.694
13293WAT     H240122   0.264   6.086   7.700
13294WAT      O40123   3.074   8.814   7.518
13294WAT     H140124   3.118   8.784   7.603
13294WAT     H240125   3.137   8.871   7.466
13295WAT      O40126   3.258   7.054   1.535
13295WAT     H140127   3.243   7.103   1.449
13295WAT     H240128   3.172   7.048   1.586
13296WAT      O40129   7.970   1.925   3.053
13296WAT     H140130   8.062   1.943   3.019
13296WAT     H240131   7.968   1.834   3.096
13297WAT      O40132   9.784   9.739   0.270
13297WAT     H140133   9.703   9.698   0.228
13297WAT     H240134   9.790   9.835   0.243
13298WAT      O40135   7.228   3.764   8.328
13298WAT     H140136   7.173   3.822   8.268
13298WAT     H240137   7.172   3.732   8.404
13299WAT      O40138   3.981   7.656   4.141
13299WAT     H140139   3.940   7.733   4.190
13299WAT     H240140   4.071   7.636   4.180
13300WAT      O40141   7.008   7.222   8.570
13300WAT     H140142   7.088   7.168   8.544
13300WAT     H240143   7.017   7.252   8.664
13301WAT      O40144   5.108   0.222   6.178
13301WAT     H140145   5.084   0.256   6.087
13301WAT     H240146   5.054   0.140   6.198
13302WAT      O40147   9.824   3.706   2.946
13302WAT     H140148   9.916   3.668   2.930
13302WAT     H240149   9.785   3.666   3.029
13303WAT      O40150   0.405   1.408   4.983
13303WAT     H140151   0.386   1.463   5.064
13303WAT     H240152   0.319   1.388   4.936
13304WAT      O40153   2.301   2.839   1.191
13304WAT     H140154   2.311   2.757   1.248
13304WAT     H240155   2.241   2.904   1.237
13305WAT      O40156   9.445   7.681   6.145
13305WAT     H140157   9.485   7.597   6.182
13305WAT     H240158   9.516   7.751   6.140
13306WAT      O40159   7.016   2.523   7.801
13306WAT     H140160   7.105   2.565   7.821
13306WAT     H240161   6.993   2.459   7.874
13307WAT      O40162   2.752   1.574   8.637
13307WAT     H140163   2.792   1.504   8.696
13307WAT     H240164   2.773   1.553   8.541
13308WAT      O40165   9.088   4.749   6.444
13308WAT     H140166   9.148   4.703   6.509
13308WAT     H240167   9.123   4.735   6.352
13309WAT      O40168   7.904   3.959   5.693
13309WAT     H140169   7.844   3.880   5.703
13309WAT     H240170   7.850   4.043   5.702
13310WAT      O40171   0.327   6.802   7.245
13310WAT     H140172   0.275   6.720   7.268
13310WAT     H240173   0.264   6.875   7.218
13311WAT      O40174   7.832   0.980   5.950
13311WAT     H140175   7.824   1.076   5.925
13311WAT     H240176   7.823   0.922   5.869
13312WAT      O40177   9.711   0.083   0.959
13312WAT     H140178   9.761   0.119   1.038
13312WAT     H240179   9.771   0.021   0.907
13313WAT      O40180   8.267   0.064   2.699
13313WAT     H140181   8.359   0.095   2.675
13313WAT     H240182   8.262  -0.036   2.692
13314WAT      O40183   3.706   2.098   8.230
13314WAT     H140184   3.691   2.079   8.327
13314WAT     H240185   3.771   2.173   8.220
13315WAT      O40186   3.015   0.259   6.950
13315WAT     H140187   2.916   0.256   6.946
13315WAT     H240188   3.053   0.184   6.895
13316WAT      O40189   0.675   1.942   5.530
13316WAT     H140190   0.581   1.942   5.496
13316WAT     H240191   0.707   2.036   5.539
13317WAT      O40192   2.527   2.357   8.092
13317WAT     H140193   2.536   2.266   8.132
13317WAT     H240194   2.557   2.355   7.997
13318WAT      O40195   9.606   7.914   5.641
13318WAT     H140196   9.509   7.934   5.650
13318WAT     H240197   9.635   7.926   5.546
13319WAT      O40198   8.939   6.693   5.012
13319WAT     H140199   8.945   6.626   5.086
13319WAT     H240200   8.868   6.665   4.948
13320WAT      O40201   4.263   4.873   5.184
13320WAT     H140202   4.282   4.885   5.087
13320WAT     H240203   4.262   4.962   5.230
13321WAT      O40204   4.326   0.356   5.543
13321WAT     H140205   4.351   0.443   5.585
13321WAT     H240206   4.393   0.286   5.569
13322WAT      O40207   2.825   7.626   8.013
13322WAT     H140208   2.906   7.574   8.041
13322WAT     H240209   2.779   7.661   8.094
13323WAT      O40210   5.881   2.984   3.241
13323WAT     H140211   5.919   3.076   3.254
13323WAT     H240212   5.781   2.989   3.245
13324WAT      O40213   0.856   5.655   1.488
13324WAT     H140214   0.761   5.631   1.509
13324WAT     H240215   0.896   5.706   1.564
13325WAT      O40216   1.273   5.754   8.512
13325WAT     H140217   1.218   5.824   8.558
13325WAT     H240218   1.225   5.667   8.514
13326WAT      O40219   8.880   6.415   4.128
13326WAT     H140220   8.788   6.392   4.095
13326WAT     H240221   8.876   6.438   4.225
13327WAT      O40222   5.170   9.476   8.416
13327WAT     H140223   5.268   9.480   8.434
13327WAT     H240224   5.122   9.447   8.498
13328WAT      O40225   5.818   2.199   0.490
13328WAT     H140226   5.865   2.267   0.547
13328WAT     H240227   5.723   2.190   0.519
13329WAT      O40228   7.341   5.152   5.660
13329WAT     H140229   7.354   5.179   5.756
13329WAT     H240230   7.252   5.109   5.650
13330WAT      O40231   9.295   4.136   9.670
13330WAT     H140232   9.272   4.043   9.643
13330WAT     H240233   9.311   4.192   9.589
13331WAT      O40234   4.941   1.403   2.176
13331WAT     H140235   4.953   1.477   2.110
13331WAT     H240236   5.019   1.340   2.171
13332WAT      O40237   2.908   6.625   3.749
13332WAT     H140238   2.813   6.596   3.748
13332WAT     H240239   2.915   6.718   3.713
13333WAT      O40240   4.874   8.004   1.969
13333WAT     H140241   4.805   8.074   1.989
13333WAT     H240242   4.828   7.921   1.936
13334WAT      O40243   7.420   7.576   0.208
13334WAT     H140244   7.452   7.663   0.246
13334WAT     H240245   7.422   7.582   0.108
13335WAT      O40246   4.298   5.534   3.432
13335WAT     H140247   4.302   5.522   3.332
13335WAT     H240248   4.335   5.453   3.476
13336WAT      O40249   6.565   6.191   8.968
13336WAT     H140250   6.605   6.280   8.988
13336WAT     H240251   6.471   6.203   8.938
13337WAT      O40252   3.378   3.450   7.586
13337WAT     H140253   3.469   3.457   7.628
13337WAT     H240254   3.351   3.354   7.581
13338WAT      O40255   8.967   6.745   7.341
13338WAT     H140256   9.062   6.763   7.368
13338WAT     H240257   8.910   6.823   7.364
13339WAT      O40258   1.831   9.712   5.604
13339WAT     H140259   1.917   9.663   5.594
13339WAT     H240260   1.760   9.649   5.637
13340WAT      O40261   9.143   4.040   1.716
13340WAT     H140262   9.182   4.127   1.686
13340WAT     H240263   9.211   3.990   1.770
13341WAT      O40264   7.769   5.524   4.614
13341WAT     H140265   7.740   5.613   4.650
13341WAT     H240266   7.721   5.505   4.529
13342WAT      O40267   1.216   2.665   1.340
13342WAT     H140268   1.149   2.603   1.300
13342WAT     H240269   1.215   2.654   1.440
13343WAT      O40270   8.049   4.437   9.392
13343WAT     H140271   8.076   4.510   9.455
13343WAT     H240272   8.124   4.372   9.381
13344WAT      O40273   6.210   7.342   5.742
13344WAT     H140274   6.271   7.390   5.805
13344WAT     H240275   6.240   7.247   5.732
13345WAT      O40276   0.663   1.301   7.533
13345WAT     H140277   0.619   1.390   7.541
13345WAT     H240278   0.742   1.308   7.472
13346WAT      O40279   4.728   3.522   8.281
13346WAT     H140280   4.810   3.545   8.230
13346WAT     H240281   4.663   3.598   8.277
13347WAT      O40282   2.644   3.556   2.726
13347WAT     H140283   2.619   3.512   2.640
13347WAT     H240284   2.743   3.566   2.731
13348WAT      O40285   3.278   8.666   3.795
13348WAT     H140286   3.221   8.596   3.753
13348WAT     H240287   3.248   8.682   3.889
13349WAT      O40288   1.694   2.170   1.110
13349WAT     H140289   1.680   2.129   1.200
13349WAT     H240290   1.716   2.267   1.120
13350WAT      O40291   8.741   0.067   8.620
13350WAT     H140292   8.753  -0.003   8.692
13350WAT     H240293   8.768   0.028   8.532
13351WAT      O40294   3.461   1.992   1.229
13351WAT     H140295   3.489   1.927   1.300
13351WAT     H240296   3.430   1.942   1.149
13352WAT      O40297   0.197   7.090   4.826
13352WAT     H140298   0.192   7.008   4.883
13352WAT     H240299   0.112   7.100   4.775
13353WAT      O40300   3.555   4.781   9.393
13353WAT     H140301   3.611   4.854   9.433
13353WAT     H240302   3.614   4.708   9.359
13354WAT      O40303   8.372   1.968   0.254
13354WAT     H140304   8.398   1.890   0.311
13354WAT     H240305   8.454   2.013   0.218
13355WAT      O40306   3.595   6.110   8.414
13355WAT     H140307   3.540   6.085   8.334
13355WAT     H240308   3.536   6.119   8.494
13356WAT      O40309   0.991   2.719   3.971
13356WAT     H140310   1.068   2.768   3.930
13356WAT     H240311   1.022   2.672   4.054
13357WAT      O40312   8.897   3.709   9.610
13357WAT     H140313   8.856   3.644   9.674
13357WAT     H240314   8.851   3.702   9.522
13358WAT      O40315   2.577   3.041   3.128
13358WAT     H140316   2.499   3.103   3.123
13358WAT     H240317   2.649   3.083   3.182
13359WAT      O40318   9.237   2.255   3.553
13359WAT     H140319   9.148   2.216   3.530
13359WAT     H240320   9.306   2.183   3.551
13360WAT      O40321   5.876   0.751   3.768
13360WAT     H140322   5.831   0.840   3.778
13360WAT     H240323   5.840   0.704   3.688
13361WAT      O40324   4.052   5.390   4.572
13361WAT     H140325   4.041   5.334   4.490
13361WAT     H240326   4.039   5.486   4.550
13362WAT      O40327   7.623   7.580   8.608
13362WAT     H140328   7.543   7.520   8.611
13362WAT     H240329   7.654   7.600   8.701
13363WAT      O40330   9.531   0.203   1.227
13363WAT     H140331   9.447   0.206   1.280
13363WAT     H240332   9.527   0.129   1.161
13364WAT      O40333   0.492   1.632   6.605
13364WAT     H140334   0.426   1.696   6.566
13364WAT     H240335   0.448   1.577   6.675
13365WAT      O40336   0.605   7.619   2.937
13365WAT     H140337   0.628   7.667   3.022
13365WAT     H240338   0.674   7.550   2.918
13366WAT      O40339   7.384   2.019   9.710
13366WAT     H140340   7.357   2.067   9.626
13366WAT     H240341   7.344   1.927   9.710
13367WAT      O40342   4.293   9.337   3.649
13367WAT     H140343   4.326   9.424   3.614
13367WAT     H240344   4.368   9.286   3.691
13368WAT      O40345   9.692   3.788   2.714
13368WAT     H140346   9.598   3.813   2.734
13368WAT     H240347   9.738   3.759   2.798
13369WAT      O40348   7.139   5.664   9.167
13369WAT     H140349   7.231   5.645   9.199
13369WAT     H240350   7.083   5.698   9.243
13370WAT      O40351   8.336   7.344   9.284
13370WAT     H140352   8.402   7.413   9.314
13370WAT     H240353   8.294   7.374   9.198
13371WAT      O40354   0.711   4.483   5.521
13371WAT     H140355   0.618   4.449   5.536
13371WAT     H240356   0.733   4.550   5.592
13372WAT      O40357   2.719   3.913   2.516
13372WAT     H140358   2.714   4.011   2.538
13372WAT     H240359   2.779   3.868   2.582
13373WAT      O40360   6.184   8.369   6.452
13373WAT     H140361   6.168   8.325   6.540
13373WAT     H240362   6.141   8.459   6.451
13374WAT      O40363   8.369   0.398   0.228
13374WAT     H140364   8.441   0.425   0.165
13374WAT     H240365   8.374   0.300   0.245
13375WAT      O40366   8.590   3.453   7.200
13375WAT     H140367   8.530   3.373   7.196
13375WAT     H240368   8.677   3.427   7.242
13376WAT      O40369   7.583   3.721   4.623
13376WAT     H140370   7.678   3.751   4.616
13376WAT     H240371   7.579   3.621   4.621
13377WAT      O40372   4.924   5.322   5.466
13377WAT     H140373   5.000   5.387   5.473
13377WAT     H240374   4.859   5.353   5.396
13378WAT      O40375   3.705   9.091   3.987
13378WAT     H140376   3.618   9.120   4.027
13378WAT     H240377   3.745   9.167   3.937
13379WAT      O40378   1.350   8.418   1.154
13379WAT     H140379   1.382   8.337   1.106
13379WAT     H240380   1.428   8.466   1.194
13380WAT      O40381   4.914   0.949   1.981
13380WAT     H140382   4.911   0.859   2.023
13380WAT     H240383   4.901   1.019   2.051
13381WAT      O40384   7.555   0.975   6.358
13381WAT     H140385   7.595   1.042   6.421
13381WAT     H240386   7.628   0.927   6.309
13382WAT      O40387   8.114   8.002   5.270
13382WAT     H140388   8.172   8.037   5.196
13382WAT     H240389   8.128   7.903   5.280
13383WAT      O40390   7.157   6.124   0.249
13383WAT     H140391   7.076   6.182   0.252
13383WAT     H240392   7.239   6.182   0.247
13384WAT      O40393   3.392   5.372   7.057
13384WAT     H140394   3.484   5.361   7.018
13384WAT     H240395   3.325   5.374   6.983
13385WAT      O40396   3.160   7.364   5.390
13385WAT     H140397   3.258   7.385   5.399
13385WAT     H240398   3.106   7.443   5.421
13386WAT      O40399   4.402   2.881   7.117
13386WAT     H140400   4.372   2.884   7.022
13386WAT     H240401   4.327   2.906   7.177
13387WAT      O40402   6.128   7.751   4.277
13387WAT     H140403   6.100   7.830   4.332
13387WAT     H240404   6.224   7.762   4.250
13388WAT      O40405   0.160   3.260   3.707
13388WAT     H140406   0.217   3.340   3.723
13388WAT     H240407   0.218   3.179   3.695
13389WAT      O40408   0.687   1.142   9.544
13389WAT     H140409   0.743   1.222   9.520
13389WAT     H240410   0.593   1.171   9.559
13390WAT      O40411   1.486   9.813   5.704
13390WAT     H140412   1.530   9.903   5.705
13390WAT     H240413   1.554   9.743   5.686
13391WAT      O40414   1.525   0.969   7.629
13391WAT     H140415   1.530   0.887   7.686
13391WAT     H240416   1.556   0.947   7.537
13392WAT      O40417   2.879   1.409   6.551
13392WAT     H140418   2.973   1.392   6.580
13392WAT     H240419   2.862   1.361   6.465
13393WAT      O40420   8.671   5.762   0.878
13393WAT     H140421   8.633   5.853   0.897
13393WAT     H240422   8.700   5.757   0.782
13394WAT      O40423   7.619   2.568   0.335
13394WAT     H140424   7.705   2.524   0.308
13394WAT     H240425   7.576   2.609   0.255
13395WAT      O40426   6.110   1.758   4.026
13395WAT     H140427   6.193   1.814   4.032
13395WAT     H240428   6.095   1.711   4.113
13396WAT      O40429   0.704   9.613   3.405
13396WAT     H140430   0.611   9.651   3.404
13396WAT     H240431   0.701   9.518   3.437
13397WAT      O40432   0.333   5.306   7.800
13397WAT     H140433   0.411   5.268   7.752
13397WAT     H240434   0.335   5.406   7.793
13398WAT      O40435   4.768   7.518   2.400
13398WAT     H140436   4.834   7.499   2.472
13398WAT     H240437   4.730   7.610   2.412
13399WAT      O40438   0.459   9.311   8.493
13399WAT     H140439   0.433   9.300   8.397
13399WAT     H240440   0.438   9.405   8.523
13400WAT      O40441   1.257   5.590   2.578
13400WAT     H140442   1.312   5.507   2.588
13400WAT     H240443   1.281   5.655   2.651
13401WAT      O40444   3.734   2.774   8.918
13401WAT     H140445   3.665   2.732   8.859
13401WAT     H240446   3.820   2.782   8.868
13402WAT      O40447   9.364   3.534   9.848
13402WAT     H140448   9.382   3.597   9.771
13402WAT     H240449   9.343   3.443   9.812
13403WAT      O40450   2.990   5.451   0.087
13403WAT     H140451   3.088   5.443   0.106
13403WAT     H240452   2.971   5.416  -0.004
13404WAT      O40453   8.580   1.896   0.797
13404WAT     H140454   8.480   1.892   0.797
13404WAT     H240455   8.616   1.808   0.767
13405WAT      O40456   5.825   2.392   4.197
13405WAT     H140457   5.918   2.398   4.161
13405WAT     H240458   5.822   2.427   4.290
13406WAT      O40459   0.157   5.639   3.010
13406WAT     H140460   0.226   5.710   3.000
13406WAT     H240461   0.147   5.616   3.107
13407WAT      O40462   9.365   9.220   5.034
13407WAT     H140463   9.366   9.317   5.058
13407WAT     H240464   9.275   9.181   5.055
13408WAT      O40465   9.781   4.758   9.298
13408WAT     H140466   9.809   4.781   9.391
13408WAT     H240467   9.782   4.658   9.286
13409WAT      O40468   8.206   4.908   9.591
13409WAT     H140469   8.159   4.995   9.607
13409WAT     H240470   8.247   4.908   9.500
13410WAT      O40471   4.225   7.328   0.504
13410WAT     H140472   4.135   7.289   0.520
13410WAT     H240473   4.254   7.309   0.410
13411WAT      O40474   8.441   3.163   3.238
13411WAT     H140475   8.343   3.150   3.251
13411WAT     H240476   8.468   3.127   3.148
13412WAT      O40477   2.128   2.346   7.595
13412WAT     H140478   2.119   2.250   7.567
13412WAT     H240479   2.097   2.405   7.521
13413WAT      O40480   6.764   4.530   1.153
13413WAT     H140481   6.680   4.562   1.197
13413WAT     H240482   6.760   4.431   1.139
13414WAT      O40483   0.476   5.135   1.019
13414WAT     H140484   0.415   5.143   0.940
13414WAT     H240485   0.498   5.226   1.054
13415WAT      O40486   6.587   4.894   7.529
13415WAT     H140487   6.546   4.803   7.529
13415WAT     H240488   6.565   4.940   7.442
13416WAT      O40489   6.605   3.442   5.734
13416WAT     H140490   6.566   3.436   5.826
13416WAT     H240491   6.533   3.432   5.666
13417WAT      O40492   0.591   7.043   9.619
13417WAT     H140493   0.510   7.024   9.675
13417WAT     H240494   0.564   7.099   9.540
13418WAT      O40495   6.491   2.620   4.258
13418WAT     H140496   6.564   2.622   4.326
13418WAT     H240497   6.416   2.564   4.291
13419WAT      O40498   5.284   8.477   5.656
13419WAT     H140499   5.261   8.405   5.720
13419WAT     H240500   5.276   8.566   5.701
13420WAT      O40501   3.656   2.704   6.124
13420WAT     H140502   3.744   2.728   6.082
13420WAT     H240503   3.667   2.699   6.224
13421WAT      O40504   1.228   4.931   9.474
13421WAT     H140505   1.211   5.030   9.483
13421WAT     H240506   1.287   4.915   9.395
13422WAT      O40507   2.853   7.406   8.922
13422WAT     H140508   2.853   7.468   8.844
13422WAT     H240509   2.790   7.330   8.904
13423WAT      O40510   0.849   6.436   9.708
13423WAT     H140511   0.830   6.459   9.612
13423WAT     H240512   0.930   6.486   9.739
13424WAT      O40513   6.543   1.496   7.010
13424WAT     H140514   6.469   1.532   7.068
13424WAT     H240515   6.630   1.535   7.038
13425WAT      O40516   8.913   8.767   4.519
13425WAT     H140517   8.895   8.776   4.421
13425WAT     H240518   8.846   8.705   4.560
13426WAT      O40519   4.314   8.458   6.464
13426WAT     H140520   4.371   8.530   6.502
13426WAT     H240521   4.372   8.383   6.432
13427WAT      O40522   3.100   6.400   2.753
13427WAT     H140523   3.174   6.443   2.804
13427WAT     H240524   3.137   6.328   2.695
13428WAT      O40525   3.854   3.289   6.388
13428WAT     H140526   3.777   3.337   6.347
13428WAT     H240527   3.899   3.232   6.320
13429WAT      O40528   9.632   2.114   2.898
13429WAT     H140529   9.590   2.202   2.921
13429WAT     H240530   9.580   2.040   2.940
13430WAT      O40531   3.972   3.968   9.787
13430WAT     H140532   4.070   3.950   9.791
13430WAT     H240533   3.922   3.881   9.788
13431WAT      O40534   5.693   3.506   8.391
13431WAT     H140535   5.621   3.437   8.384
13431WAT     H240536   5.782   3.462   8.379
13432WAT      O40537   2.912   9.118   3.884
13432WAT     H140538   2.963   9.164   3.811
13432WAT     H240539   2.962   9.036   3.913
13433WAT      O40540   0.580   8.685   5.760
13433WAT     H140541   0.564   8.590   5.731
13433WAT     H240542   0.533   8.747   5.697
13434WAT      O40543   8.629   9.808   7.088
13434WAT     H140544   8.626   9.740   7.161
13434WAT     H240545   8.703   9.873   7.106
13435WAT      O40546   5.465   3.474   9.161
13435WAT     H140547   5.394   3.501   9.097
13435WAT     H240548   5.444   3.384   9.200
13436WAT      O40549   3.962   2.097   8.081
13436WAT     H140550   3.968   2.132   8.175
13436WAT     H240551   3.945   2.173   8.018
13437WAT      O40552   7.166   1.781   4.409
13437WAT     H140553   7.142   1.703   4.351
13437WAT     H240554   7.175   1.863   4.353
13438WAT      O40555   3.124   1.126   7.516
13438WAT     H140556   3.115   1.064   7.439
13438WAT     H240557   3.033   1.142   7.556
13439WAT      O40558   6.209   1.128   6.959
13439WAT     H140559   6.235   1.140   7.055
13439WAT     H240560   6.216   1.031   6.935
13440WAT      O40561   4.107   9.590   3.626
13440WAT     H140562   4.157   9.506   3.646
13440WAT     H240563   4.164   9.650   3.569
13441WAT      O40564   4.224   4.943   7.181
13441WAT     H140565   4.290   4.970   7.111
13441WAT     H240566   4.176   5.024   7.214
13442WAT      O40567   7.166   4.588   8.693
13442WAT     H140568   7.180   4.614   8.598
13442WAT     H240569   7.208   4.499   8.711
13443WAT      O40570   1.201   3.232   0.566
13443WAT     H140571   1.225   3.231   0.469
13443WAT     H240572   1.197   3.327   0.598
13444WAT      O40573   1.723   0.339   5.386
13444WAT     H140574   1.802   0.332   5.325
13444WAT     H240575   1.739   0.411   5.454
13445WAT      O40576   8.187   6.311   3.130
13445WAT     H140577   8.240   6.388   3.095
13445WAT     H240578   8.250   6.242   3.167
13446WAT      O40579   3.972   3.073   3.988
13446WAT     H140580   3.880   3.073   4.028
13446WAT     H240581   4.005   3.167   3.982
13447WAT      O40582   8.188   8.215   1.174
13447WAT     H140583   8.269   8.163   1.204
13447WAT     H240584   8.113   8.151   1.155
13448WAT      O40585   0.825   6.987   9.803
13448WAT     H140586   0.913   6.944   9.782
13448WAT     H240587   0.765   6.981   9.724
13449WAT      O40588   5.205   2.625   3.521
13449WAT     H140589   5.150   2.573   3.587
13449WAT     H240590   5.265   2.562   3.471
13450WAT      O40591   1.419   9.250   2.360
13450WAT     H140592   1.456   9.337   2.328
13450WAT     H240593   1.343   9.266   2.422
13451WAT      O40594   1.305   5.720   5.741
13451WAT     H140595   1.306   5.758   5.833
13451WAT     H240596   1.232   5.763   5.688
13452WAT      O40597   0.858   4.718   7.838
13452WAT     H140598   0.833   4.632   7.885
13452WAT     H240599   0.838   4.795   7.898
13453WAT      O40600   3.483   6.426   2.479
13453WAT     H140601   3.576   6.405   2.449
13453WAT     H240602   3.420   6.356   2.446
13454WAT      O40603   9.754   7.641   0.816
13454WAT     H140604   9.711   7.728   0.840
13454WAT     H240605   9.789   7.646   0.722
13455WAT      O40606   4.554   1.482   9.550
13455WAT     H140607   4.601   1.451   9.467
13455WAT     H240608   4.482   1.417   9.573
13456WAT      O40609   6.156   7.666   6.490
13456WAT     H140610   6.202   7.698   6.573
13456WAT     H240611   6.151   7.566   6.493
13457WAT      O40612   7.939   5.257   7.997
13457WAT     H140613   7.899   5.349   7.993
13457WAT     H240614   7.937   5.224   8.091
13458WAT      O40615   9.649   2.695   4.115
13458WAT     H140616   9.746   2.698   4.140
13458WAT     H240617   9.639   2.648   4.027
13459WAT      O40618   0.657   1.658   9.170
13459WAT     H140619   0.750   1.697   9.172
13459WAT     H240620   0.612   1.686   9.085
13460WAT      O40621   5.901   3.285   4.409
13460WAT     H140622   5.973   3.234   4.455
13460WAT     H240623   5.937   3.324   4.324
13461WAT      O40624   4.242   5.419   8.781
13461WAT     H140625   4.288   5.418   8.693
13461WAT     H240626   4.156   5.470   8.773
13462WAT      O40627   8.648   7.215   9.045
13462WAT     H140628   8.706   7.227   9.125
13462WAT     H240629   8.581   7.142   9.062
13463WAT      O40630   3.078   8.435   0.152
13463WAT     H140631   3.061   8.511   0.214
13463WAT     H240632   3.114   8.357   0.204
13464WAT      O40633   9.497   3.550   7.159
13464WAT     H140634   9.542   3.581   7.075
13464WAT     H240635   9.436   3.473   7.138
13465WAT      O40636   5.559   9.444   7.319
13465WAT     H140637   5.623   9.416   7.248
13465WAT     H240638   5.486   9.499   7.278
13466WAT      O40639   1.951   5.054   4.814
13466WAT     H140640   2.003   4.985   4.864
13466WAT     H240641   1.954   5.141   4.864
13467WAT      O40642   1.480   9.483   4.608
13467WAT     H140643   1.569   9.483   4.562
13467WAT     H240644   1.492   9.514   4.703
13468WAT      O40645   7.412   6.823   7.559
13468WAT     H140646   7.463   6.907   7.547
13468WAT     H240647   7.318   6.835   7.526
13469WAT      O40648   6.159   2.875   3.280
13469WAT     H140649   6.140   2.957   3.335
13469WAT     H240650   6.078   2.849   3.229
13470WAT      O40651   8.829   8.839   7.576
13470WAT     H140652   8.887   8.885   7.509
13470WAT     H240653   8.803   8.749   7.541
13471WAT      O40654   4.365   8.730   4.789
13471WAT     H140655   4.464   8.719   4.783
13471WAT     H240656   4.330   8.669   4.860
13472WAT      O40657   0.205   7.418   6.792
13472WAT     H140658   0.230   7.412   6.696
13472WAT     H240659   0.131   7.353   6.812
13473WAT      O40660   2.755   2.910   1.648
13473WAT     H140661   2.787   2.943   1.737
13473WAT     H240662   2.693   2.977   1.608
13474WAT      O40663   5.323   3.087   3.005
13474WAT     H140664   5.310   3.058   3.100
13474WAT     H240665   5.278   3.023   2.943
13475WAT      O40666   8.745   5.903   0.383
13475WAT     H140667   8.776   5.907   0.288
13475WAT     H240668   8.804   5.961   0.440
13476WAT      O40669   4.275   9.433   4.555
13476WAT     H140670   4.200   9.374   4.584
13476WAT     H240671   4.305   9.407   4.463
13477WAT      O40672   8.338   0.164   3.675
13477WAT     H140673   8.415   0.227   3.664
13477WAT     H240674   8.346   0.089   3.610
13478WAT      O40675   3.305   7.665   1.899
13478WAT     H140676   3.264   7.755   1.881
13478WAT     H240677   3.258   7.595   1.846
13479WAT      O40678   9.472   6.610   0.653
13479WAT     H140679   9.439   6.681   0.590
13479WAT     H240680   9.572   6.606   0.649
13480WAT      O40681   4.736   9.452   8.494
13480WAT     H140682   4.682   9.371   8.516
13480WAT     H240683   4.728   9.472   8.396
13481WAT      O40684   9.793   4.479   5.598
13481WAT     H140685   9.707   4.523   5.624
13481WAT     H240686   9.835   4.437   5.678
13482WAT      O40687   8.354   4.021   8.358
13482WAT     H140688   8.434   3.973   8.324
13482WAT     H240689   8.368   4.046   8.454
13483WAT      O40690   8.454   9.665   5.526
13483WAT     H140691   8.543   9.629   5.501
13483WAT     H240692   8.391   9.589   5.542
13484WAT      O40693   7.381   1.277   0.493
13484WAT     H140694   7.299   1.257   0.546
13484WAT     H240695   7.435   1.347   0.540
13485WAT      O40696   3.942   8.588   5.837
13485WAT     H140697   4.021   8.596   5.776
13485WAT     H240698   3.958   8.514   5.902
13486WAT      O40699   3.168   2.347   8.598
13486WAT     H140700   3.085   2.374   8.548
13486WAT     H240701   3.225   2.428   8.611
13487WAT      O40702   1.039   3.484   4.782
13487WAT     H140703   0.963   3.438   4.828
13487WAT     H240704   1.076   3.424   4.711
13488WAT      O40705   3.316   0.957   1.877
13488WAT     H140706   3.237   0.897   1.864
13488WAT     H240707   3.296   1.025   1.947
13489WAT      O40708   0.243   6.476   0.634
13489WAT     H140709   0.169   6.409   0.643
13489WAT     H240710   0.329   6.428   0.617
13490WAT      O40711   0.118   8.348   4.625
13490WAT     H140712   0.151   8.254   4.633
13490WAT     H240713   0.071   8.359   4.538
13491WAT      O40714   0.580   3.016   2.605
13491WAT     H140715   0.612   3.110   2.614
13491WAT     H240716   0.577   2.991   2.508
13492WAT      O40717   8.713   9.718   0.084
13492WAT     H140718   8.668   9.630   0.073
13492WAT     H240719   8.806   9.703   0.117
13493WAT      O40720   9.444   5.234   7.919
13493WAT     H140721   9.401   5.220   7.830
13493WAT     H240722   9.541   5.254   7.906
13494WAT      O40723  -0.002   2.291   6.049
13494WAT     H140724   0.012   2.389   6.040
13494WAT     H240725   0.073   2.250   6.102
13495WAT      O40726   8.164   7.044   0.177
13495WAT     H140727   8.232   7.063   0.249
13495WAT     H240728   8.153   6.945   0.168
13496WAT      O40729   8.449   8.616   3.581
13496WAT     H140730   8.377   8.552   3.609
13496WAT     H240731   8.424   8.655   3.492
13497WAT      O40732   4.133   9.613   5.507
13497WAT     H140733   4.139   9.532   5.449
13497WAT     H240734   4.119   9.694   5.450
13498WAT      O40735   9.727   8.094   7.504
13498WAT     H140736   9.762   8.043   7.425
13498WAT     H240737   9.788   8.081   7.582
13499WAT      O40738   1.293   2.547   8.297
13499WAT     H140739   1.301   2.629   8.355
13499WAT     H240740   1.372   2.542   8.236
13500WAT      O40741   5.359   6.717   4.951
13500WAT     H140742   5.296   6.793   4.964
13500WAT     H240743   5.425   6.741   4.880
13501WAT      O40744   4.687   8.662   2.481
13501WAT     H140745   4.687   8.565   2.503
13501WAT     H240746   4.757   8.682   2.413
13502WAT      O40747   5.002   4.027   9.333
13502WAT     H140748   5.069   3.955   9.315
13502WAT     H240749   5.023   4.107   9.277
13503WAT      O40750   7.709   7.608   8.340
13503WAT     H140751   7.659   7.530   8.302
13503WAT     H240752   7.704   7.606   8.440
13504WAT      O40753   2.404   6.766   7.329
13504WAT     H140754   2.480   6.809   7.379
13504WAT     H240755   2.321   6.820   7.342
13505WAT      O40756   5.814   5.074   6.395
13505WAT     H140757   5.827   5.043   6.489
13505WAT     H240758   5.751   5.012   6.348
13506WAT      O40759   2.469   6.087   6.430
13506WAT     H140760   2.464   6.054   6.336
13506WAT     H240761   2.413   6.169   6.440
13507WAT      O40762   5.120   9.021   6.389
13507WAT     H140763   5.178   9.065   6.321
13507WAT     H240764   5.176   8.994   6.468
13508WAT      O40765   4.758   1.574   9.703
13508WAT     H140766   4.687   1.532   9.645
13508WAT     H240767   4.727   1.663   9.734
13509WAT      O40768   9.329   5.891   6.017
13509WAT     H140769   9.396   5.823   6.047
13509WAT     H240770   9.369   5.982   6.023
13510WAT      O40771   3.381   3.369   5.881
13510WAT     H140772   3.367   3.419   5.796
13510WAT     H240773   3.294   3.354   5.926
13511WAT      O40774   0.751   8.503   2.909
13511WAT     H140775   0.792   8.413   2.928
13511WAT     H240776   0.652   8.495   2.909
13512WAT      O40777   2.380   8.492   3.828
13512WAT     H140778   2.365   8.459   3.735
13512WAT     H240779   2.445   8.433   3.874
13513WAT      O40780   6.516   6.896   2.094
13513WAT     H140781   6.456   6.975   2.100
13513WAT     H240782   6.540   6.879   1.999
13514WAT      O40783   5.486   4.561   7.843
13514WAT     H140784   5.456   4.482   7.791
13514WAT     H240785   5.561   4.607   7.795
13515WAT      O40786   6.803   3.500   0.592
13515WAT     H140787   6.822   3.510   0.689
13515WAT     H240788   6.766   3.409   0.573
13516WAT      O40789   8.904   4.471   9.089
13516WAT     H140790   8.826   4.426   9.046
13516WAT     H240791   8.901   4.569   9.069
13517WAT      O40792   3.706   8.703   3.358
13517WAT     H140793   3.714   8.641   3.436
13517WAT     H240794   3.786   8.692   3.298
13518WAT      O40795   4.405   2.180   3.405
13518WAT     H140796   4.317   2.163   3.448
13518WAT     H240797   4.418   2.117   3.328
13519WAT      O40798   1.431   6.959   5.859
13519WAT     H140799   1.508   7.007   5.900
13519WAT     H240800   1.360   6.945   5.928
13520WAT      O40801   4.429   4.401   5.071
13520WAT     H140802   4.409   4.408   5.169
13520WAT     H240803   4.526   4.421   5.056
13521WAT      O40804   1.362   7.407   1.507
13521WAT     H140805   1.368   7.330   1.443
13521WAT     H240806   1.273   7.406   1.552
13522WAT      O40807   1.849   1.089   3.331
13522WAT     H140808   1.780   1.131   3.389
13522WAT     H240809   1.902   1.023   3.384
13523WAT      O40810   8.814   8.850   2.513
13523WAT     H140811   8.752   8.776   2.486
13523WAT     H240812   8.888   8.812   2.569
13524WAT      O40813   2.556   4.872   6.711
13524WAT     H140814   2.537   4.853   6.615
13524WAT     H240815   2.637   4.930   6.718
13525WAT      O40816   6.645   2.160   2.306
13525WAT     H140817   6.670   2.154   2.402
13525WAT     H240818   6.546   2.173   2.297
13526WAT      O40819   5.960   8.097   7.494
13526WAT     H140820   6.043   8.140   7.529
13526WAT     H240821   5.980   8.001   7.471
13527WAT      O40822   1.457   6.530   8.710
13527WAT     H140823   1.471   6.482   8.796
13527WAT     H240824   1.382   6.487   8.659
13528WAT      O40825   1.198   7.960   8.905
13528WAT     H140826   1.220   7.996   8.814
13528WAT     H240827   1.119   7.899   8.899
13529WAT      O40828   3.237   6.048   9.171
13529WAT     H140829   3.265   6.041   9.075
13529WAT     H240830   3.251   5.960   9.216
13530WAT      O40831   4.024   9.780   5.903
13530WAT     H140832   3.948   9.840   5.923
13530WAT     H240833   4.092   9.786   5.977
13531WAT      O40834   2.054   3.372   5.573
13531WAT     H140835   2.049   3.341   5.668
13531WAT     H240836   2.127   3.322   5.525
13532WAT      O40837   4.069   6.854   4.161
13532WAT     H140838   4.070   6.887   4.066
13532WAT     H240839   3.975   6.856   4.195
13533WAT      O40840   7.473   2.641   6.722
13533WAT     H140841   7.448   2.702   6.648
13533WAT     H240842   7.506   2.554   6.685
13534WAT      O40843   0.394   5.759   6.149
13534WAT     H140844   0.456   5.723   6.218
13534WAT     H240845   0.388   5.858   6.157
13535WAT      O40846   8.619   7.829   9.371
13535WAT     H140847   8.533   7.875   9.347
13535WAT     H240848   8.694   7.869   9.320
13536WAT      O40849   5.482   7.690   1.080
13536WAT     H140850   5.507   7.746   1.160
13536WAT     H240851   5.484   7.593   1.106
13537WAT      O40852   4.829   6.692   4.895
13537WAT     H140853   4.868   6.615   4.844
13537WAT     H240854   4.878   6.703   4.981
13538WAT      O40855   2.318   5.865   5.128
13538WAT     H140856   2.356   5.778   5.095
13538WAT     H240857   2.288   5.854   5.223
13539WAT      O40858   5.543   2.009   9.665
13539WAT     H140859   5.535   1.997   9.566
13539WAT     H240860   5.630   2.052   9.686
13540WAT      O40861   1.730   8.983   3.812
13540WAT     H140862   1.767   9.045   3.742
13540WAT     H240863   1.700   8.899   3.768
13541WAT      O40864   2.667   5.715   7.677
13541WAT     H140865   2.643   5.785   7.610
13541WAT     H240866   2.710   5.759   7.757
13542WAT      O40867   6.017   4.009   9.683
13542WAT     H140868   5.980   4.062   9.606
13542WAT     H240869   6.117   4.018   9.685
13543WAT      O40870   0.041   5.950   7.397
13543WAT     H140871  -0.048   5.992   7.414
13543WAT     H240872   0.031   5.873   7.335
13544WAT      O40873   2.674   2.317   0.825
13544WAT     H140874   2.618   2.335   0.906
13544WAT     H240875   2.623   2.345   0.743
13545WAT      O40876   1.792   1.268   5.632
13545WAT     H140877   1.854   1.235   5.704
13545WAT     H240878   1.749   1.190   5.587
13546WAT      O40879   2.279   0.375   8.959
13546WAT     H140880   2.319   0.416   8.878
13546WAT     H240881   2.346   0.376   9.034
13547WAT      O40882   8.850   5.919   4.969
13547WAT     H140883   8.896   5.917   5.057
13547WAT     H240884   8.753   5.943   4.982
13548WAT      O40885   8.461   9.004   8.538
13548WAT     H140886   8.364   9.025   8.550
13548WAT     H240887   8.511   9.032   8.621
13549WAT      O40888   8.432   1.245   8.640
13549WAT     H140889   8.493   1.321   8.620
13549WAT     H240890   8.428   1.183   8.561
13550WAT      O40891   3.179   3.340   2.397
13550WAT     H140892   3.244   3.267   2.378
13550WAT     H240893   3.217   3.403   2.465
13551WAT      O40894   1.091   7.160   0.492
13551WAT     H140895   1.020   7.119   0.435
13551WAT     H240896   1.176   7.165   0.440
13552WAT      O40897   2.494   4.577   5.461
13552WAT     H140898   2.419   4.523   5.423
13552WAT     H240899   2.581   4.542   5.425
13553WAT      O40900   6.355   6.420   4.499
13553WAT     H140901   6.300   6.482   4.444
13553WAT     H240902   6.445   6.410   4.458
13554WAT      O40903   0.093   3.005   3.880
13554WAT     H140904   0.149   3.020   3.961
13554WAT     H240905   0.091   3.088   3.824
13555WAT      O40906   6.836   5.066   6.631
13555WAT     H140907   6.895   5.000   6.677
13555WAT     H240908   6.858   5.158   6.662
13556WAT      O40909   1.764   9.263   9.507
13556WAT     H140910   1.810   9.193   9.451
13556WAT     H240911   1.682   9.295   9.460
13557WAT      O40912   3.572   8.598   6.549
13557WAT     H140913   3.615   8.612   6.460
13557WAT     H240914   3.508   8.522   6.544
13558WAT      O40915   7.382   5.345   0.178
13558WAT     H140916   7.435   5.378   0.257
13558WAT     H240917   7.284   5.355   0.197
13559WAT      O40918   0.616   8.734   8.199
13559WAT     H140919   0.674   8.749   8.280
13559WAT     H240920   0.645   8.795   8.126
13560WAT      O40921   9.320   7.929   3.265
13560WAT     H140922   9.234   7.975   3.244
13560WAT     H240923   9.389   7.956   3.197
13561WAT      O40924   9.126   2.889   9.831
13561WAT     H140925   9.089   2.798   9.850
13561WAT     H240926   9.154   2.894   9.735
13562WAT      O40927   3.463   5.149   0.975
13562WAT     H140928   3.439   5.059   1.010
13562WAT     H240929   3.539   5.141   0.911
13563WAT      O40930   0.616   6.808   4.109
13563WAT     H140931   0.635   6.710   4.105
13563WAT     H240932   0.616   6.846   4.016
13564WAT      O40933   3.368   9.660   0.170
13564WAT     H140934   3.314   9.628   0.248
13564WAT     H240935   3.365   9.759   0.166
13565WAT      O40936   2.057   9.552   1.887
13565WAT     H140937   2.118   9.547   1.965
13565WAT     H240938   2.084   9.484   1.819
13566WAT      O40939   2.168   9.725   3.389
13566WAT     H140940   2.101   9.664   3.432
13566WAT     H240941   2.255   9.718   3.437
13567WAT      O40942   4.118   8.844   6.455
13567WAT     H140943   4.147   8.752   6.429
13567WAT     H240944   4.072   8.887   6.378
13568WAT      O40945   6.261   0.872   0.516
13568WAT     H140946   6.189   0.881   0.585
13568WAT     H240947   6.237   0.927   0.436
13569WAT      O40948   0.699   2.429   5.005
13569WAT     H140949   0.680   2.485   4.925
13569WAT     H240950   0.737   2.486   5.078
13570WAT      O40951   1.541   0.223   2.243
13570WAT     H140952   1.515   0.247   2.149
13570WAT     H240953   1.564   0.126   2.247
13571WAT      O40954   4.423   0.710   7.823
13571WAT     H140955   4.410   0.717   7.724
13571WAT     H240956   4.343   0.749   7.870
13572WAT      O40957   2.999   7.970   0.734
13572WAT     H140958   2.957   8.002   0.819
13572WAT     H240959   2.953   7.887   0.703
13573WAT      O40960   4.509   9.603   5.072
13573WAT     H140961   4.464   9.640   5.153
13573WAT     H240962   4.474   9.649   4.990
13574WAT      O40963   9.515   1.254   0.420
13574WAT     H140964   9.456   1.330   0.395
13574WAT     H240965   9.499   1.230   0.516
13575WAT      O40966   4.267   8.863   1.678
13575WAT     H140967   4.332   8.819   1.741
13575WAT     H240968   4.316   8.893   1.596
13576WAT      O40969   8.090   1.655   7.153
13576WAT     H140970   7.991   1.665   7.141
13576WAT     H240971   8.127   1.601   7.078
13577WAT      O40972   5.222   9.731   2.635
13577WAT     H140973   5.241   9.799   2.564
13577WAT     H240974   5.241   9.771   2.725
13578WAT      O40975   4.966   2.158   6.220
13578WAT     H140976   5.039   2.186   6.157
13578WAT     H240977   4.890   2.223   6.213
13579WAT      O40978   1.255   8.153   6.059
13579WAT     H140979   1.193   8.231   6.046
13579WAT     H240980   1.303   8.134   5.974
13580WAT      O40981   6.341   1.911   8.271
13580WAT     H140982   6.437   1.922   8.294
13580WAT     H240983   6.294   1.998   8.280
13581WAT      O40984   0.318   7.673   6.596
13581WAT     H140985   0.319   7.594   6.534
13581WAT     H240986   0.223   7.698   6.616
13582WAT      O40987   5.926   9.138   6.459
13582WAT     H140988   6.002   9.139   6.525
13582WAT     H240989   5.928   9.223   6.405
13583WAT      O40990   9.315   4.793   2.222
13583WAT     H140991   9.276   4.870   2.272
13583WAT     H240992   9.253   4.769   2.146
13584WAT      O40993   9.144   2.754   6.995
13584WAT     H140994   9.240   2.726   6.996
13584WAT     H240995   9.129   2.822   7.067
13585WAT      O40996   6.020   4.148   3.788
13585WAT     H140997   5.921   4.133   3.797
13585WAT     H240998   6.047   4.227   3.843
13586WAT      O40999   5.211   3.672   4.892
13586WAT     H141000   5.308   3.686   4.876
13586WAT     H241001   5.169   3.631   4.811
13587WAT      O41002   1.598   8.147   8.910
13587WAT     H141003   1.513   8.125   8.958
13587WAT     H241004   1.588   8.123   8.813
13588WAT      O41005   7.415   4.586   9.784
13588WAT     H141006   7.394   4.508   9.842
13588WAT     H241007   7.330   4.632   9.757
13589WAT      O41008   3.053   1.328   3.894
13589WAT     H141009   3.135   1.372   3.929
13589WAT     H241010   2.973   1.384   3.917
13590WAT      O41011   2.155   8.243   8.713
13590WAT     H141012   2.172   8.317   8.779
13590WAT     H241013   2.238   8.227   8.660
13591WAT      O41014   5.510   1.724   4.034
13591WAT     H141015   5.481   1.713   4.130
13591WAT     H241016   5.576   1.653   4.012
13592WAT      O41017   8.821   3.816   4.674
13592WAT     H141018   8.746   3.881   4.679
13592WAT     H241019   8.893   3.853   4.615
13593WAT      O41020   8.375   6.653   7.607
13593WAT     H141021   8.314   6.575   7.622
13593WAT     H241022   8.463   6.634   7.649
13594WAT      O41023   6.589   8.470   0.792
13594WAT     H141024   6.493   8.480   0.765
13594WAT     H241025   6.600   8.501   0.887
13595WAT      O41026   5.608   1.622   7.388
13595WAT     H141027   5.542   1.558   7.349
13595WAT     H241028   5.606   1.707   7.335
13596WAT      O41029   7.096   6.733   4.904
13596WAT     H141030   7.000   6.759   4.894
13596WAT     H241031   7.154   6.814   4.894
13597WAT      O41032   2.683   8.383   6.515
13597WAT     H141033   2.668   8.324   6.435
13597WAT     H241034   2.726   8.330   6.588
13598WAT      O41035   7.429   9.305   4.061
13598WAT     H141036   7.332   9.284   4.053
13598WAT     H241037   7.448   9.342   4.151
13599WAT      O41038   0.749   5.523   2.556
13599WAT     H141039   0.707   5.439   2.592
13599WAT     H241040   0.848   5.514   2.559
13600WAT      O41041   6.905   3.877   5.415
13600WAT     H141042   6.934   3.856   5.509
13600WAT     H241043   6.953   3.959   5.384
13601WAT      O41044   4.702   2.760   6.123
13601WAT     H141045   4.675   2.738   6.216
13601WAT     H241046   4.761   2.840   6.122
13602WAT      O41047   3.341   2.794   2.566
13602WAT     H141048   3.417   2.858   2.578
13602WAT     H241049   3.334   2.735   2.647
13603WAT      O41050   2.659   4.011   8.532
13603WAT     H141051   2.602   3.933   8.559
13603WAT     H241052   2.664   4.015   8.432
13604WAT      O41053   1.892   0.342   6.873
13604WAT     H141054   1.901   0.409   6.799
13604WAT     H241055   1.973   0.284   6.875
13605WAT      O41056   0.622   3.034   9.145
13605WAT     H141057   0.634   3.133   9.138
13605WAT     H241058   0.645   2.992   9.058
13606WAT      O41059   0.979   4.006   3.967
13606WAT     H141060   1.037   3.939   4.015
13606WAT     H241061   1.026   4.038   3.885
13607WAT      O41062   9.335   7.215   1.678
13607WAT     H141063   9.401   7.290   1.689
13607WAT     H241064   9.323   7.196   1.581
13608WAT      O41065   0.272   1.983   9.001
13608WAT     H141066   0.186   2.022   9.034
13608WAT     H241067   0.349   2.029   9.046
13609WAT      O41068   0.485   1.741   2.252
13609WAT     H141069   0.456   1.794   2.173
13609WAT     H241070   0.584   1.750   2.264
13610WAT      O41071   2.857   9.080   0.297
13610WAT     H141072   2.810   9.112   0.215
13610WAT     H241073   2.888   9.159   0.351
13611WAT      O41074   1.259   6.752   2.978
13611WAT     H141075   1.216   6.801   2.902
13611WAT     H241076   1.315   6.677   2.943
13612WAT      O41077   6.063   6.224   9.103
13612WAT     H141078   6.098   6.138   9.140
13612WAT     H241079   6.054   6.291   9.177
13613WAT      O41080   5.505   5.350   7.501
13613WAT     H141081   5.498   5.449   7.505
13613WAT     H241082   5.601   5.323   7.490
13614WAT      O41083   6.464   0.903   7.081
13614WAT     H141084   6.389   0.954   7.123
13614WAT     H241085   6.440   0.806   7.078
13615WAT      O41086   4.456   0.827   4.129
13615WAT     H141087   4.431   0.921   4.107
13615WAT     H241088   4.379   0.781   4.173
13616WAT      O41089   3.788   3.813   2.540
13616WAT     H141090   3.765   3.747   2.468
13616WAT     H241091   3.860   3.775   2.598
13617WAT      O41092   4.368   1.183   8.581
13617WAT     H141093   4.425   1.102   8.575
13617WAT     H241094   4.273   1.156   8.596
13618WAT      O41095   6.959   5.922   0.731
13618WAT     H141096   7.048   5.928   0.775
13618WAT     H241097   6.962   5.966   0.642
13619WAT      O41098   2.039   3.261   1.899
13619WAT     H141099   2.003   3.173   1.868
13619WAT     H241100   2.012   3.333   1.835
13620WAT      O41101   6.279   0.641   3.550
13620WAT     H141102   6.214   0.662   3.477
13620WAT     H241103   6.264   0.704   3.626
13621WAT      O41104   2.597   7.270   7.304
13621WAT     H141105   2.530   7.312   7.243
13621WAT     H241106   2.675   7.238   7.250
13622WAT      O41107   2.180   6.896   7.417
13622WAT     H141108   2.198   6.956   7.495
13622WAT     H241109   2.094   6.922   7.373
13623WAT      O41110   2.066   0.545   3.034
13623WAT     H141111   2.164   0.560   3.017
13623WAT     H241112   2.032   0.475   2.971
13624WAT      O41113   3.589   1.848   3.863
13624WAT     H141114   3.554   1.942   3.869
13624WAT     H241115   3.535   1.789   3.923
13625WAT      O41116   6.451   6.351   3.649
13625WAT     H141117   6.474   6.342   3.746
13625WAT     H241118   6.490   6.274   3.598
13626WAT      O41119   5.093   7.157   9.187
13626WAT     H141120   5.135   7.186   9.273
13626WAT     H241121   5.054   7.066   9.198
13627WAT      O41122   6.315   5.645   9.120
13627WAT     H141123   6.380   5.597   9.179
13627WAT     H241124   6.347   5.739   9.104
13628WAT      O41125   8.981   2.367   0.542
13628WAT     H141126   8.896   2.377   0.594
13628WAT     H241127   8.995   2.271   0.519
13629WAT      O41128   3.850   0.837   5.933
13629WAT     H141129   3.946   0.835   5.905
13629WAT     H241130   3.832   0.760   5.994
13630WAT      O41131   9.248   1.354   5.965
13630WAT     H141132   9.224   1.446   5.935
13630WAT     H241133   9.171   1.292   5.949
13631WAT      O41134   7.386   7.255   4.668
13631WAT     H141135   7.478   7.262   4.630
13631WAT     H241136   7.367   7.334   4.726
13632WAT      O41137   6.976   3.467   5.271
13632WAT     H141138   6.962   3.564   5.252
13632WAT     H241139   6.968   3.450   5.369
13633WAT      O41140   9.697   5.384   4.773
13633WAT     H141141   9.613   5.364   4.722
13633WAT     H241142   9.764   5.312   4.755
13634WAT      O41143   0.427   3.325   5.547
13634WAT     H141144   0.501   3.389   5.566
13634WAT     H241145   0.418   3.261   5.623
13635WAT      O41146   5.538   6.176   9.751
13635WAT     H141147   5.532   6.257   9.692
13635WAT     H241148   5.597   6.107   9.708
13636WAT      O41149   7.622   6.359   6.674
13636WAT     H141150   7.542   6.305   6.701
13636WAT     H241151   7.624   6.444   6.728
13637WAT      O41152   9.453   8.430   7.402
13637WAT     H141153   9.516   8.468   7.334
13637WAT     H241154   9.382   8.379   7.356
13638WAT      O41155   2.104   5.852   4.045
13638WAT     H141156   2.137   5.805   4.127
13638WAT     H241157   2.182   5.878   3.988
13639WAT      O41158   1.190   8.518   6.233
13639WAT     H141159   1.182   8.458   6.153
13639WAT     H241160   1.251   8.593   6.212
13640WAT      O41161   7.802   7.834   8.250
13640WAT     H141162   7.836   7.892   8.325
13640WAT     H241163   7.745   7.762   8.288
13641WAT      O41164   7.965   3.380   5.725
13641WAT     H141165   7.889   3.333   5.769
13641WAT     H241166   8.043   3.385   5.788
13642WAT      O41167   8.771   8.610   8.917
13642WAT     H141168   8.741   8.637   8.826
13642WAT     H241169   8.865   8.576   8.912
13643WAT      O41170   8.761   4.777   1.476
13643WAT     H141171   8.779   4.820   1.565
13643WAT     H241172   8.848   4.758   1.430
13644WAT      O41173   1.087   1.520   3.776
13644WAT     H141174   1.144   1.440   3.756
13644WAT     H241175   1.040   1.548   3.692
13645WAT      O41176   4.422   3.031   0.668
13645WAT     H141177   4.352   2.960   0.663
13645WAT     H241178   4.407   3.098   0.595
13646WAT      O41179   3.170   3.889   3.063
13646WAT     H141180   3.237   3.815   3.074
13646WAT     H241181   3.164   3.914   2.966
13647WAT      O41182   9.227   4.144   2.737
13647WAT     H141183   9.299   4.135   2.668
13647WAT     H241184   9.138   4.146   2.692
13648WAT      O41185   6.458   7.127   3.043
13648WAT     H141186   6.512   7.131   3.127
13648WAT     H241187   6.498   7.060   2.981
13649WAT      O41188   8.937   6.797   4.274
13649WAT     H141189   9.014   6.738   4.296
13649WAT     H241190   8.918   6.858   4.351
13650WAT      O41191   3.071   2.075   3.000
13650WAT     H141192   3.158   2.109   2.962
13650WAT     H241193   3.036   2.142   3.065
13651WAT      O41194   5.293   4.330   0.697
13651WAT     H141195   5.313   4.268   0.621
13651WAT     H241196   5.349   4.306   0.775
13652WAT      O41197   3.977   9.035   8.917
13652WAT     H141198   3.884   9.001   8.911
13652WAT     H241199   4.002   9.048   9.014
13653WAT      O41200   8.063   2.651   4.248
13653WAT     H141201   8.085   2.748   4.246
13653WAT     H241202   8.049   2.622   4.342
13654WAT      O41203   5.920   2.719   9.767
13654WAT     H141204   5.880   2.638   9.726
13654WAT     H241205   5.949   2.783   9.695
13655WAT      O41206   5.117   3.592   6.521
13655WAT     H141207   5.075   3.526   6.583
13655WAT     H241208   5.199   3.553   6.481
13656WAT      O41209   5.502   1.652   4.681
13656WAT     H141210   5.541   1.739   4.652
13656WAT     H241211   5.431   1.668   4.749
13657WAT      O41212   7.593   9.541   3.328
13657WAT     H141213   7.654   9.563   3.404
13657WAT     H241214   7.506   9.591   3.339
13658WAT      O41215   2.325   3.423   4.497
13658WAT     H141216   2.272   3.365   4.559
13658WAT     H241217   2.263   3.476   4.440
13659WAT      O41218   0.028   9.095   4.080
13659WAT     H141219   0.119   9.056   4.093
13659WAT     H241220  -0.037   9.022   4.057
13660WAT      O41221   5.535   9.696   6.268
13660WAT     H141222   5.459   9.689   6.204
13660WAT     H241223   5.538   9.614   6.326
13661WAT      O41224   0.255   3.269   8.345
13661WAT     H141225   0.339   3.314   8.376
13661WAT     H241226   0.237   3.295   8.250
13662WAT      O41227   3.736   5.416   0.508
13662WAT     H141228   3.700   5.348   0.444
13662WAT     H241229   3.754   5.372   0.596
13663WAT      O41230   3.951   1.782   1.205
13663WAT     H141231   3.896   1.701   1.182
13663WAT     H241232   3.927   1.813   1.297
13664WAT      O41233   0.233   6.538   7.527
13664WAT     H141234   0.181   6.591   7.594
13664WAT     H241235   0.326   6.523   7.562
13665WAT      O41236   9.023   4.975   5.364
13665WAT     H141237   9.114   4.967   5.404
13665WAT     H241238   8.960   4.913   5.411
13666WAT      O41239   9.527   9.303   9.142
13666WAT     H141240   9.493   9.393   9.166
13666WAT     H241241   9.564   9.258   9.223
13667WAT      O41242   7.514   3.289   3.551
13667WAT     H141243   7.596   3.250   3.510
13667WAT     H241244   7.442   3.297   3.482
13668WAT      O41245   7.558   0.311   8.007
13668WAT     H141246   7.581   0.315   8.104
13668WAT     H241247   7.562   0.402   7.967
13669WAT      O41248   6.336   2.562   2.869
13669WAT     H141249   6.418   2.551   2.925
13669WAT     H241250   6.296   2.653   2.885
13670WAT      O41251   1.944   5.698   4.810
13670WAT     H141252   2.001   5.769   4.851
13670WAT     H241253   1.848   5.725   4.814
13671WAT      O41254   9.595   5.805   2.916
13671WAT     H141255   9.506   5.804   2.870
13671WAT     H241256   9.647   5.724   2.889
13672WAT      O41257   0.072   1.227   3.217
13672WAT     H141258   0.016   1.261   3.292
13672WAT     H241259   0.035   1.139   3.185
13673WAT      O41260   4.815   8.434   6.687
13673WAT     H141261   4.898   8.464   6.640
13673WAT     H241262   4.777   8.510   6.740
13674WAT      O41263   6.606   8.585   0.314
13674WAT     H141264   6.538   8.638   0.263
13674WAT     H241265   6.698   8.616   0.292
13675WAT      O41266   6.863   2.941   4.599
13675WAT     H141267   6.873   2.847   4.565
13675WAT     H241268   6.945   2.968   4.649
13676WAT      O41269   3.877   1.979   7.044
13676WAT     H141270   3.852   2.004   6.951
13676WAT     H241271   3.806   1.920   7.083
13677WAT      O41272   2.439   5.392   8.119
13677WAT     H141273   2.355   5.352   8.081
13677WAT     H241274   2.489   5.322   8.170
13678WAT      O41275   3.959   1.969   8.853
13678WAT     H141276   3.956   1.929   8.945
13678WAT     H241277   3.873   1.950   8.806
13679WAT      O41278   1.526   2.169   7.498
13679WAT     H141279   1.529   2.079   7.542
13679WAT     H241280   1.436   2.182   7.456
13680WAT      O41281   0.804   1.546   0.371
13680WAT     H141282   0.810   1.449   0.348
13680WAT     H241283   0.738   1.558   0.445
13681WAT      O41284   2.368   2.754   2.427
13681WAT     H141285   2.454   2.774   2.380
13681WAT     H241286   2.292   2.797   2.380
13682WAT      O41287   0.546   3.803   1.412
13682WAT     H141288   0.473   3.871   1.412
13682WAT     H241289   0.580   3.790   1.505
13683WAT      O41290   1.813   7.916   6.462
13683WAT     H141291   1.847   7.824   6.479
13683WAT     H241292   1.868   7.960   6.392
13684WAT      O41293   4.484   6.254   2.670
13684WAT     H141294   4.449   6.345   2.695
13684WAT     H241295   4.409   6.188   2.671
13685WAT      O41296   9.712   0.362   3.708
13685WAT     H141297   9.699   0.461   3.709
13685WAT     H241298   9.626   0.318   3.682
13686WAT      O41299   7.532   3.485   1.701
13686WAT     H141300   7.492   3.473   1.792
13686WAT     H241301   7.475   3.548   1.648
13687WAT      O41302   0.591   9.315   5.424
13687WAT     H141303   0.645   9.330   5.341
13687WAT     H241304   0.558   9.221   5.426
13688WAT      O41305   4.328   4.269   4.571
13688WAT     H141306   4.305   4.174   4.594
13688WAT     H241307   4.409   4.270   4.512
13689WAT      O41308   3.534   8.989   9.290
13689WAT     H141309   3.571   8.896   9.289
13689WAT     H241310   3.603   9.052   9.326
13690WAT      O41311   4.292   0.186   9.820
13690WAT     H141312   4.282   0.282   9.793
13690WAT     H241313   4.209   0.157   9.870
13691WAT      O41314   1.635   9.259   9.121
13691WAT     H141315   1.689   9.344   9.118
13691WAT     H241316   1.538   9.282   9.123
13692WAT      O41317   3.255   3.852   7.598
13692WAT     H141318   3.172   3.907   7.599
13692WAT     H241319   3.288   3.839   7.692
13693WAT      O41320   1.140   4.543   3.277
13693WAT     H141321   1.107   4.595   3.356
13693WAT     H241322   1.236   4.520   3.290
13694WAT      O41323   0.132   8.066   4.615
13694WAT     H141324   0.034   8.076   4.595
13694WAT     H241325   0.151   7.970   4.636
13695WAT      O41326   2.131   2.524   8.552
13695WAT     H141327   2.143   2.498   8.456
13695WAT     H241328   2.184   2.607   8.570
13696WAT      O41329   7.600   6.104   5.518
13696WAT     H141330   7.590   6.083   5.421
13696WAT     H241331   7.696   6.126   5.537
13697WAT      O41332   0.865   4.216   1.340
13697WAT     H141333   0.938   4.224   1.271
13697WAT     H241334   0.777   4.236   1.297
13698WAT      O41335   4.946   5.832   8.299
13698WAT     H141336   4.862   5.822   8.351
13698WAT     H241337   4.930   5.806   8.203
13699WAT      O41338   8.003   4.500   5.159
13699WAT     H141339   8.031   4.486   5.254
13699WAT     H241340   7.961   4.590   5.149
13700WAT      O41341   0.050   0.758   7.031
13700WAT     H141342  -0.037   0.764   6.982
13700WAT     H241343   0.034   0.775   7.129
13701WAT      O41344   7.335   3.944   4.131
13701WAT     H141345   7.353   3.857   4.175
13701WAT     H241346   7.242   3.975   4.152
13702WAT      O41347   9.781   9.521   6.287
13702WAT     H141348   9.706   9.513   6.221
13702WAT     H241349   9.857   9.462   6.258
13703WAT      O41350   4.228   1.555   7.422
13703WAT     H141351   4.270   1.597   7.342
13703WAT     H241352   4.128   1.563   7.416
13704WAT      O41353   3.558   1.346   1.021
13704WAT     H141354   3.605   1.284   0.958
13704WAT     H241355   3.489   1.398   0.971
13705WAT      O41356   8.196   3.049   5.985
13705WAT     H141357   8.237   3.023   6.072
13705WAT     H241358   8.113   3.102   6.002
13706WAT      O41359   3.538   1.856   1.473
13706WAT     H141360   3.454   1.874   1.525
13706WAT     H241361   3.600   1.800   1.527
13707WAT      O41362   5.990   5.311   6.400
13707WAT     H141363   6.073   5.280   6.447
13707WAT     H241364   5.937   5.232   6.370
13708WAT      O41365   2.200   9.814   2.220
13708WAT     H141366   2.225   9.905   2.186
13708WAT     H241367   2.116   9.783   2.175
13709WAT      O41368   6.525   6.853   1.512
13709WAT     H141369   6.446   6.793   1.506
13709WAT     H241370   6.498   6.946   1.484
13710WAT      O41371   7.968   9.676   2.244
13710WAT     H141372   8.050   9.733   2.234
13710WAT     H241373   7.993   9.580   2.232
13711WAT      O41374   6.607   2.604   3.424
13711WAT     H141375   6.646   2.584   3.514
13711WAT     H241376   6.531   2.668   3.435
13712WAT      O41377   7.393   9.103   7.289
13712WAT     H141378   7.468   9.060   7.340
13712WAT     H241379   7.353   9.176   7.344
13713WAT      O41380   8.619   7.145   2.872
13713WAT     H141381   8.673   7.185   2.798
13713WAT     H241382   8.536   7.198   2.887
13714WAT      O41383   0.972   3.606   7.051
13714WAT     H141384   0.893   3.557   7.089
13714WAT     H241385   0.972   3.597   6.952
13715WAT      O41386   5.274   0.422   4.342
13715WAT     H141387   5.305   0.345   4.397
13715WAT     H241388   5.180   0.445   4.367
13716WAT      O41389   6.797   3.805   0.157
13716WAT     H141390   6.885   3.852   0.147
13716WAT     H241391   6.726   3.871   0.182
13717WAT      O41392   1.936   8.135   8.597
13717WAT     H141393   1.931   8.044   8.638
13717WAT     H241394   2.022   8.179   8.624
13718WAT      O41395   0.404   6.345   7.165
13718WAT     H141396   0.335   6.415   7.182
13718WAT     H241397   0.404   6.279   7.240
13719WAT      O41398   0.544   5.183   2.915
13719WAT     H141399   0.474   5.216   2.978
13719WAT     H241400   0.600   5.114   2.960
13720WAT      O41401   2.938   9.239   8.517
13720WAT     H141402   2.952   9.144   8.488
13720WAT     H241403   3.027   9.284   8.526
13721WAT      O41404   6.563   2.604   5.269
13721WAT     H141405   6.473   2.577   5.234
13721WAT     H241406   6.554   2.631   5.365
13722WAT      O41407   6.012   3.218   2.453
13722WAT     H141408   6.095   3.217   2.509
13722WAT     H241409   6.014   3.139   2.391
13723WAT      O41410   2.552   3.606   9.204
13723WAT     H141411   2.516   3.556   9.283
13723WAT     H241412   2.626   3.666   9.233
13724WAT      O41413   5.049   7.971   2.683
13724WAT     H141414   4.987   8.046   2.706
13724WAT     H241415   4.996   7.889   2.664
13725WAT      O41416   6.718   4.265   7.155
13725WAT     H141417   6.619   4.255   7.147
13725WAT     H241418   6.762   4.221   7.077
13726WAT      O41419   0.469   8.800   2.819
13726WAT     H141420   0.380   8.826   2.781
13726WAT     H241421   0.496   8.867   2.889
13727WAT      O41422   5.911   9.042   9.093
13727WAT     H141423   5.962   8.959   9.117
13727WAT     H241424   5.857   9.072   9.171
13728WAT      O41425   5.749   1.297   7.223
13728WAT     H141426   5.759   1.202   7.254
13728WAT     H241427   5.653   1.324   7.227
13729WAT      O41428   5.858   6.554   1.618
13729WAT     H141429   5.842   6.549   1.717
13729WAT     H241430   5.921   6.481   1.591
13730WAT      O41431   7.411   5.515   5.225
13730WAT     H141432   7.504   5.549   5.214
13730WAT     H241433   7.382   5.467   5.143
13731WAT      O41434   0.218   4.622   1.206
13731WAT     H141435   0.318   4.617   1.201
13731WAT     H241436   0.181   4.658   1.120
13732WAT      O41437   9.384   1.441   5.555
13732WAT     H141438   9.418   1.515   5.613
13732WAT     H241439   9.323   1.478   5.486
13733WAT      O41440   0.490   3.793   5.005
13733WAT     H141441   0.526   3.874   4.959
13733WAT     H241442   0.483   3.811   5.103
13734WAT      O41443   8.178   1.349   2.639
13734WAT     H141444   8.123   1.384   2.563
13734WAT     H241445   8.248   1.416   2.663
13735WAT      O41446   2.118   1.757   8.491
13735WAT     H141447   2.178   1.833   8.518
13735WAT     H241448   2.158   1.710   8.412
13736WAT      O41449   2.457   8.149   4.097
13736WAT     H141450   2.487   8.115   4.008
13736WAT     H241451   2.412   8.076   4.148
13737WAT      O41452   6.057   0.090   5.948
13737WAT     H141453   5.971   0.136   5.967
13737WAT     H241454   6.133   0.145   5.982
13738WAT      O41455   7.324   7.239   2.491
13738WAT     H141456   7.334   7.309   2.420
13738WAT     H241457   7.290   7.155   2.450
13739WAT      O41458   8.293   0.412   7.886
13739WAT     H141459   8.295   0.400   7.985
13739WAT     H241460   8.203   0.444   7.857
13740WAT      O41461   2.703   2.702   0.950
13740WAT     H141462   2.701   2.793   0.991
13740WAT     H241463   2.795   2.682   0.917
13741WAT      O41464   8.694   9.773   9.060
13741WAT     H141465   8.782   9.804   9.097
13741WAT     H241466   8.709   9.721   8.976
13742WAT      O41467   2.746   5.452   7.684
13742WAT     H141468   2.721   5.549   7.682
13742WAT     H241469   2.843   5.443   7.706
13743WAT      O41470   4.919   9.735   3.487
13743WAT     H141471   4.921   9.653   3.431
13743WAT     H241472   4.949   9.814   3.433
13744WAT      O41473   5.903   9.722   2.221
13744WAT     H141474   5.842   9.788   2.177
13744WAT     H241475   5.864   9.631   2.215
13745WAT      O41476   3.100   5.586   5.772
13745WAT     H141477   3.153   5.632   5.701
13745WAT     H241478   3.112   5.487   5.765
13746WAT      O41479   8.230   9.727   3.277
13746WAT     H141480   8.130   9.727   3.280
13746WAT     H241481   8.264   9.643   3.319
13747WAT      O41482   2.229   3.340   1.487
13747WAT     H141483   2.282   3.289   1.555
13747WAT     H241484   2.289   3.407   1.443
13748WAT      O41485   8.637   1.891   6.884
13748WAT     H141486   8.706   1.819   6.875
13748WAT     H241487   8.577   1.870   6.961
13749WAT      O41488   0.902   8.012   0.886
13749WAT     H141489   0.953   7.938   0.931
13749WAT     H241490   0.804   7.991   0.887
13750WAT      O41491   0.950   6.332   3.371
13750WAT     H141492   0.951   6.276   3.288
13750WAT     H241493   0.874   6.303   3.430
13751WAT      O41494   7.387   1.472   4.358
13751WAT     H141495   7.298   1.492   4.317
13751WAT     H241496   7.380   1.390   4.415
13752WAT      O41497   6.941   6.681   4.344
13752WAT     H141498   6.943   6.598   4.287
13752WAT     H241499   6.962   6.761   4.287
13753WAT      O41500   9.364   7.959   3.946
13753WAT     H141501   9.400   7.891   3.882
13753WAT     H241502   9.356   7.918   4.037
13754WAT      O41503   4.946   9.457   9.100
13754WAT     H141504   4.961   9.529   9.033
13754WAT     H241505   5.020   9.390   9.094
13755WAT      O41506   3.468   9.302   0.786
13755WAT     H141507   3.539   9.264   0.845
13755WAT     H241508   3.426   9.229   0.732
13756WAT      O41509   8.351   1.837   4.968
13756WAT     H141510   8.374   1.741   4.954
13756WAT     H241511   8.331   1.853   5.065
13757WAT      O41512   7.492   9.049   1.953
13757WAT     H141513   7.474   8.977   2.020
13757WAT     H241514   7.560   9.017   1.887
13758WAT      O41515   7.439   1.280   0.885
13758WAT     H141516   7.508   1.215   0.853
13758WAT     H241517   7.353   1.262   0.838
13759WAT      O41518   7.521   5.464   0.395
13759WAT     H141519   7.457   5.456   0.471
13759WAT     H241520   7.562   5.555   0.396
13760WAT      O41521   1.109   4.543   6.677
13760WAT     H141522   1.096   4.620   6.740
13760WAT     H241523   1.045   4.470   6.701
13761WAT      O41524   2.532   3.044   7.325
13761WAT     H141525   2.460   3.100   7.282
13761WAT     H241526   2.621   3.069   7.287
13762WAT      O41527   3.001   4.247   4.248
13762WAT     H141528   3.030   4.219   4.157
13762WAT     H241529   3.031   4.180   4.315
13763WAT      O41530   7.543   8.660   2.920
13763WAT     H141531   7.500   8.723   2.984
13763WAT     H241532   7.515   8.682   2.827
13764WAT      O41533   9.315   4.052   0.610
13764WAT     H141534   9.282   3.973   0.661
13764WAT     H241535   9.398   4.088   0.652
13765WAT      O41536   9.508   9.643   4.048
13765WAT     H141537   9.505   9.709   3.974
13765WAT     H241538   9.554   9.684   4.127
13766WAT      O41539   5.924   1.753   9.046
13766WAT     H141540   5.962   1.843   9.066
13766WAT     H241541   5.970   1.685   9.104
13767WAT      O41542   7.862   5.978   2.012
13767WAT     H141543   7.929   6.022   2.072
13767WAT     H241544   7.858   5.880   2.033
13768WAT      O41545   8.162   5.451   8.020
13768WAT     H141546   8.184   5.359   7.986
13768WAT     H241547   8.136   5.445   8.116
13769WAT      O41548   8.900   0.535   0.140
13769WAT     H141549   8.870   0.442   0.120
13769WAT     H241550   8.837   0.600   0.097
13770WAT      O41551   4.257   6.902   6.917
13770WAT     H141552   4.271   6.978   6.854
13770WAT     H241553   4.163   6.868   6.908
13771WAT      O41554   2.616   8.831   2.090
13771WAT     H141555   2.633   8.732   2.085
13771WAT     H241556   2.519   8.849   2.071
13772WAT      O41557   7.540   6.518   7.347
13772WAT     H141558   7.533   6.493   7.250
13772WAT     H241559   7.593   6.602   7.355
13773WAT      O41560   4.267   0.501   5.840
13773WAT     H141561   4.314   0.478   5.926
13773WAT     H241562   4.205   0.578   5.856
13774WAT      O41563   2.400   6.446   9.213
13774WAT     H141564   2.350   6.456   9.299
13774WAT     H241565   2.344   6.395   9.148
13775WAT      O41566   2.820   7.739   1.706
13775WAT     H141567   2.889   7.753   1.635
13775WAT     H241568   2.730   7.760   1.668
13776WAT      O41569   5.949   6.390   4.747
13776WAT     H141570   5.968   6.451   4.670
13776WAT     H241571   5.894   6.438   4.815
13777WAT      O41572   0.529   9.263   3.261
13777WAT     H141573   0.519   9.330   3.187
13777WAT     H241574   0.590   9.299   3.331
13778WAT      O41575   9.702   6.612   5.782
13778WAT     H141576   9.720   6.544   5.711
13778WAT     H241577   9.608   6.602   5.815
13779WAT      O41578   8.489   0.004   0.639
13779WAT     H141579   8.556   0.061   0.591
13779WAT     H241580   8.536  -0.071   0.685
13780WAT      O41581   0.029   1.164   7.159
13780WAT     H141582   0.087   1.220   7.099
13780WAT     H241583  -0.051   1.217   7.186
13781WAT      O41584   8.088   8.091   3.475
13781WAT     H141585   8.183   8.114   3.495
13781WAT     H241586   8.070   8.102   3.377
13782WAT      O41587   3.249   6.479   3.516
13782WAT     H141588   3.300   6.451   3.434
13782WAT     H241589   3.194   6.560   3.496
13783WAT      O41590   4.149   9.111   6.554
13783WAT     H141591   4.126   9.022   6.513
13783WAT     H241592   4.090   9.127   6.633
13784WAT      O41593   5.628   2.431   3.112
13784WAT     H141594   5.650   2.348   3.163
13784WAT     H241595   5.712   2.483   3.095
13785WAT      O41596   3.818   9.645   1.169
13785WAT     H141597   3.791   9.740   1.159
13785WAT     H241598   3.909   9.639   1.210
13786WAT      O41599   5.162   7.013   5.638
13786WAT     H141600   5.192   6.919   5.621
13786WAT     H241601   5.085   7.013   5.701
13787WAT      O41602   6.466   0.786   2.085
13787WAT     H141603   6.515   0.843   2.151
13787WAT     H241604   6.508   0.695   2.081
13788WAT      O41605   2.359   4.389   4.260
13788WAT     H141606   2.423   4.324   4.302
13788WAT     H241607   2.397   4.481   4.267
13789WAT      O41608   8.967   6.812   6.032
13789WAT     H141609   8.917   6.885   6.080
13789WAT     H241610   9.064   6.838   6.024
13790WAT      O41611   9.114   5.489   7.526
13790WAT     H141612   9.213   5.502   7.529
13790WAT     H241613   9.074   5.552   7.459
13791WAT      O41614   1.307   1.416   1.427
13791WAT     H141615   1.396   1.405   1.470
13791WAT     H241616   1.310   1.491   1.362
13792WAT      O41617   3.710   7.775   6.025
13792WAT     H141618   3.800   7.788   5.984
13792WAT     H241619   3.680   7.861   6.067
13793WAT      O41620   5.543   2.022   7.904
13793WAT     H141621   5.569   1.983   7.815
13793WAT     H241622   5.457   1.981   7.934
13794WAT      O41623   8.125   6.516   4.866
13794WAT     H141624   8.141   6.608   4.830
13794WAT     H241625   8.027   6.496   4.861
13795WAT      O41626   3.018   2.644   1.599
13795WAT     H141627   2.999   2.711   1.527
13795WAT     H241628   2.952   2.570   1.594
13796WAT      O41629   1.791   6.020   3.127
13796WAT     H141630   1.822   5.969   3.207
13796WAT     H241631   1.870   6.053   3.075
13797WAT      O41632   8.624   2.308   8.232
13797WAT     H141633   8.707   2.336   8.279
13797WAT     H241634   8.638   2.313   8.133
13798WAT      O41635   7.431   8.299   5.304
13798WAT     H141636   7.361   8.304   5.232
13798WAT     H241637   7.483   8.214   5.294
13799WAT      O41638   2.560   9.117   5.232
13799WAT     H141639   2.565   9.114   5.331
13799WAT     H241640   2.652   9.116   5.193
13800WAT      O41641   6.341   1.954   6.516
13800WAT     H141642   6.321   1.895   6.437
13800WAT     H241643   6.440   1.967   6.523
13801WAT      O41644   5.339   8.675   3.731
13801WAT     H141645   5.427   8.723   3.736
13801WAT     H241646   5.272   8.733   3.685
13802WAT      O41647   1.014   1.233   8.656
13802WAT     H141648   1.109   1.203   8.643
13802WAT     H241649   0.970   1.177   8.726
13803WAT      O41650   2.934   6.049   4.654
13803WAT     H141651   2.986   5.975   4.696
13803WAT     H241652   2.837   6.024   4.650
13804WAT      O41653   0.801   7.127   4.758
13804WAT     H141654   0.890   7.158   4.789
13804WAT     H241655   0.812   7.057   4.687
13805WAT      O41656   7.930   0.806   8.036
13805WAT     H141657   7.958   0.749   7.959
13805WAT     H241658   7.838   0.843   8.018
13806WAT      O41659   8.254   7.831   3.126
13806WAT     H141660   8.335   7.832   3.067
13806WAT     H241661   8.283   7.808   3.219
13807WAT      O41662   0.363   7.359   3.533
13807WAT     H141663   0.357   7.450   3.574
13807WAT     H241664   0.440   7.357   3.468
13808WAT      O41665   0.568   9.169   8.982
13808WAT     H141666   0.629   9.113   8.926
13808WAT     H241667   0.511   9.109   9.038
13809WAT      O41668   0.413   2.652   9.638
13809WAT     H141669   0.442   2.733   9.689
13809WAT     H241670   0.455   2.652   9.548
13810WAT      O41671   6.270   0.318   8.209
13810WAT     H141672   6.269   0.258   8.129
13810WAT     H241673   6.181   0.317   8.253
13811WAT      O41674   5.391   0.995   6.925
13811WAT     H141675   5.479   1.035   6.899
13811WAT     H241676   5.336   0.979   6.843
13812WAT      O41677   7.096   8.537   9.402
13812WAT     H141678   7.034   8.534   9.324
13812WAT     H241679   7.117   8.444   9.432
13813WAT      O41680   1.595   6.687   7.847
13813WAT     H141681   1.657   6.632   7.902
13813WAT     H241682   1.503   6.683   7.887
13814WAT      O41683   3.568   2.761   1.236
13814WAT     H141684   3.619   2.837   1.196
13814WAT     H241685   3.480   2.793   1.270
13815WAT      O41686   1.138   4.670   7.331
13815WAT     H141687   1.070   4.743   7.333
13815WAT     H241688   1.158   4.646   7.236
13816WAT      O41689   9.543   7.876   1.661
13816WAT     H141690   9.577   7.915   1.575
13816WAT     H241691   9.518   7.780   1.646
13817WAT      O41692   0.955   3.727   2.868
13817WAT     H141693   1.018   3.671   2.813
13817WAT     H241694   0.919   3.672   2.943
13818WAT      O41695   8.351   6.765   2.041
13818WAT     H141696   8.427   6.749   2.104
13818WAT     H241697   8.346   6.862   2.020
13819WAT      O41698   3.689   7.471   6.029
13819WAT     H141699   3.694   7.570   6.043
13819WAT     H241700   3.776   7.437   5.994
13820WAT      O41701   8.184   9.667   1.038
13820WAT     H141702   8.138   9.730   0.976
13820WAT     H241703   8.118   9.602   1.075
13821WAT      O41704   1.282   9.603   7.970
13821WAT     H141705   1.296   9.602   7.871
13821WAT     H241706   1.325   9.685   8.008
13822WAT      O41707   1.871   1.472   3.238
13822WAT     H141708   1.875   1.458   3.337
13822WAT     H241709   1.852   1.568   3.219
13823WAT      O41710   6.737   8.225   5.647
13823WAT     H141711   6.747   8.309   5.700
13823WAT     H241712   6.649   8.225   5.600
13824WAT      O41713   8.133   4.049   5.546
13824WAT     H141714   8.042   4.014   5.568
13824WAT     H241715   8.129   4.103   5.462
13825WAT      O41716   8.845   4.036   9.626
13825WAT     H141717   8.770   4.037   9.560
13825WAT     H241718   8.822   3.975   9.702
13826WAT      O41719   5.742   6.446   0.771
13826WAT     H141720   5.659   6.446   0.715
13826WAT     H241721   5.804   6.517   0.739
13827WAT      O41722   1.898   9.516   3.797
13827WAT     H141723   1.935   9.603   3.830
13827WAT     H241724   1.973   9.452   3.781
13828WAT      O41725   8.559   3.205   3.481
13828WAT     H141726   8.609   3.125   3.514
13828WAT     H241727   8.536   3.194   3.385
13829WAT      O41728   2.401   8.268   9.046
13829WAT     H141729   2.463   8.204   9.001
13829WAT     H241730   2.341   8.310   8.977
13830WAT      O41731   8.516   3.873   1.114
13830WAT     H141732   8.538   3.941   1.184
13830WAT     H241733   8.419   3.850   1.119
13831WAT      O41734   5.969   7.497   1.166
13831WAT     H141735   5.928   7.414   1.204
13831WAT     H241736   6.050   7.521   1.219
13832WAT      O41737   0.976   5.222   7.397
13832WAT     H141738   0.956   5.270   7.483
13832WAT     H241739   1.036   5.278   7.341
13833WAT      O41740   8.333   3.922   5.834
13833WAT     H141741   8.361   3.877   5.918
13833WAT     H241742   8.239   3.956   5.843
13834WAT      O41743   1.645   7.031   2.352
13834WAT     H141744   1.628   7.129   2.351
13834WAT     H241745   1.655   6.999   2.446
13835WAT      O41746   7.567   7.422   5.763
13835WAT     H141747   7.572   7.503   5.705
13835WAT     H241748   7.542   7.449   5.856
13836WAT      O41749   2.590   8.343   3.929
13836WAT     H141750   2.564   8.261   3.981
13836WAT     H241751   2.664   8.390   3.977
13837WAT      O41752   6.178   3.983   3.291
13837WAT     H141753   6.174   3.997   3.390
13837WAT     H241754   6.274   3.976   3.262
13838WAT      O41755   1.432   1.642   3.660
13838WAT     H141756   1.452   1.591   3.744
13838WAT     H241757   1.375   1.721   3.682
13839WAT      O41758   6.097   4.553   0.222
13839WAT     H141759   6.135   4.524   0.310
13839WAT     H241760   5.998   4.565   0.230
13840WAT      O41761   7.706   0.035   3.093
13840WAT     H141762   7.669  -0.058   3.088
13840WAT     H241763   7.675   0.079   3.177
13841WAT      O41764   8.265   0.503   4.689
13841WAT     H141765   8.328   0.576   4.718
13841WAT     H241766   8.176   0.516   4.733
13842WAT      O41767   7.546   9.258   2.886
13842WAT     H141768   7.570   9.193   2.957
13842WAT     H241769   7.616   9.257   2.814
13843WAT      O41770   0.827   1.558   0.068
13843WAT     H141771   0.871   1.558   0.157
13843WAT     H241772   0.872   1.492   0.008
13844WAT      O41773   1.920   1.964   8.639
13844WAT     H141774   1.933   1.867   8.621
13844WAT     H241775   1.978   1.992   8.716
13845WAT      O41776   4.929   0.684   0.009
13845WAT     H141777   4.847   0.710  -0.043
13845WAT     H241778   4.901   0.655   0.100
13846WAT      O41779   9.651   0.663   2.030
13846WAT     H141780   9.715   0.645   1.956
13846WAT     H241781   9.578   0.723   1.997
13847WAT      O41782   0.300   6.885   9.416
13847WAT     H141783   0.305   6.835   9.330
13847WAT     H241784   0.277   6.823   9.490
13848WAT      O41785   8.303   8.775   7.604
13848WAT     H141786   8.387   8.758   7.552
13848WAT     H241787   8.292   8.705   7.673
13849WAT      O41788   2.177   7.292   2.928
13849WAT     H141789   2.166   7.357   2.852
13849WAT     H241790   2.264   7.244   2.917
13850WAT      O41791   1.144   2.755   6.927
13850WAT     H141792   1.192   2.696   6.993
13850WAT     H241793   1.084   2.700   6.870
13851WAT      O41794   6.910   8.906   2.350
13851WAT     H141795   6.822   8.953   2.342
13851WAT     H241796   6.899   8.824   2.407
13852WAT      O41797   2.498   3.904   3.730
13852WAT     H141798   2.416   3.852   3.751
13852WAT     H241799   2.568   3.842   3.694
13853WAT      O41800   3.339   2.082   2.885
13853WAT     H141801   3.334   2.010   2.816
13853WAT     H241802   3.422   2.135   2.871
13854WAT      O41803   4.362   6.725   6.569
13854WAT     H141804   4.402   6.731   6.661
13854WAT     H241805   4.263   6.734   6.575
13855WAT      O41806   7.325   3.037   0.569
13855WAT     H141807   7.411   3.052   0.618
13855WAT     H241808   7.292   3.124   0.532
13856WAT      O41809   9.310   6.239   9.245
13856WAT     H141810   9.219   6.280   9.235
13856WAT     H241811   9.311   6.179   9.325
13857WAT      O41812   8.507   3.953   3.641
13857WAT     H141813   8.488   4.007   3.723
13857WAT     H241814   8.592   3.983   3.599
13858WAT      O41815   3.308   1.278   4.298
13858WAT     H141816   3.316   1.202   4.233
13858WAT     H241817   3.213   1.309   4.301
13859WAT      O41818   0.395   3.616   6.666
13859WAT     H141819   0.356   3.562   6.592
13859WAT     H241820   0.330   3.620   6.742
13860WAT      O41821   7.712   7.499   6.670
13860WAT     H141822   7.701   7.584   6.722
13860WAT     H241823   7.622   7.464   6.645
13861WAT      O41824   6.220   1.287   1.357
13861WAT     H141825   6.167   1.311   1.276
13861WAT     H241826   6.221   1.188   1.368
13862WAT      O41827   8.156   2.361   9.199
13862WAT     H141828   8.067   2.318   9.214
13862WAT     H241829   8.226   2.313   9.253
13863WAT      O41830   6.798   5.607   0.386
13863WAT     H141831   6.842   5.647   0.466
13863WAT     H241832   6.704   5.639   0.380
13864WAT      O41833   1.509   9.831   4.471
13864WAT     H141834   1.511   9.839   4.372
13864WAT     H241835   1.590   9.782   4.502
13865WAT      O41836   0.838   1.066   6.760
13865WAT     H141837   0.755   1.121   6.768
13865WAT     H241838   0.910   1.106   6.817
13866WAT      O41839   1.724   6.163   8.491
13866WAT     H141840   1.731   6.076   8.540
13866WAT     H241841   1.761   6.236   8.548
13867WAT      O41842   1.888   2.551   2.558
13867WAT     H141843   1.832   2.479   2.599
13867WAT     H241844   1.913   2.618   2.628
13868WAT      O41845   9.472   0.313   1.989
13868WAT     H141846   9.402   0.243   2.006
13868WAT     H241847   9.453   0.393   2.046
13869WAT      O41848   1.379   8.578   5.203
13869WAT     H141849   1.294   8.567   5.152
13869WAT     H241850   1.448   8.515   5.168
13870WAT      O41851   4.907   4.889   8.000
13870WAT     H141852   4.816   4.891   8.042
13870WAT     H241853   4.921   4.972   7.947
13871WAT      O41854   2.036   3.663   8.376
13871WAT     H141855   2.056   3.755   8.342
13871WAT     H241856   1.970   3.619   8.315
13872WAT      O41857   4.564   0.321   8.945
13872WAT     H141858   4.467   0.295   8.943
13872WAT     H241859   4.573   0.408   8.994
13873WAT      O41860   3.777   8.901   8.321
13873WAT     H141861   3.817   8.837   8.256
13873WAT     H241862   3.790   8.995   8.289
13874WAT      O41863   3.630   5.586   0.111
13874WAT     H141864   3.691   5.635   0.049
13874WAT     H241865   3.631   5.488   0.089
13875WAT      O41866   0.074   1.076   2.666
13875WAT     H141867   0.078   1.079   2.766
13875WAT     H241868  -0.006   1.127   2.634
13876WAT      O41869   8.054   9.422   2.167
13876WAT     H141870   8.043   9.340   2.223
13876WAT     H241871   8.008   9.407   2.079
13877WAT      O41872   6.347   8.410   3.550
13877WAT     H141873   6.308   8.429   3.460
13877WAT     H241874   6.273   8.402   3.617
13878WAT      O41875   9.695   4.121   8.460
13878WAT     H141876   9.639   4.151   8.538
13878WAT     H241877   9.647   4.142   8.375
13879WAT      O41878   6.487   9.208   3.400
13879WAT     H141879   6.526   9.201   3.492
13879WAT     H241880   6.432   9.127   3.380
13880WAT      O41881   0.427   5.700   0.484
13880WAT     H141882   0.397   5.605   0.478
13880WAT     H241883   0.477   5.715   0.569
13881WAT      O41884   1.489   7.360   7.622
13881WAT     H141885   1.503   7.356   7.721
13881WAT     H241886   1.436   7.280   7.593
13882WAT      O41887   1.994   5.787   2.984
13882WAT     H141888   2.018   5.774   3.080
13882WAT     H241889   2.053   5.731   2.926
13883WAT      O41890   1.621   3.948   3.685
13883WAT     H141891   1.552   3.913   3.747
13883WAT     H241892   1.581   4.020   3.628
13884WAT      O41893   7.478   2.410   3.247
13884WAT     H141894   7.465   2.313   3.268
13884WAT     H241895   7.390   2.450   3.218
13885WAT      O41896   0.868   7.483   4.834
13885WAT     H141897   0.840   7.458   4.927
13885WAT     H241898   0.803   7.447   4.768
13886WAT      O41899   6.384   2.687   5.969
13886WAT     H141900   6.414   2.605   6.017
13886WAT     H241901   6.294   2.714   6.001
13887WAT      O41902   6.619   2.152   5.666
13887WAT     H141903   6.616   2.187   5.759
13887WAT     H241904   6.697   2.089   5.657
13888WAT      O41905   3.437   1.485   8.095
13888WAT     H141906   3.441   1.583   8.116
13888WAT     H241907   3.529   1.448   8.090
13889WAT      O41908   8.544   0.250   8.710
13889WAT     H141909   8.610   0.178   8.688
13889WAT     H241910   8.569   0.333   8.661
13890WAT      O41911   9.483   0.842   8.779
13890WAT     H141912   9.522   0.756   8.812
13890WAT     H241913   9.398   0.823   8.730
13891WAT      O41914   2.022   1.578   3.532
13891WAT     H141915   2.025   1.642   3.609
13891WAT     H241916   2.115   1.555   3.504
13892WAT      O41917   1.373   4.286   4.797
13892WAT     H141918   1.282   4.245   4.802
13892WAT     H241919   1.439   4.225   4.841
13893WAT      O41920   3.963   5.774   0.732
13893WAT     H141921   4.057   5.742   0.716
13893WAT     H241922   3.906   5.747   0.655
13894WAT      O41923   1.288   1.845   1.320
13894WAT     H141924   1.237   1.911   1.264
13894WAT     H241925   1.360   1.893   1.371
13895WAT      O41926   4.018   5.479   0.432
13895WAT     H141927   3.935   5.480   0.487
13895WAT     H241928   3.997   5.443   0.341
13896WAT      O41929   1.962   6.889   2.381
13896WAT     H141930   2.010   6.975   2.362
13896WAT     H241931   2.025   6.823   2.421
13897WAT      O41932   9.496   7.250   9.868
13897WAT     H141933   9.521   7.342   9.898
13897WAT     H241934   9.400   7.249   9.839
13898WAT      O41935   5.170   9.341   5.685
13898WAT     H141936   5.225   9.282   5.626
13898WAT     H241937   5.151   9.427   5.637
13899WAT      O41938   9.707   7.502   7.893
13899WAT     H141939   9.618   7.527   7.930
13899WAT     H241940   9.776   7.568   7.922
13900WAT      O41941   1.068   1.520   9.532
13900WAT     H141942   1.111   1.567   9.454
13900WAT     H241943   0.976   1.491   9.506
13901WAT      O41944   8.585   5.271   5.613
13901WAT     H141945   8.580   5.232   5.705
13901WAT     H241946   8.681   5.279   5.585
13902WAT      O41947   4.829   7.826   6.950
13902WAT     H141948   4.756   7.894   6.941
13902WAT     H241949   4.813   7.751   6.887
13903WAT      O41950   9.781   7.054   9.489
13903WAT     H141951   9.848   7.087   9.556
13903WAT     H241952   9.689   7.060   9.529
13904WAT      O41953   1.935   1.198   7.916
13904WAT     H141954   1.860   1.138   7.889
13904WAT     H241955   1.900   1.277   7.966
13905WAT      O41956   9.688   2.288   0.775
13905WAT     H141957   9.661   2.207   0.723
13905WAT     H241958   9.682   2.369   0.717
13906WAT      O41959   3.866   3.443   3.123
13906WAT     H141960   3.880   3.354   3.081
13906WAT     H241961   3.885   3.515   3.057
13907WAT      O41962   3.984   5.756   7.162
13907WAT     H141963   4.083   5.754   7.175
13907WAT     H241964   3.940   5.772   7.251
13908WAT      O41965   0.216   4.921   3.270
13908WAT     H141966   0.259   4.873   3.346
13908WAT     H241967   0.116   4.918   3.282
13909WAT      O41968   9.038   9.666   5.087
13909WAT     H141969   9.121   9.635   5.134
13909WAT     H241970   9.033   9.623   4.997
13910WAT      O41971   4.239   4.006   3.821
13910WAT     H141972   4.293   3.962   3.750
13910WAT     H241973   4.211   4.097   3.790
13911WAT      O41974   1.933   6.970   7.634
13911WAT     H141975   2.027   6.992   7.660
13911WAT     H241976   1.906   6.883   7.676
13912WAT      O41977   9.084   5.477   9.887
13912WAT     H141978   9.095   5.534   9.805
13912WAT     H241979   9.153   5.503   9.955
13913WAT      O41980   2.358   5.224   8.527
13913WAT     H141981   2.360   5.273   8.614
13913WAT     H241982   2.290   5.265   8.467
13914WAT      O41983   4.511   3.385   7.887
13914WAT     H141984   4.599   3.343   7.906
13914WAT     H241985   4.454   3.383   7.969
13915WAT      O41986   6.404   0.719   9.498
13915WAT     H141987   6.503   0.719   9.487
13915WAT     H241988   6.363   0.652   9.436
13916WAT      O41989   3.723   3.326   9.276
13916WAT     H141990   3.692   3.419   9.291
13916WAT     H241991   3.777   3.322   9.192
13917WAT      O41992   0.242   4.161   1.174
13917WAT     H141993   0.269   4.208   1.090
13917WAT     H241994   0.145   4.138   1.170
13918WAT      O41995   8.179   7.043   9.016
13918WAT     H141996   8.249   7.037   9.087
13918WAT     H241997   8.222   7.030   8.926
13919WAT      O41998   2.344   0.934   3.552
13919WAT     H141999   2.348   1.029   3.519
13919WAT     H242000   2.315   0.934   3.647
13920WAT      O42001   6.172   8.201   0.327
13920WAT     H142002   6.126   8.189   0.415
13920WAT     H242003   6.237   8.276   0.333
13921WAT      O42004   0.440   3.058   2.027
13921WAT     H142005   0.462   2.961   2.036
13921WAT     H242006   0.373   3.084   2.097
13922WAT      O42007   0.525   1.719   5.776
13922WAT     H142008   0.595   1.649   5.766
13922WAT     H242009   0.442   1.678   5.815
13923WAT      O42010   8.551   7.045   6.274
13923WAT     H142011   8.481   7.070   6.341
13923WAT     H242012   8.540   7.100   6.191
13924WAT      O42013   1.477   5.082   1.876
13924WAT     H142014   1.481   5.120   1.784
13924WAT     H242015   1.383   5.087   1.911
13925WAT      O42016   4.182   7.598   7.129
13925WAT     H142017   4.149   7.630   7.218
13925WAT     H242018   4.110   7.545   7.084
13926WAT      O42019   2.669   8.696   6.251
13926WAT     H142020   2.761   8.656   6.259
13926WAT     H242021   2.677   8.796   6.246
13927WAT      O42022   6.903   1.846   4.757
13927WAT     H142023   6.993   1.825   4.796
13927WAT     H242024   6.910   1.847   4.658
13928WAT      O42025   1.665   7.846   5.433
13928WAT     H142026   1.700   7.795   5.354
13928WAT     H242027   1.566   7.857   5.424
13929WAT      O42028   4.263   0.806   4.764
13929WAT     H142029   4.222   0.894   4.790
13929WAT     H242030   4.360   0.807   4.786
13930WAT      O42031   1.741   2.155   6.126
13930WAT     H142032   1.663   2.153   6.064
13930WAT     H242033   1.780   2.247   6.127
13931WAT      O42034   9.583   7.377   6.891
13931WAT     H142035   9.521   7.455   6.903
13931WAT     H242036   9.675   7.404   6.919
13932WAT      O42037   8.146   2.840   0.520
13932WAT     H142038   8.160   2.868   0.615
13932WAT     H242039   8.232   2.850   0.470
13933WAT      O42040   7.460   6.887   4.400
13933WAT     H142041   7.383   6.903   4.338
13933WAT     H242042   7.433   6.820   4.470
13934WAT      O42043   5.408   5.295   6.692
13934WAT     H142044   5.402   5.388   6.727
13934WAT     H242045   5.394   5.296   6.593
13935WAT      O42046   4.682   7.320   8.572
13935WAT     H142047   4.622   7.335   8.650
13935WAT     H242048   4.734   7.403   8.553
13936WAT      O42049   1.472   3.085   5.367
13936WAT     H142050   1.523   3.109   5.285
13936WAT     H242051   1.427   3.167   5.403
13937WAT      O42052   7.469   4.510   8.376
13937WAT     H142053   7.503   4.562   8.298
13937WAT     H242054   7.487   4.413   8.363
13938WAT      O42055   7.683   0.436   3.367
13938WAT     H142056   7.657   0.459   3.273
13938WAT     H242057   7.653   0.508   3.429
13939WAT      O42058   4.108   3.597   0.761
13939WAT     H142059   4.020   3.585   0.716
13939WAT     H242060   4.097   3.588   0.860
13940WAT      O42061   5.604   8.327   3.361
13940WAT     H142062   5.639   8.270   3.435
13940WAT     H242063   5.516   8.366   3.386
13941WAT      O42064   6.943   2.971   0.508
13941WAT     H142065   6.904   2.993   0.419
13941WAT     H242066   6.876   2.923   0.564
13942WAT      O42067   1.547   5.049   2.808
13942WAT     H142068   1.636   5.043   2.852
13942WAT     H242069   1.483   4.988   2.854
13943WAT      O42070   3.159   4.785   8.596
13943WAT     H142071   3.156   4.832   8.508
13943WAT     H242072   3.073   4.735   8.610
13944WAT      O42073   9.310   2.362   2.283
13944WAT     H142074   9.241   2.292   2.265
13944WAT     H242075   9.400   2.320   2.283
13945WAT      O42076   7.122   9.650   1.314
13945WAT     H142077   7.200   9.632   1.374
13945WAT     H242078   7.155   9.669   1.222
13946WAT      O42079   9.100   3.099   8.925
13946WAT     H142080   9.124   3.064   9.016
13946WAT     H242081   9.027   3.043   8.886
13947WAT      O42082   5.515   2.151   0.640
13947WAT     H142083   5.499   2.111   0.550
13947WAT     H242084   5.450   2.114   0.706
13948WAT      O42085   9.533   0.062   2.180
13948WAT     H142086   9.582   0.149   2.183
13948WAT     H242087   9.517   0.030   2.273
13949WAT      O42088   5.795   9.271   6.243
13949WAT     H142089   5.706   9.303   6.275
13949WAT     H242090   5.828   9.329   6.169
13950WAT      O42091   4.888   4.227   4.202
13950WAT     H142092   4.834   4.296   4.152
13950WAT     H242093   4.826   4.161   4.244
13951WAT      O42094   7.653   8.080   0.467
13951WAT     H142095   7.598   8.041   0.541
13951WAT     H242096   7.596   8.089   0.385
13952WAT      O42097   4.560   3.036   2.095
13952WAT     H142098   4.553   3.087   2.181
13952WAT     H242099   4.576   3.101   2.020
13953WAT      O42100   2.575   7.996   3.576
13953WAT     H142101   2.514   7.932   3.530
13953WAT     H242102   2.658   8.008   3.522
13954WAT      O42103   0.988   5.497   9.501
13954WAT     H142104   1.075   5.492   9.453
13954WAT     H242105   0.918   5.533   9.439
13955WAT      O42106   4.981   5.043   7.531
13955WAT     H142107   5.017   5.135   7.513
13955WAT     H242108   5.056   4.978   7.538
13956WAT      O42109   3.107   0.953   7.315
13956WAT     H142110   3.091   0.986   7.222
13956WAT     H242111   3.149   0.862   7.312
13957WAT      O42112   2.025   3.613   4.920
13957WAT     H142113   2.115   3.572   4.911
13957WAT     H242114   2.024   3.675   4.999
13958WAT      O42115   7.369   4.034   3.684
13958WAT     H142116   7.350   3.943   3.647
13958WAT     H242117   7.425   4.025   3.766
13959WAT      O42118   0.150   9.753   7.315
13959WAT     H142119   0.066   9.807   7.310
13959WAT     H242120   0.139   9.670   7.260
13960WAT      O42121   3.036   1.890   2.262
13960WAT     H142122   3.062   1.926   2.173
13960WAT     H242123   3.114   1.894   2.324
13961WAT      O42124   7.137   1.417   2.714
13961WAT     H142125   7.162   1.471   2.793
13961WAT     H242126   7.122   1.322   2.742
13962WAT      O42127   3.772   2.285   3.352
13962WAT     H142128   3.741   2.326   3.437
13962WAT     H242129   3.867   2.310   3.335
13963WAT      O42130   8.717   9.375   0.920
13963WAT     H142131   8.665   9.342   0.841
13963WAT     H242132   8.792   9.433   0.888
13964WAT      O42133   6.837   4.623   0.883
13964WAT     H142134   6.797   4.569   0.808
13964WAT     H242135   6.796   4.594   0.970
13965WAT      O42136   1.465   8.603   5.462
13965WAT     H142137   1.563   8.587   5.447
13965WAT     H242138   1.414   8.580   5.379
13966WAT      O42139   5.404   0.124   9.379
13966WAT     H142140   5.407   0.050   9.447
13966WAT     H242141   5.345   0.096   9.303
13967WAT      O42142   8.520   6.663   7.196
13967WAT     H142143   8.480   6.593   7.254
13967WAT     H242144   8.617   6.642   7.179
13968WAT      O42145   6.237   3.007   8.267
13968WAT     H142146   6.327   3.005   8.223
13968WAT     H242147   6.200   2.914   8.271
13969WAT      O42148   7.727   5.397   6.646
13969WAT     H142149   7.771   5.366   6.730
13969WAT     H242150   7.635   5.430   6.666
13970WAT      O42151   9.739   7.283   1.506
13970WAT     H142152   9.832   7.318   1.505
13970WAT     H242153   9.695   7.301   1.418
13971WAT      O42154   8.639   6.360   6.613
13971WAT     H142155   8.736   6.385   6.618
13971WAT     H242156   8.583   6.436   6.646
13972WAT      O42157   4.049   1.482   1.020
13972WAT     H142158   4.073   1.493   1.117
13972WAT     H242159   3.963   1.432   1.013
13973WAT      O42160   3.866   6.829   7.533
13973WAT     H142161   3.944   6.787   7.579
13973WAT     H242162   3.898   6.877   7.451
13974WAT      O42163   7.024   3.643   7.085
13974WAT     H142164   7.078   3.666   7.004
13974WAT     H242165   7.034   3.545   7.106
13975WAT      O42166   2.265   8.055   0.385
13975WAT     H142167   2.221   8.027   0.471
13975WAT     H242168   2.363   8.068   0.400
13976WAT      O42169   0.581   1.438   1.257
13976WAT     H142170   0.517   1.429   1.180
13976WAT     H242171   0.539   1.495   1.327
13977WAT      O42172   0.454   3.856   6.528
13977WAT     H142173   0.425   3.760   6.528
13977WAT     H242174   0.503   3.876   6.612
13978WAT      O42175   3.617   0.278   6.209
13978WAT     H142176   3.680   0.354   6.193
13978WAT     H242177   3.561   0.264   6.127
13979WAT      O42178   7.793   4.507   8.591
13979WAT     H142179   7.700   4.515   8.627
13979WAT     H242180   7.858   4.519   8.666
13980WAT      O42181   4.708   8.747   6.538
13980WAT     H142182   4.781   8.736   6.471
13980WAT     H242183   4.737   8.711   6.627
13981WAT      O42184   7.538   6.753   4.122
13981WAT     H142185   7.549   6.852   4.131
13981WAT     H242186   7.446   6.733   4.087
13982WAT      O42187   8.182   8.865   9.755
13982WAT     H142188   8.191   8.933   9.827
13982WAT     H242189   8.241   8.890   9.678
13983WAT      O42190   8.201   6.147   9.068
13983WAT     H142191   8.113   6.162   9.114
13983WAT     H242192   8.261   6.095   9.129
13984WAT      O42193   4.777   6.585   8.287
13984WAT     H142194   4.735   6.544   8.206
13984WAT     H242195   4.876   6.576   8.281
13985WAT      O42196   1.786   9.050   6.578
13985WAT     H142197   1.788   9.127   6.515
13985WAT     H242198   1.757   9.082   6.669
13986WAT      O42199   5.137   5.297   0.548
13986WAT     H142200   5.056   5.269   0.600
13986WAT     H242201   5.188   5.216   0.520
13987WAT      O42202   7.527   0.304   1.961
13987WAT     H142203   7.502   0.318   2.057
13987WAT     H242204   7.481   0.373   1.904
13988WAT      O42205   4.340   8.346   5.945
13988WAT     H142206   4.345   8.446   5.947
13988WAT     H242207   4.293   8.313   6.027
13989WAT      O42208   8.462   2.834   8.239
13989WAT     H142209   8.536   2.890   8.203
13989WAT     H242210   8.499   2.747   8.272
13990WAT      O42211   7.550   8.161   1.985
13990WAT     H142212   7.589   8.252   1.974
13990WAT     H242213   7.543   8.117   1.895
13991WAT      O42214   1.162   0.217   2.347
13991WAT     H142215   1.097   0.145   2.323
13991WAT     H242216   1.174   0.279   2.270
13992WAT      O42217   3.829   1.017   2.620
13992WAT     H142218   3.897   1.034   2.549
13992WAT     H242219   3.873   0.971   2.698
13993WAT      O42220   1.817   4.863   7.124
13993WAT     H142221   1.839   4.845   7.028
13993WAT     H242222   1.898   4.847   7.180
13994WAT      O42223   5.701   2.342   6.145
13994WAT     H142224   5.758   2.285   6.085
13994WAT     H242225   5.727   2.438   6.136
13995WAT      O42226   9.138   5.200   9.813
13995WAT     H142227   9.153   5.185   9.715
13995WAT     H242228   9.103   5.292   9.828
13996WAT      O42229   6.214   1.606   1.941
13996WAT     H142230   6.295   1.661   1.963
13996WAT     H242231   6.132   1.657   1.966
13997WAT      O42232   5.887   8.318   0.286
13997WAT     H142233   5.927   8.363   0.206
13997WAT     H242234   5.808   8.264   0.257
13998WAT      O42235   5.327   0.165   0.495
13998WAT     H142236   5.231   0.178   0.470
13998WAT     H242237   5.353   0.070   0.479
13999WAT      O42238   8.234   9.020   7.921
13999WAT     H142239   8.231   9.104   7.977
13999WAT     H242240   8.283   9.039   7.836
14000WAT      O42241   6.913   8.472   8.457
14000WAT     H142242   6.853   8.546   8.488
14000WAT     H242243   6.999   8.512   8.424
14001WAT      O42244   1.241   8.339   6.644
14001WAT     H142245   1.295   8.255   6.651
14001WAT     H242246   1.203   8.346   6.553
14002WAT      O42247   8.582   0.355   4.701
14002WAT     H142248   8.562   0.261   4.728
14002WAT     H242249   8.604   0.409   4.782
14003WAT      O42250   5.636   7.127   3.145
14003WAT     H142251   5.713   7.150   3.085
14003WAT     H242252   5.567   7.077   3.093
14004WAT      O42253   3.645   8.157   8.821
14004WAT     H142254   3.578   8.093   8.858
14004WAT     H242255   3.628   8.248   8.858
14005WAT      O42256   8.673   6.443   0.821
14005WAT     H142257   8.640   6.537   0.815
14005WAT     H242258   8.622   6.394   0.892
14006WAT      O42259   7.499   2.730   4.797
14006WAT     H142260   7.574   2.689   4.744
14006WAT     H242261   7.446   2.790   4.737
14007WAT      O42262   4.941   7.976   4.715
14007WAT     H142263   5.014   7.914   4.744
14007WAT     H242264   4.903   7.944   4.628
14008WAT      O42265   6.616   3.797   6.338
14008WAT     H142266   6.651   3.883   6.374
14008WAT     H242267   6.683   3.756   6.277
14009WAT      O42268   2.838   5.988   4.123
14009WAT     H142269   2.916   5.927   4.136
14009WAT     H242270   2.754   5.939   4.144
14010WAT      O42271   8.158   6.281   0.207
14010WAT     H142272   8.080   6.327   0.250
14010WAT     H242273   8.183   6.329   0.123
14011WAT      O42274   7.937   6.759   7.512
14011WAT     H142275   8.014   6.810   7.553
14011WAT     H242276   7.917   6.678   7.568
14012WAT      O42277   6.191   4.807   4.437
14012WAT     H142278   6.259   4.879   4.420
14012WAT     H242279   6.228   4.741   4.501
14013WAT      O42280   6.530   3.486   6.705
14013WAT     H142281   6.575   3.480   6.794
14013WAT     H242282   6.465   3.562   6.706
14014WAT      O42283   8.531   9.435   1.225
14014WAT     H142284   8.513   9.353   1.280
14014WAT     H242285   8.627   9.461   1.235
14015WAT      O42286   2.104   3.824   6.137
14015WAT     H142287   2.056   3.904   6.101
14015WAT     H242288   2.054   3.789   6.217
14016WAT      O42289   4.446   7.417   3.153
14016WAT     H142290   4.524   7.432   3.213
14016WAT     H242291   4.473   7.362   3.074
14017WAT      O42292   0.746   6.996   0.792
14017WAT     H142293   0.815   6.928   0.770
14017WAT     H242294   0.773   7.046   0.874
14018WAT      O42295   5.567   3.626   7.588
14018WAT     H142296   5.487   3.565   7.582
14018WAT     H242297   5.536   3.720   7.599
14019WAT      O42298   6.488   8.405   6.981
14019WAT     H142299   6.460   8.464   7.057
14019WAT     H242300   6.584   8.424   6.958
14020WAT      O42301   6.206   7.990   9.821
14020WAT     H142302   6.176   8.081   9.851
14020WAT     H242303   6.135   7.923   9.843
14021WAT      O42304   5.826   2.508   5.406
14021WAT     H142305   5.760   2.503   5.331
14021WAT     H242306   5.777   2.501   5.493
14022WAT      O42307   2.866   6.812   1.648
14022WAT     H142308   2.959   6.840   1.672
14022WAT     H242309   2.810   6.805   1.731
14023WAT      O42310   2.034   0.815   5.990
14023WAT     H142311   2.010   0.877   6.064
14023WAT     H242312   2.111   0.758   6.017
14024WAT      O42313   7.267   2.725   4.226
14024WAT     H142314   7.256   2.659   4.152
14024WAT     H242315   7.270   2.817   4.188
14025WAT      O42316   4.928   8.719   8.551
14025WAT     H142317   4.955   8.815   8.547
14025WAT     H242318   4.831   8.713   8.576
14026WAT      O42319   9.668   4.887   6.848
14026WAT     H142320   9.682   4.817   6.779
14026WAT     H242321   9.644   4.974   6.804
14027WAT      O42322   8.927   3.496   9.061
14027WAT     H142323   8.837   3.483   9.020
14027WAT     H242324   8.985   3.549   8.999
14028WAT      O42325   2.029   5.667   4.546
14028WAT     H142326   2.004   5.671   4.643
14028WAT     H242327   2.033   5.571   4.517
14029WAT      O42328   5.025   2.848   0.140
14029WAT     H142329   5.122   2.873   0.133
14029WAT     H242330   4.978   2.875   0.057
14030WAT      O42331   1.441   1.787   8.797
14030WAT     H142332   1.462   1.839   8.714
14030WAT     H242333   1.447   1.848   8.877
14031WAT      O42334   6.092   8.536   5.143
14031WAT     H142335   6.108   8.628   5.107
14031WAT     H242336   6.105   8.469   5.069
14032WAT      O42337   8.834   8.651   1.610
14032WAT     H142338   8.872   8.605   1.530
14032WAT     H242339   8.898   8.719   1.644
14033WAT      O42340   9.432   5.706   8.667
14033WAT     H142341   9.468   5.628   8.719
14033WAT     H242342   9.474   5.708   8.577
14034WAT      O42343   4.817   0.948   0.767
14034WAT     H142344   4.724   0.910   0.770
14034WAT     H242345   4.832   1.006   0.847
14035WAT      O42346   0.355   9.435   1.710
14035WAT     H142347   0.343   9.436   1.611
14035WAT     H242348   0.407   9.353   1.736
14036WAT      O42349   9.390   6.845   6.307
14036WAT     H142350   9.365   6.852   6.403
14036WAT     H242351   9.425   6.753   6.287
14037WAT      O42352   4.039   5.200   8.836
14037WAT     H142353   4.086   5.186   8.923
14037WAT     H242354   4.104   5.233   8.767
14038WAT      O42355   2.777   0.508   3.352
14038WAT     H142356   2.749   0.604   3.345
14038WAT     H242357   2.765   0.463   3.264
14039WAT      O42358   1.608   9.712   0.146
14039WAT     H142359   1.662   9.651   0.088
14039WAT     H242360   1.650   9.716   0.237
14040WAT      O42361   6.006   3.930   7.885
14040WAT     H142362   6.104   3.947   7.892
14040WAT     H242363   5.972   3.895   7.972
14041WAT      O42364   1.796   7.207   0.895
14041WAT     H142365   1.761   7.121   0.857
14041WAT     H242366   1.724   7.275   0.896
14042WAT      O42367   2.547   2.386   6.114
14042WAT     H142368   2.622   2.396   6.049
14042WAT     H242369   2.460   2.395   6.066
14043WAT      O42370   7.261   3.526   2.363
14043WAT     H142371   7.256   3.605   2.302
14043WAT     H242372   7.179   3.469   2.351
14044WAT      O42373   2.708   9.489   3.350
14044WAT     H142374   2.659   9.465   3.267
14044WAT     H242375   2.751   9.407   3.389
14045WAT      O42376   4.297   2.953   1.204
14045WAT     H142377   4.331   2.923   1.115
14045WAT     H242378   4.329   3.046   1.223
14046WAT      O42379   4.264   1.903   6.544
14046WAT     H142380   4.268   2.002   6.530
14046WAT     H242381   4.227   1.884   6.635
14047WAT      O42382   0.369   6.133   3.251
14047WAT     H142383   0.279   6.167   3.223
14047WAT     H242384   0.418   6.205   3.300
14048WAT      O42385   3.894   3.972   1.376
14048WAT     H142386   3.962   3.932   1.437
14048WAT     H242387   3.815   3.911   1.370
14049WAT      O42388   0.189   6.088   8.268
14049WAT     H142389   0.274   6.135   8.243
14049WAT     H242390   0.206   6.030   8.348
14050WAT      O42391   5.264   0.046   4.753
14050WAT     H142392   5.291   0.003   4.667
14050WAT     H242393   5.265  -0.022   4.826
14051WAT      O42394   0.977   9.105   4.113
14051WAT     H142395   0.909   9.041   4.077
14051WAT     H242396   0.935   9.196   4.122
14052WAT      O42397   3.579   1.825   0.568
14052WAT     H142398   3.670   1.796   0.596
14052WAT     H242399   3.577   1.925   0.559
14053WAT      O42400   4.357   4.723   0.159
14053WAT     H142401   4.297   4.802   0.163
14053WAT     H242402   4.450   4.750   0.182
14054WAT      O42403   8.325   9.081   4.501
14054WAT     H142404   8.276   9.043   4.423
14054WAT     H242405   8.417   9.041   4.505
14055WAT      O42406   4.359   4.847   5.479
14055WAT     H142407   4.268   4.843   5.436
14055WAT     H242408   4.421   4.900   5.421
14056WAT      O42409   8.848   8.654   5.045
14056WAT     H142410   8.881   8.748   5.061
14056WAT     H242411   8.878   8.596   5.121
14057WAT      O42412   7.648   9.033   0.771
14057WAT     H142413   7.550   9.053   0.777
14057WAT     H242414   7.672   8.962   0.837
14058WAT      O42415   4.909   1.939   4.636
14058WAT     H142416   4.977   1.947   4.708
14058WAT     H242417   4.841   1.869   4.661
14059WAT      O42418   6.131   1.839   4.944
14059WAT     H142419   6.136   1.920   5.004
14059WAT     H242420   6.062   1.854   4.874
14060WAT      O42421   5.379   2.795   7.654
14060WAT     H142422   5.473   2.809   7.625
14060WAT     H242423   5.317   2.830   7.584
14061WAT      O42424   5.183   9.734   3.991
14061WAT     H142425   5.083   9.732   3.988
14061WAT     H242426   5.219   9.659   3.935
14062WAT      O42427   6.485   6.283   6.957
14062WAT     H142428   6.472   6.371   6.910
14062WAT     H242429   6.470   6.295   7.055
14063WAT      O42430   6.445   1.567   4.173
14063WAT     H142431   6.395   1.567   4.260
14063WAT     H242432   6.380   1.567   4.097
14064WAT      O42433   0.830   5.254   8.052
14064WAT     H142434   0.826   5.192   7.974
14064WAT     H242435   0.759   5.324   8.043
14065WAT      O42436   8.930   6.912   1.479
14065WAT     H142437   8.974   6.988   1.432
14065WAT     H242438   8.867   6.866   1.417
14066WAT      O42439   1.727   0.143   1.324
14066WAT     H142440   1.811   0.107   1.364
14066WAT     H242441   1.668   0.066   1.298
14067WAT      O42442   5.438   7.182   3.803
14067WAT     H142443   5.426   7.142   3.894
14067WAT     H242444   5.510   7.252   3.807
14068WAT      O42445   5.408   0.077   8.958
14068WAT     H142446   5.402   0.148   8.887
14068WAT     H242447   5.350   0.102   9.036
14069WAT      O42448   6.486   6.562   5.381
14069WAT     H142449   6.488   6.529   5.476
14069WAT     H242450   6.418   6.511   5.329
14070WAT      O42451   2.676   3.377   9.512
14070WAT     H142452   2.661   3.476   9.514
14070WAT     H242453   2.757   3.357   9.455
14071WAT      O42454   1.349   7.103   8.952
14071WAT     H142455   1.432   7.140   8.909
14071WAT     H242456   1.337   7.008   8.925
14072WAT      O42457   1.750   1.084   0.331
14072WAT     H142458   1.818   1.119   0.396
14072WAT     H242459   1.795   1.033   0.258
14073WAT      O42460   4.316   2.776   3.035
14073WAT     H142461   4.385   2.761   2.963
14073WAT     H242462   4.343   2.726   3.117
14074WAT      O42463   9.052   0.861   5.851
14074WAT     H142464   9.050   0.774   5.901
14074WAT     H242465   9.008   0.849   5.763
14075WAT      O42466   9.042   8.466   7.913
14075WAT     H142467   9.127   8.417   7.892
14075WAT     H242468   9.005   8.432   8.000
14076WAT      O42469   9.230   3.357   7.271
14076WAT     H142470   9.289   3.290   7.225
14076WAT     H242471   9.163   3.393   7.205
14077WAT      O42472   8.146   0.444   5.797
14077WAT     H142473   8.143   0.452   5.697
14077WAT     H242474   8.214   0.374   5.823
14078WAT      O42475   5.257   2.054   6.972
14078WAT     H142476   5.172   2.040   6.921
14078WAT     H242477   5.335   2.040   6.911
14079WAT      O42478   6.679   4.755   7.969
14079WAT     H142479   6.678   4.851   7.940
14079WAT     H242480   6.630   4.700   7.902
14080WAT      O42481   3.749   2.416   4.934
14080WAT     H142482   3.718   2.321   4.941
14080WAT     H242483   3.675   2.472   4.896
14081WAT      O42484   1.554   2.374   0.684
14081WAT     H142485   1.604   2.311   0.743
14081WAT     H242486   1.547   2.336   0.592
14082WAT      O42487   8.693   2.315   3.362
14082WAT     H142488   8.604   2.340   3.325
14082WAT     H242489   8.681   2.274   3.453
14083WAT      O42490   7.170   9.349   4.951
14083WAT     H142491   7.242   9.353   4.881
14083WAT     H242492   7.174   9.431   5.008
14084WAT      O42493   6.352   4.208   3.498
14084WAT     H142494   6.316   4.278   3.559
14084WAT     H242495   6.344   4.118   3.543
14085WAT      O42496   9.614   7.242   4.634
14085WAT     H142497   9.679   7.208   4.702
14085WAT     H242498   9.663   7.295   4.566
14086WAT      O42499   2.568   5.184   7.007
14086WAT     H142500   2.589   5.101   6.956
14086WAT     H242501   2.650   5.218   7.052
14087WAT      O42502   2.058   5.149   9.697
14087WAT     H142503   2.069   5.051   9.714
14087WAT     H242504   2.138   5.198   9.731
14088WAT      O42505   5.838   5.311   2.248
14088WAT     H142506   5.757   5.254   2.234
14088WAT     H242507   5.826   5.398   2.199
14089WAT      O42508   3.168   8.654   4.996
14089WAT     H142509   3.262   8.686   4.986
14089WAT     H242510   3.167   8.554   4.994
14090WAT      O42511   9.662   5.241   3.856
14090WAT     H142512   9.653   5.142   3.861
14090WAT     H242513   9.591   5.279   3.796
14091WAT      O42514   1.747   7.212   8.389
14091WAT     H142515   1.694   7.146   8.442
14091WAT     H242516   1.747   7.300   8.437
14092WAT      O42517   7.905   7.664   0.828
14092WAT     H142518   7.888   7.700   0.920
14092WAT     H242519   8.004   7.653   0.814
14093WAT      O42520   8.416   3.304   8.299
14093WAT     H142521   8.431   3.292   8.201
14093WAT     H242522   8.327   3.347   8.315
14094WAT      O42523   4.149   7.654   9.885
14094WAT     H142524   4.130   7.578   9.948
14094WAT     H242525   4.157   7.618   9.792
14095WAT      O42526   0.555   8.860   9.418
14095WAT     H142527   0.570   8.772   9.464
14095WAT     H242528   0.499   8.846   9.337
14096WAT      O42529   9.303   9.803   2.765
14096WAT     H142530   9.238   9.842   2.700
14096WAT     H242531   9.261   9.725   2.811
14097WAT      O42532   0.021   7.724   5.092
14097WAT     H142533  -0.038   7.788   5.042
14097WAT     H242534  -0.033   7.647   5.125
14098WAT      O42535   2.500   5.887   5.580
14098WAT     H142536   2.488   5.890   5.679
14098WAT     H242537   2.559   5.962   5.551
14099WAT      O42538   1.406   3.466   3.040
14099WAT     H142539   1.463   3.397   3.083
14099WAT     H242540   1.393   3.543   3.103
14100WAT      O42541   5.393   1.546   9.322
14100WAT     H142542   5.464   1.616   9.313
14100WAT     H242543   5.314   1.572   9.266
14101WAT      O42544   2.323   2.614   9.524
14101WAT     H142545   2.272   2.657   9.449
14101WAT     H242546   2.421   2.616   9.503
14102WAT      O42547   6.388   9.644   5.029
14102WAT     H142548   6.353   9.551   5.020
14102WAT     H242549   6.350   9.687   5.111
14103WAT      O42550   6.028   0.869   0.159
14103WAT     H142551   5.961   0.933   0.195
14103WAT     H242552   6.008   0.777   0.193
14104WAT      O42553   8.246   8.402   0.142
14104WAT     H142554   8.343   8.413   0.120
14104WAT     H242555   8.192   8.463   0.084
14105WAT      O42556   9.329   3.882   9.549
14105WAT     H142557   9.268   3.919   9.478
14105WAT     H242558   9.406   3.836   9.505
14106WAT      O42559   2.783   9.490   8.564
14106WAT     H142560   2.823   9.399   8.553
14106WAT     H242561   2.690   9.481   8.601
14107WAT      O42562   5.198   8.460   1.125
14107WAT     H142563   5.185   8.449   1.026
14107WAT     H242564   5.111   8.447   1.172
14108WAT      O42565   5.290   9.029   0.955
14108WAT     H142566   5.279   9.062   0.862
14108WAT     H242567   5.201   9.006   0.993
14109WAT      O42568   3.586   0.481   9.460
14109WAT     H142569   3.649   0.478   9.538
14109WAT     H242570   3.583   0.574   9.423
14110WAT      O42571   7.436   9.382   9.626
14110WAT     H142572   7.434   9.387   9.726
14110WAT     H242573   7.356   9.430   9.590
14111WAT      O42574   7.721   6.026   4.093
14111WAT     H142575   7.771   6.031   4.007
14111WAT     H242576   7.642   6.086   4.089
14112WAT      O42577   3.733   6.258   3.266
14112WAT     H142578   3.768   6.215   3.349
14112WAT     H242579   3.739   6.194   3.189
14113WAT      O42580   9.111   4.606   3.233
14113WAT     H142581   9.050   4.541   3.278
14113WAT     H242582   9.188   4.557   3.193
14114WAT      O42583   6.815   5.323   4.788
14114WAT     H142584   6.884   5.354   4.854
14114WAT     H242585   6.793   5.227   4.805
14115WAT      O42586   6.396   1.613   7.260
14115WAT     H142587   6.297   1.605   7.270
14115WAT     H242588   6.441   1.571   7.338
14116WAT      O42589   5.956   9.394   3.205
14116WAT     H142590   5.995   9.308   3.238
14116WAT     H242591   5.984   9.410   3.111
14117WAT      O42592   5.080   2.711   4.084
14117WAT     H142593   5.001   2.768   4.065
14117WAT     H242594   5.052   2.632   4.139
14118WAT      O42595   0.375   8.052   8.953
14118WAT     H142596   0.453   8.020   8.900
14118WAT     H242597   0.367   7.997   9.037
14119WAT      O42598   0.180   6.149   0.290
14119WAT     H142599   0.246   6.223   0.295
14119WAT     H242600   0.110   6.162   0.360
14120WAT      O42601   7.151   9.782   9.165
14120WAT     H142602   7.079   9.749   9.105
14120WAT     H242603   7.146   9.881   9.174
14121WAT      O42604   5.854   5.121   7.771
14121WAT     H142605   5.930   5.172   7.731
14121WAT     H242606   5.823   5.167   7.854
14122WAT      O42607   6.254   1.382   3.611
14122WAT     H142608   6.320   1.434   3.665
14122WAT     H242609   6.197   1.328   3.672
14123WAT      O42610   4.653   3.830   1.534
14123WAT     H142611   4.637   3.739   1.496
14123WAT     H242612   4.725   3.876   1.481
14124WAT      O42613   2.424   6.467   5.505
14124WAT     H142614   2.381   6.527   5.574
14124WAT     H242615   2.365   6.462   5.425
14125WAT      O42616   2.120   2.797   7.075
14125WAT     H142617   2.204   2.849   7.058
14125WAT     H242618   2.125   2.709   7.028
14126WAT      O42619   2.333   7.337   2.508
14126WAT     H142620   2.288   7.372   2.590
14126WAT     H242621   2.380   7.252   2.529
14127WAT      O42622   5.316   4.748   4.495
14127WAT     H142623   5.338   4.704   4.408
14127WAT     H242624   5.256   4.688   4.548
14128WAT      O42625   4.564   7.945   7.443
14128WAT     H142626   4.641   7.936   7.507
14128WAT     H242627   4.599   7.975   7.354
14129WAT      O42628   0.623   8.373   5.037
14129WAT     H142629   0.539   8.389   4.985
14129WAT     H242630   0.684   8.452   5.027
14130WAT      O42631   6.343   7.018   0.170
14130WAT     H142632   6.438   7.029   0.197
14130WAT     H242633   6.311   7.101   0.124
14131WAT      O42634   7.326   4.938   3.713
14131WAT     H142635   7.244   4.954   3.658
14131WAT     H242636   7.307   4.961   3.809
14132WAT      O42637   3.656   4.350   1.600
14132WAT     H142638   3.572   4.326   1.551
14132WAT     H242639   3.735   4.313   1.552
14133WAT      O42640   5.788   9.184   7.395
14133WAT     H142641   5.704   9.205   7.446
14133WAT     H242642   5.865   9.229   7.438
14134WAT      O42643   4.343   1.957   5.028
14134WAT     H142644   4.366   1.871   5.074
14134WAT     H242645   4.296   1.938   4.942
14135WAT      O42646   1.370   7.406   8.441
14135WAT     H142647   1.405   7.430   8.350
14135WAT     H242648   1.272   7.427   8.445
14136WAT      O42649   5.189   7.327   5.058
14136WAT     H142650   5.218   7.276   4.977
14136WAT     H242651   5.265   7.334   5.122
14137WAT      O42652   8.774   4.615   8.176
14137WAT     H142653   8.731   4.686   8.119
14137WAT     H242654   8.869   4.640   8.194
14138WAT      O42655   2.522   5.329   7.831
14138WAT     H142656   2.597   5.370   7.779
14138WAT     H242657   2.510   5.377   7.917
14139WAT      O42658   4.371   4.489   8.185
14139WAT     H142659   4.373   4.568   8.247
14139WAT     H242660   4.460   4.479   8.142
14140WAT      O42661   3.162   6.497   3.133
14140WAT     H142662   3.156   6.487   3.034
14140WAT     H242663   3.137   6.590   3.159
14141WAT      O42664   3.921   5.518   7.075
14141WAT     H142665   3.854   5.488   7.143
14141WAT     H242666   3.952   5.610   7.097
14142WAT      O42667   4.876   6.374   9.284
14142WAT     H142668   4.930   6.445   9.238
14142WAT     H242669   4.816   6.329   9.218
14143WAT      O42670   5.971   8.314   2.038
14143WAT     H142671   5.894   8.377   2.034
14143WAT     H242672   5.980   8.278   2.131
14144WAT      O42673   6.417   0.224   2.212
14144WAT     H142674   6.463   0.216   2.301
14144WAT     H242675   6.378   0.316   2.203
14145WAT      O42676   1.158   0.147   8.214
14145WAT     H142677   1.112   0.234   8.229
14145WAT     H242678   1.255   0.156   8.239
14146WAT      O42679   0.775   2.868   5.419
14146WAT     H142680   0.736   2.870   5.327
14146WAT     H242681   0.854   2.929   5.423
14147WAT      O42682   3.693   8.649   7.597
14147WAT     H142683   3.625   8.598   7.544
14147WAT     H242684   3.669   8.746   7.598
14148WAT      O42685   7.458   9.403   8.929
14148WAT     H142686   7.464   9.503   8.926
14148WAT     H242687   7.545   9.363   8.901
14149WAT      O42688   1.118   5.522   7.485
14149WAT     H142689   1.195   5.462   7.469
14149WAT     H242690   1.044   5.471   7.531
14150WAT      O42691   4.524   8.778   0.543
14150WAT     H142692   4.492   8.863   0.501
14150WAT     H242693   4.601   8.798   0.603
14151WAT      O42694   5.427   8.407   6.857
14151WAT     H142695   5.393   8.313   6.858
14151WAT     H242696   5.424   8.445   6.950
14152WAT      O42697   4.212   2.720   3.754
14152WAT     H142698   4.137   2.683   3.699
14152WAT     H242699   4.190   2.814   3.781
14153WAT      O42700   9.513   3.392   1.791
14153WAT     H142701   9.440   3.457   1.771
14153WAT     H242702   9.485   3.331   1.864
14154WAT      O42703   6.692   0.758   5.088
14154WAT     H142704   6.719   0.824   5.158
14154WAT     H242705   6.594   0.766   5.070
14155WAT      O42706   5.856   6.219   1.070
14155WAT     H142707   5.812   6.309   1.078
14155WAT     H242708   5.952   6.231   1.047
14156WAT      O42709   0.199   1.158   4.046
14156WAT     H142710   0.185   1.227   3.975
14156WAT     H242711   0.111   1.114   4.067
14157WAT      O42712   6.305   0.845   7.646
14157WAT     H142713   6.339   0.939   7.644
14157WAT     H242714   6.362   0.790   7.707
14158WAT      O42715   0.307   7.387   5.407
14158WAT     H142716   0.332   7.477   5.371
14158WAT     H242717   0.208   7.374   5.397
14159WAT      O42718   0.895   9.353   7.275
14159WAT     H142719   0.910   9.438   7.326
14159WAT     H242720   0.966   9.344   7.205
14160WAT      O42721   5.306   6.654   0.326
14160WAT     H142722   5.228   6.682   0.270
14160WAT     H242723   5.391   6.676   0.279
14161WAT      O42724   8.582   8.635   6.521
14161WAT     H142725   8.551   8.719   6.477
14161WAT     H242726   8.630   8.578   6.455
14162WAT      O42727   4.913   6.994   4.012
14162WAT     H142728   4.999   6.970   4.055
14162WAT     H242729   4.838   6.946   4.058
14163WAT      O42730   3.010   5.051   3.180
14163WAT     H142731   2.965   5.046   3.269
14163WAT     H242732   3.060   4.966   3.163
14164WAT      O42733   4.290   3.118   4.522
14164WAT     H142734   4.236   3.179   4.580
14164WAT     H242735   4.228   3.052   4.478
14165WAT      O42736   0.948   4.516   3.083
14165WAT     H142737   0.925   4.603   3.040
14165WAT     H242738   1.021   4.529   3.149
14166WAT      O42739   9.845   5.469   9.589
14166WAT     H142740   9.937   5.430   9.581
14166WAT     H242741   9.804   5.475   9.499
14167WAT      O42742   1.276   6.915   8.349
14167WAT     H142743   1.270   6.863   8.434
14167WAT     H242744   1.206   6.885   8.285
14168WAT      O42745   3.050   2.943   3.320
14168WAT     H142746   2.978   2.925   3.387
14168WAT     H242747   3.013   2.929   3.228
14169WAT      O42748   2.766   9.773   9.151
14169WAT     H142749   2.750   9.710   9.228
14169WAT     H242750   2.687   9.771   9.090
14170WAT      O42751   8.150   3.609   0.030
14170WAT     H142752   8.122   3.559  -0.052
14170WAT     H242753   8.093   3.581   0.108
14171WAT      O42754   2.067   0.624   3.546
14171WAT     H142755   1.992   0.677   3.585
14171WAT     H242756   2.076   0.647   3.449
14172WAT      O42757   3.619   9.246   0.489
14172WAT     H142758   3.676   9.263   0.409
14172WAT     H242759   3.523   9.248   0.463
14173WAT      O42760   9.267   7.533   3.399
14173WAT     H142761   9.200   7.504   3.468
14173WAT     H242762   9.228   7.520   3.307
14174WAT      O42763   7.481   0.614   7.667
14174WAT     H142764   7.523   0.542   7.613
14174WAT     H242765   7.449   0.687   7.606
14175WAT      O42766   7.433   0.482   1.230
14175WAT     H142767   7.393   0.515   1.144
14175WAT     H242768   7.372   0.504   1.306
14176WAT      O42769   1.138   1.000   1.453
14176WAT     H142770   1.072   0.987   1.527
14176WAT     H242771   1.116   1.085   1.403
14177WAT      O42772   6.812   3.975   0.551
14177WAT     H142773   6.734   3.918   0.525
14177WAT     H242774   6.869   3.926   0.616
14178WAT      O42775   2.205   1.274   1.182
14178WAT     H142776   2.161   1.219   1.253
14178WAT     H242777   2.272   1.335   1.225
14179WAT      O42778   4.647   4.466   8.203
14179WAT     H142779   4.653   4.391   8.269
14179WAT     H242780   4.696   4.545   8.238
14180WAT      O42781   7.477   5.540   6.632
14180WAT     H142782   7.462   5.634   6.663
14180WAT     H242783   7.495   5.539   6.534
14181WAT      O42784   8.672   0.470   7.436
14181WAT     H142785   8.654   0.557   7.483
14181WAT     H242786   8.654   0.395   7.500
14182WAT      O42787   3.035   0.579   5.506
14182WAT     H142788   3.059   0.543   5.596
14182WAT     H242789   3.113   0.569   5.444
14183WAT      O42790   6.213   8.312   3.124
14183WAT     H142791   6.131   8.270   3.163
14183WAT     H242792   6.236   8.394   3.176
14184WAT      O42793   9.184   1.109   4.489
14184WAT     H142794   9.092   1.137   4.460
14184WAT     H242795   9.177   1.038   4.559
14185WAT      O42796   4.871   4.394   9.179
14185WAT     H142797   4.847   4.414   9.274
14185WAT     H242798   4.890   4.480   9.130
14186WAT      O42799   4.850   2.683   1.821
14186WAT     H142800   4.901   2.705   1.905
14186WAT     H242801   4.841   2.765   1.765
14187WAT      O42802   2.299   9.818   1.039
14187WAT     H142803   2.352   9.891   0.996
14187WAT     H242804   2.248   9.768   0.969
14188WAT      O42805   4.339   1.492   3.224
14188WAT     H142806   4.398   1.455   3.152
14188WAT     H242807   4.248   1.451   3.217
14189WAT      O42808   1.344   3.457   6.448
14189WAT     H142809   1.393   3.502   6.522
14189WAT     H242810   1.322   3.524   6.377
14190WAT      O42811   1.738   8.764   5.890
14190WAT     H142812   1.766   8.743   5.984
14190WAT     H242813   1.777   8.697   5.827
14191WAT      O42814   4.477   7.345   2.343
14191WAT     H142815   4.553   7.407   2.362
14191WAT     H242816   4.506   7.250   2.357
14192WAT      O42817   0.352   2.025   7.897
14192WAT     H142818   0.303   2.050   7.814
14192WAT     H242819   0.449   2.046   7.887
14193WAT      O42820   0.920   5.082   1.969
14193WAT     H142821   0.929   5.011   1.899
14193WAT     H242822   0.900   5.169   1.925
14194WAT      O42823   8.686   3.953   2.296
14194WAT     H142824   8.747   3.991   2.227
14194WAT     H242825   8.646   3.868   2.262
14195WAT      O42826   3.059   7.817   7.958
14195WAT     H142827   3.075   7.813   7.860
14195WAT     H242828   3.058   7.724   7.996
14196WAT      O42829   6.779   5.571   6.387
14196WAT     H142830   6.854   5.513   6.353
14196WAT     H242831   6.778   5.569   6.487
14197WAT      O42832   6.943   0.439   9.753
14197WAT     H142833   6.971   0.392   9.837
14197WAT     H242834   6.845   0.458   9.757
14198WAT      O42835   1.587   8.035   6.153
14198WAT     H142836   1.652   8.104   6.182
14198WAT     H242837   1.630   7.945   6.156
14199WAT      O42838   6.992   4.907   6.793
14199WAT     H142839   6.923   4.916   6.865
14199WAT     H242840   7.080   4.940   6.827
14200WAT      O42841   3.635   4.647   4.318
14200WAT     H142842   3.598   4.570   4.371
14200WAT     H242843   3.735   4.642   4.317
14201WAT      O42844   4.781   2.017   8.333
14201WAT     H142845   4.784   2.117   8.336
14201WAT     H242846   4.871   1.980   8.353
14202WAT      O42847   1.225   8.765   1.857
14202WAT     H142848   1.268   8.689   1.906
14202WAT     H242849   1.148   8.799   1.910
14203WAT      O42850   1.872   3.693   1.347
14203WAT     H142851   1.887   3.696   1.446
14203WAT     H242852   1.821   3.610   1.323
14204WAT      O42853   1.374   5.214   2.651
14204WAT     H142854   1.348   5.183   2.560
14204WAT     H242855   1.431   5.145   2.695
14205WAT      O42856   8.681   0.980   2.989
14205WAT     H142857   8.616   0.947   3.057
14205WAT     H242858   8.770   0.935   3.004
14206WAT      O42859   0.964   8.759   2.239
14206WAT     H142860   1.049   8.811   2.255
14206WAT     H242861   0.907   8.763   2.321
14207WAT      O42862   7.813   5.911   6.125
14207WAT     H142863   7.818   5.985   6.191
14207WAT     H242864   7.719   5.902   6.091
14208WAT      O42865   7.349   6.738   5.496
14208WAT     H142866   7.365   6.640   5.483
14208WAT     H242867   7.408   6.773   5.568
14209WAT      O42868   2.041   7.141   8.706
14209WAT     H142869   2.116   7.123   8.770
14209WAT     H242870   2.071   7.207   8.637
14210WAT      O42871   8.058   8.002   2.546
14210WAT     H142872   7.961   7.994   2.523
14210WAT     H242873   8.089   8.095   2.528
14211WAT      O42874   0.356   4.547   3.870
14211WAT     H142875   0.413   4.558   3.952
14211WAT     H242876   0.415   4.526   3.792
14212WAT      O42877   9.342   6.297   4.082
14212WAT     H142878   9.292   6.226   4.033
14212WAT     H242879   9.439   6.274   4.086
14213WAT      O42880   9.564   4.537   5.721
14213WAT     H142881   9.531   4.444   5.712
14213WAT     H242882   9.497   4.593   5.769
14214WAT      O42883   2.074   4.454   0.796
14214WAT     H142884   2.113   4.363   0.811
14214WAT     H242885   1.975   4.445   0.783
14215WAT      O42886   7.884   5.150   4.779
14215WAT     H142887   7.837   5.135   4.867
14215WAT     H242888   7.958   5.083   4.770
14216WAT      O42889   4.768   5.710   8.726
14216WAT     H142890   4.671   5.726   8.745
14216WAT     H242891   4.821   5.721   8.810
14217WAT      O42892   3.442   6.065   7.225
14217WAT     H142893   3.407   6.090   7.316
14217WAT     H242894   3.540   6.079   7.221
14218WAT      O42895   0.323   5.041   6.354
14218WAT     H142896   0.422   5.037   6.370
14218WAT     H242897   0.290   5.132   6.378
14219WAT      O42898   2.043   5.122   9.403
14219WAT     H142899   2.083   5.113   9.495
14219WAT     H242900   1.974   5.194   9.404
14220WAT      O42901   8.836   1.685   6.973
14220WAT     H142902   8.917   1.635   7.004
14220WAT     H242903   8.768   1.686   7.046
14221WAT      O42904   5.632   0.737   8.150
14221WAT     H142905   5.704   0.738   8.080
14221WAT     H242906   5.591   0.828   8.155
14222WAT      O42907   5.100   7.658   4.413
14222WAT     H142908   5.183   7.663   4.357
14222WAT     H242909   5.059   7.568   4.405
14223WAT      O42910   1.957   3.409   9.460
14223WAT     H142911   2.049   3.445   9.480
14223WAT     H242912   1.908   3.394   9.545
14224WAT      O42913   4.978   2.860   6.658
14224WAT     H142914   4.896   2.820   6.698
14224WAT     H242915   5.021   2.921   6.725
14225WAT      O42916   4.987   1.090   9.597
14225WAT     H142917   4.959   1.153   9.669
14225WAT     H242918   5.083   1.066   9.610
14226WAT      O42919   9.596   5.721   8.124
14226WAT     H142920   9.654   5.780   8.181
14226WAT     H242921   9.500   5.744   8.139
14227WAT      O42922   5.745   0.442   6.603
14227WAT     H142923   5.684   0.420   6.679
14227WAT     H242924   5.816   0.505   6.634
14228WAT      O42925   5.573   9.107   7.131
14228WAT     H142926   5.629   9.190   7.141
14228WAT     H242927   5.559   9.067   7.222
14229WAT      O42928   0.633   0.349   8.729
14229WAT     H142929   0.665   0.441   8.750
14229WAT     H242930   0.709   0.284   8.739
14230WAT      O42931   0.444   3.546   3.063
14230WAT     H142932   0.485   3.506   2.981
14230WAT     H242933   0.501   3.525   3.142
14231WAT      O42934   4.016   7.575   2.918
14231WAT     H142935   4.097   7.586   2.976
14231WAT     H242936   3.972   7.487   2.939
14232WAT      O42937   7.136   3.511   5.024
14232WAT     H142938   7.062   3.546   4.966
14232WAT     H242939   7.112   3.525   5.120
14233WAT      O42940   2.478   0.873   0.828
14233WAT     H142941   2.440   0.927   0.902
14233WAT     H242942   2.430   0.786   0.821
14234WAT      O42943   4.772   3.973   0.805
14234WAT     H142944   4.761   3.891   0.861
14234WAT     H242945   4.805   3.947   0.715
14235WAT      O42946   7.143   0.126   2.739
14235WAT     H142947   7.093   0.212   2.731
14235WAT     H242948   7.087   0.058   2.785
14236WAT      O42949   8.582   4.999   8.739
14236WAT     H142950   8.601   5.027   8.833
14236WAT     H242951   8.650   5.039   8.678
14237WAT      O42952   4.431   4.659   9.154
14237WAT     H142953   4.373   4.715   9.213
14237WAT     H242954   4.378   4.630   9.074
14238WAT      O42955   2.686   5.404   0.414
14238WAT     H142956   2.758   5.361   0.361
14238WAT     H242957   2.714   5.496   0.442
14239WAT      O42958   9.679   4.162   5.752
14239WAT     H142959   9.602   4.207   5.707
14239WAT     H242960   9.650   4.072   5.784
14240WAT      O42961   8.170   0.526   8.831
14240WAT     H142962   8.270   0.532   8.822
14240WAT     H242963   8.143   0.557   8.922
14241WAT      O42964   8.906   9.267   1.666
14241WAT     H142965   8.976   9.318   1.616
14241WAT     H242966   8.817   9.278   1.622
14242WAT      O42967   0.583   7.452   5.235
14242WAT     H142968   0.503   7.406   5.194
14242WAT     H242969   0.663   7.436   5.177
14243WAT      O42970   7.842   7.112   1.801
14243WAT     H142971   7.882   7.032   1.846
14243WAT     H242972   7.915   7.166   1.759
14244WAT      O42973   6.467   3.152   6.863
14244WAT     H142974   6.558   3.153   6.906
14244WAT     H242975   6.406   3.213   6.912
14245WAT      O42976   5.086   5.816   1.561
14245WAT     H142977   5.165   5.802   1.501
14245WAT     H242978   5.002   5.805   1.508
14246WAT      O42979   3.908   1.597   0.396
14246WAT     H142980   3.870   1.641   0.477
14246WAT     H242981   3.887   1.652   0.315
14247WAT      O42982   6.686   4.972   3.653
14247WAT     H142983   6.761   5.035   3.676
14247WAT     H242984   6.623   4.966   3.731
14248WAT      O42985   8.324   6.356   8.911
14248WAT     H142986   8.290   6.274   8.956
14248WAT     H242987   8.251   6.425   8.907
14249WAT      O42988   0.116   7.784   2.603
14249WAT     H142989   0.215   7.795   2.596
14249WAT     H242990   0.088   7.793   2.698
14250WAT      O42991   0.013   7.001   9.888
14250WAT     H142992   0.025   7.037   9.796
14250WAT     H242993   0.102   6.975   9.926
14251WAT      O42994   5.477   0.944   3.685
14251WAT     H142995   5.400   0.939   3.748
14251WAT     H242996   5.450   0.907   3.596
14252WAT      O42997   0.235   7.766   5.906
14252WAT     H142998   0.321   7.721   5.929
14252WAT     H242999   0.251   7.834   5.834
14253WAT      O43000   7.028   5.236   1.020
14253WAT     H143001   7.113   5.240   0.967
14253WAT     H243002   7.043   5.276   1.110
14254WAT      O43003   6.499   5.646   9.729
14254WAT     H143004   6.514   5.551   9.700
14254WAT     H243005   6.430   5.648   9.801
14255WAT      O43006   9.372   2.810   8.925
14255WAT     H143007   9.417   2.763   9.002
14255WAT     H243008   9.435   2.876   8.885
14256WAT      O43009   6.750   9.076   5.455
14256WAT     H143010   6.793   9.136   5.523
14256WAT     H243011   6.814   9.059   5.380
14257WAT      O43012   7.059   0.877   2.021
14257WAT     H143013   7.136   0.935   1.994
14257WAT     H243014   7.086   0.822   2.100
14258WAT      O43015   1.295   9.189   4.321
14258WAT     H143016   1.334   9.209   4.411
14258WAT     H243017   1.261   9.273   4.280
14259WAT      O43018   0.252   8.468   2.522
14259WAT     H143019   0.196   8.512   2.451
14259WAT     H243020   0.347   8.468   2.493
14260WAT      O43021   6.947   6.962   9.393
14260WAT     H143022   7.024   6.900   9.407
14260WAT     H243023   6.928   7.011   9.478
14261WAT      O43024   7.816   0.595   1.243
14261WAT     H143025   7.789   0.564   1.334
14261WAT     H243026   7.914   0.577   1.230
14262WAT      O43027   9.023   7.393   7.105
14262WAT     H143028   9.058   7.307   7.142
14262WAT     H243029   9.097   7.462   7.107
14263WAT      O43030   2.652   5.987   4.609
14263WAT     H143031   2.584   5.973   4.681
14263WAT     H243032   2.650   5.911   4.545
14264WAT      O43033   1.590   7.909   6.684
14264WAT     H143034   1.621   7.934   6.593
14264WAT     H243035   1.668   7.904   6.746
14265WAT      O43036   1.922   5.262   5.007
14265WAT     H143037   2.004   5.264   5.065
14265WAT     H243038   1.849   5.215   5.056
14266WAT      O43039   1.080   5.737   4.158
14266WAT     H143040   1.083   5.771   4.064
14266WAT     H243041   0.992   5.761   4.199
14267WAT      O43042   4.249   6.843   7.767
14267WAT     H143043   4.288   6.909   7.703
14267WAT     H243044   4.301   6.845   7.853
14268WAT      O43045   1.341   5.206   2.210
14268WAT     H143046   1.277   5.185   2.137
14268WAT     H243047   1.400   5.127   2.227
14269WAT      O43048   4.944   8.386   5.354
14269WAT     H143049   4.979   8.292   5.354
14269WAT     H243050   5.018   8.449   5.377
14270WAT      O43051   3.076   2.433   9.897
14270WAT     H143052   3.068   2.343   9.853
14270WAT     H243053   3.158   2.480   9.863
14271WAT      O43054   6.820   2.216   7.595
14271WAT     H143055   6.920   2.213   7.601
14271WAT     H243056   6.788   2.146   7.532
14272WAT      O43057   4.734   4.639   9.853
14272WAT     H143058   4.802   4.566   9.865
14272WAT     H243059   4.757   4.692   9.772
14273WAT      O43060   1.039   0.683   3.477
14273WAT     H143061   1.117   0.691   3.416
14273WAT     H243062   1.025   0.768   3.527
14274WAT      O43063   8.604   4.491   5.520
14274WAT     H143064   8.657   4.448   5.593
14274WAT     H243065   8.648   4.473   5.432
14275WAT      O43066   6.313   4.776   8.588
14275WAT     H143067   6.251   4.855   8.590
14275WAT     H243068   6.261   4.692   8.600
14276WAT      O43069   9.506   5.691   7.035
14276WAT     H143070   9.406   5.688   7.039
14276WAT     H243071   9.539   5.766   7.091
14277WAT      O43072   6.138   1.044   7.903
14277WAT     H143073   6.049   1.013   7.870
14277WAT     H243074   6.193   0.965   7.931
14278WAT      O43075   5.620   2.363   9.732
14278WAT     H143076   5.656   2.275   9.703
14278WAT     H243077   5.523   2.370   9.707
14279WAT      O43078   5.714   8.962   8.801
14279WAT     H143079   5.618   8.952   8.827
14279WAT     H243080   5.769   8.981   8.882
14280WAT      O43081   5.193   6.401   2.376
14280WAT     H143082   5.269   6.354   2.420
14280WAT     H243083   5.221   6.494   2.352
14281WAT      O43084   1.708   4.987   8.110
14281WAT     H143085   1.748   5.064   8.159
14281WAT     H243086   1.727   4.902   8.160
14282WAT      O43087   6.941   9.828   6.199
14282WAT     H143088   7.021   9.828   6.258
14282WAT     H243089   6.923   9.921   6.167
14283WAT      O43090   0.185   5.507   1.437
14283WAT     H143091   0.247   5.438   1.475
14283WAT     H243092   0.121   5.537   1.508
14284WAT      O43093   2.324   7.417   7.216
14284WAT     H143094   2.380   7.500   7.211
14284WAT     H243095   2.271   7.418   7.301
14285WAT      O43096   1.898   3.603   4.474
14285WAT     H143097   1.884   3.670   4.401
14285WAT     H243098   1.913   3.651   4.561
14286WAT      O43099   8.663   4.079   5.233
14286WAT     H143100   8.670   4.043   5.326
14286WAT     H243101   8.568   4.079   5.204
14287WAT      O43102   9.776   5.927   4.827
14287WAT     H143103   9.857   5.941   4.770
14287WAT     H243104   9.761   6.008   4.884
14288WAT      O43105   6.092   7.926   0.375
14288WAT     H143106   6.005   7.916   0.327
14288WAT     H243107   6.144   8.001   0.333
14289WAT      O43108   5.893   3.997   1.046
14289WAT     H143109   5.818   3.934   1.068
14289WAT     H243110   5.966   3.986   1.113
14290WAT      O43111   7.769   5.272   7.446
14290WAT     H143112   7.675   5.294   7.419
14290WAT     H243113   7.825   5.260   7.365
14291WAT      O43114   0.066   4.796   3.633
14291WAT     H143115  -0.016   4.812   3.579
14291WAT     H243116   0.147   4.816   3.578
14292WAT      O43117   8.269   9.691   0.577
14292WAT     H143118   8.256   9.605   0.625
14292WAT     H243119   8.347   9.740   0.617
14293WAT      O43120   4.422   0.811   7.050
14293WAT     H143121   4.433   0.868   7.131
14293WAT     H243122   4.439   0.716   7.073
14294WAT      O43123   2.658   1.273   3.414
14294WAT     H143124   2.630   1.337   3.342
14294WAT     H243125   2.753   1.246   3.400
14295WAT      O43126   4.137   3.108   6.005
14295WAT     H143127   4.190   3.158   5.937
14295WAT     H243128   4.194   3.090   6.085
14296WAT      O43129   7.642   9.768   5.743
14296WAT     H143130   7.640   9.668   5.744
14296WAT     H243131   7.559   9.803   5.698
14297WAT      O43132   1.833   9.209   1.604
14297WAT     H143133   1.872   9.127   1.647
14297WAT     H243134   1.863   9.290   1.654
14298WAT      O43135   3.087   1.153   2.151
14298WAT     H143136   3.005   1.210   2.148
14298WAT     H243137   3.102   1.121   2.244
14299WAT      O43138   4.929   0.200   3.086
14299WAT     H143139   4.952   0.143   3.007
14299WAT     H243140   4.834   0.230   3.078
14300WAT      O43141   3.900   9.348   6.751
14300WAT     H143142   3.928   9.413   6.822
14300WAT     H243143   3.863   9.398   6.673
14301WAT      O43144   9.399   9.476   1.319
14301WAT     H143145   9.394   9.443   1.224
14301WAT     H243146   9.383   9.399   1.381
14302WAT      O43147   8.382   3.580   6.346
14302WAT     H143148   8.327   3.609   6.425
14302WAT     H243149   8.398   3.659   6.286
14303WAT      O43150   0.641   0.992   9.877
14303WAT     H143151   0.576   0.968   9.949
14303WAT     H243152   0.621   0.940   9.795
14304WAT      O43153   0.236   6.383   8.954
14304WAT     H143154   0.224   6.455   9.022
14304WAT     H243155   0.147   6.344   8.931
14305WAT      O43156   7.389   7.593   8.396
14305WAT     H143157   7.302   7.621   8.355
14305WAT     H243158   7.372   7.562   8.490
14306WAT      O43159   8.895   2.880   2.958
14306WAT     H143160   8.883   2.938   2.878
14306WAT     H243161   8.835   2.800   2.950
14307WAT      O43162   6.048   5.429   3.445
14307WAT     H143163   6.046   5.477   3.357
14307WAT     H243164   6.132   5.374   3.451
14308WAT      O43165   6.652   4.245   0.190
14308WAT     H143166   6.611   4.336   0.180
14308WAT     H243167   6.580   4.179   0.210
14309WAT      O43168   1.171   8.855   8.365
14309WAT     H143169   1.191   8.834   8.269
14309WAT     H243170   1.127   8.945   8.371
14310WAT      O43171   1.161   2.335   8.413
14310WAT     H143172   1.208   2.413   8.372
14310WAT     H243173   1.159   2.259   8.349
14311WAT      O43174   0.581   3.010   1.641
14311WAT     H143175   0.560   3.107   1.628
14311WAT     H243176   0.639   2.978   1.566
14312WAT      O43177   6.209   8.226   7.309
14312WAT     H143178   6.168   8.278   7.234
14312WAT     H243179   6.306   8.249   7.316
14313WAT      O43180   0.028   6.845   3.895
14313WAT     H143181   0.077   6.765   3.930
14313WAT     H243182  -0.064   6.818   3.866
14314WAT      O43183   8.283   9.699   1.857
14314WAT     H143184   8.346   9.775   1.842
14314WAT     H243185   8.234   9.680   1.772
14315WAT      O43186   2.407   4.894   2.724
14315WAT     H143187   2.430   4.946   2.806
14315WAT     H243188   2.491   4.877   2.672
14316WAT      O43189   5.901   3.220   9.352
14316WAT     H143190   5.822   3.163   9.328
14316WAT     H243191   5.959   3.232   9.271
14317WAT      O43192   7.664   3.379   3.758
14317WAT     H143193   7.753   3.339   3.737
14317WAT     H243194   7.599   3.356   3.686
14318WAT      O43195   6.686   0.867   3.549
14318WAT     H143196   6.653   0.801   3.483
14318WAT     H243197   6.634   0.858   3.635
14319WAT      O43198   1.316   4.879   6.043
14319WAT     H143199   1.259   4.898   6.123
14319WAT     H243200   1.325   4.780   6.030
14320WAT      O43201   1.532   3.779   5.099
14320WAT     H143202   1.565   3.685   5.112
14320WAT     H243203   1.433   3.782   5.112
14321WAT      O43204   8.683   4.447   7.601
14321WAT     H143205   8.700   4.474   7.506
14321WAT     H243206   8.756   4.482   7.659
14322WAT      O43207   2.722   7.441   9.152
14322WAT     H143208   2.747   7.403   9.063
14322WAT     H243209   2.804   7.458   9.206
14323WAT      O43210   4.997   6.345   8.805
14323WAT     H143211   4.992   6.272   8.873
14323WAT     H243212   4.907   6.357   8.762
14324WAT      O43213   3.954   8.633   7.670
14324WAT     H143214   3.988   8.539   7.674
14324WAT     H243215   3.858   8.632   7.644
14325WAT      O43216   1.004   5.204   2.377
14325WAT     H143217   0.921   5.151   2.395
14325WAT     H243218   0.980   5.291   2.334
14326WAT      O43219   7.455   3.146   4.671
14326WAT     H143220   7.438   3.058   4.625
14326WAT     H243221   7.532   3.192   4.627
14327WAT      O43222   0.305   4.327   6.054
14327WAT     H143223   0.217   4.294   6.018
14327WAT     H243224   0.369   4.338   5.978
14328WAT      O43225   5.647   6.160   0.108
14328WAT     H143226   5.607   6.087   0.163
14328WAT     H243227   5.598   6.167   0.021
14329WAT      O43228   4.820   9.761   4.510
14329WAT     H143229   4.865   9.745   4.423
14329WAT     H243230   4.889   9.776   4.581
14330WAT      O43231   9.327   2.871   6.724
14330WAT     H143232   9.284   2.826   6.645
14330WAT     H243233   9.257   2.920   6.777
14331WAT      O43234   0.734   9.368   8.964
14331WAT     H143235   0.789   9.357   9.046
14331WAT     H243236   0.649   9.316   8.974
14332WAT      O43237   1.598   1.178   9.207
14332WAT     H143238   1.561   1.249   9.267
14332WAT     H243239   1.664   1.122   9.257
14333WAT      O43240   5.374   5.967   0.706
14333WAT     H143241   5.335   5.897   0.647
14333WAT     H243242   5.308   6.042   0.717
14334WAT      O43243   1.252   0.796   7.420
14334WAT     H143244   1.169   0.840   7.386
14334WAT     H243245   1.308   0.862   7.470
14335WAT      O43246   2.619   0.950   2.136
14335WAT     H143247   2.714   0.944   2.104
14335WAT     H243248   2.563   0.883   2.087
14336WAT      O43249   5.968   6.654   5.928
14336WAT     H143250   5.912   6.725   5.971
14336WAT     H243251   6.015   6.602   5.999
14337WAT      O43252   7.276   8.546   6.008
14337WAT     H143253   7.262   8.544   6.107
14337WAT     H243254   7.368   8.514   5.987
14338WAT      O43255   1.689   3.932   5.270
14338WAT     H143256   1.623   3.882   5.214
14338WAT     H243257   1.777   3.937   5.223
14339WAT      O43258   5.242   6.922   0.748
14339WAT     H143259   5.282   6.839   0.709
14339WAT     H243260   5.199   6.976   0.676
14340WAT      O43261   7.280   7.684   3.258
14340WAT     H143262   7.283   7.782   3.241
14340WAT     H243263   7.283   7.635   3.171
14341WAT      O43264   5.783   0.623   3.541
14341WAT     H143265   5.794   0.525   3.559
14341WAT     H243266   5.698   0.639   3.491
14342WAT      O43267   2.087   6.267   5.314
14342WAT     H143268   2.092   6.360   5.278
14342WAT     H243269   2.147   6.207   5.261
14343WAT      O43270   6.330   4.106   0.952
14343WAT     H143271   6.341   4.193   0.905
14343WAT     H243272   6.323   4.122   1.051
14344WAT      O43273   7.975   4.054   2.535
14344WAT     H143274   8.001   3.980   2.473
14344WAT     H243275   7.900   4.023   2.593
14345WAT      O43276   3.544   4.133   3.588
14345WAT     H143277   3.597   4.060   3.631
14345WAT     H243278   3.517   4.105   3.496
14346WAT      O43279   9.110   5.422   7.077
14346WAT     H143280   9.134   5.393   6.984
14346WAT     H243281   9.168   5.375   7.143
14347WAT      O43282   4.793   2.725   0.960
14347WAT     H143283   4.858   2.733   0.884
14347WAT     H243284   4.738   2.643   0.947
14348WAT      O43285   5.202   8.125   3.772
14348WAT     H143286   5.149   8.044   3.796
14348WAT     H243287   5.274   8.101   3.707
14349WAT      O43288   1.359   7.023   4.013
14349WAT     H143289   1.363   6.941   3.955
14349WAT     H243290   1.318   7.098   3.962
14350WAT      O43291   4.016   2.381   3.272
14350WAT     H143292   4.001   2.412   3.178
14350WAT     H243293   4.108   2.409   3.301
14351WAT      O43294   3.636   2.570   8.012
14351WAT     H143295   3.596   2.662   8.007
14351WAT     H243296   3.722   2.568   7.962
14352WAT      O43297   8.194   0.005   2.302
14352WAT     H143298   8.242   0.091   2.316
14352WAT     H243299   8.220  -0.060   2.374
14353WAT      O43300   8.075   6.267   5.045
14353WAT     H143301   8.141   6.204   5.086
14353WAT     H243302   8.119   6.317   4.970
14354WAT      O43303   9.745   1.676   2.038
14354WAT     H143304   9.805   1.741   2.085
14354WAT     H243305   9.654   1.715   2.029
14355WAT      O43306   8.873   8.246   2.595
14355WAT     H143307   8.949   8.284   2.647
14355WAT     H243308   8.835   8.316   2.535
14356WAT      O43309   5.258   2.502   1.878
14356WAT     H143310   5.209   2.476   1.961
14356WAT     H243311   5.247   2.430   1.809
14357WAT      O43312   4.687   9.523   1.518
14357WAT     H143313   4.733   9.486   1.598
14357WAT     H243314   4.731   9.608   1.490
14358WAT      O43315   2.747   2.966   7.853
14358WAT     H143316   2.713   2.996   7.765
14358WAT     H243317   2.723   3.033   7.924
14359WAT      O43318   1.816   1.346   4.478
14359WAT     H143319   1.902   1.395   4.462
14359WAT     H243320   1.809   1.321   4.575
14360WAT      O43321   8.364   6.979   5.457
14360WAT     H143322   8.301   6.971   5.535
14360WAT     H243323   8.317   6.953   5.373
14361WAT      O43324   9.740   0.484   0.892
14361WAT     H143325   9.653   0.532   0.905
14361WAT     H243326   9.777   0.459   0.982
14362WAT      O43327   2.308   9.076   5.087
14362WAT     H143328   2.345   9.053   4.998
14362WAT     H243329   2.383   9.091   5.152
14363WAT      O43330   5.233   0.748   7.098
14363WAT     H143331   5.244   0.832   7.152
14363WAT     H243332   5.183   0.768   7.014
14364WAT      O43333   4.167   0.585   4.588
14364WAT     H143334   4.207   0.633   4.667
14364WAT     H243335   4.077   0.624   4.568
14365WAT      O43336   9.530   5.303   1.593
14365WAT     H143337   9.568   5.355   1.669
14365WAT     H243338   9.468   5.361   1.540
14366WAT      O43339   9.361   7.475   7.923
14366WAT     H143340   9.277   7.423   7.937
14366WAT     H243341   9.356   7.561   7.973
14367WAT      O43342   9.457   8.985   4.099
14367WAT     H143343   9.471   8.903   4.155
14367WAT     H243344   9.486   9.066   4.150
14368WAT      O43345   9.299   3.590   8.150
14368WAT     H143346   9.291   3.514   8.215
14368WAT     H243347   9.219   3.591   8.090
14369WAT      O43348   5.338   0.263   3.100
14369WAT     H143349   5.294   0.189   3.049
14369WAT     H243350   5.366   0.334   3.036
14370WAT      O43351   7.821   2.014   7.619
14370WAT     H143352   7.873   2.088   7.661
14370WAT     H243353   7.728   2.045   7.600
14371WAT      O43354   6.235   6.895   0.579
14371WAT     H143355   6.198   6.988   0.577
14371WAT     H243356   6.328   6.896   0.543
14372WAT      O43357   8.533   7.861   4.606
14372WAT     H143358   8.615   7.913   4.629
14372WAT     H243359   8.453   7.921   4.609
14373WAT      O43360   1.534   1.370   5.522
14373WAT     H143361   1.516   1.419   5.607
14373WAT     H243362   1.626   1.332   5.524
14374WAT      O43363   6.509   3.829   4.034
14374WAT     H143364   6.545   3.913   4.075
14374WAT     H243365   6.419   3.809   4.073
14375WAT      O43366   9.846   5.908   7.782
14375WAT     H143367   9.838   5.931   7.879
14375WAT     H243368   9.755   5.884   7.746
14376WAT      O43369   4.972   4.008   6.193
14376WAT     H143370   4.956   3.962   6.279
14376WAT     H243371   4.964   4.107   6.206
14377WAT      O43372   6.903   2.310   3.094
14377WAT     H143373   6.893   2.386   3.158
14377WAT     H243374   6.836   2.239   3.114
14378WAT      O43375   1.861   7.079   3.395
14378WAT     H143376   1.894   7.150   3.333
14378WAT     H243377   1.833   6.999   3.342
14379WAT      O43378   5.159   0.928   7.651
14379WAT     H143379   5.099   0.849   7.646
14379WAT     H243380   5.219   0.931   7.571
14380WAT      O43381   8.511   1.962   9.649
14380WAT     H143382   8.465   2.051   9.657
14380WAT     H243383   8.443   1.890   9.640
14381WAT      O43384   4.517   5.647   2.067
14381WAT     H143385   4.540   5.699   1.985
14381WAT     H243386   4.502   5.710   2.143
14382WAT      O43387   0.687   0.704   2.348
14382WAT     H143388   0.704   0.797   2.314
14382WAT     H243389   0.626   0.708   2.428
14383WAT      O43390   3.431   8.574   7.727
14383WAT     H143391   3.442   8.527   7.815
14383WAT     H243392   3.485   8.525   7.658
14384WAT      O43393   7.156   4.804   9.131
14384WAT     H143394   7.096   4.754   9.068
14384WAT     H243395   7.117   4.800   9.223
14385WAT      O43396   4.045   7.836   0.389
14385WAT     H143397   4.037   7.744   0.427
14385WAT     H243398   3.994   7.901   0.446
14386WAT      O43399   9.136   9.220   0.769
14386WAT     H143400   9.227   9.181   0.755
14386WAT     H243401   9.133   9.268   0.856
14387WAT      O43402   3.938   7.788   4.463
14387WAT     H143403   3.897   7.827   4.381
14387WAT     H243404   4.011   7.848   4.497
14388WAT      O43405   6.327   0.063   4.396
14388WAT     H143406   6.262  -0.003   4.431
14388WAT     H243407   6.417   0.047   4.438
14389WAT      O43408   8.431   9.611   7.191
14389WAT     H143409   8.357   9.677   7.180
14389WAT     H243410   8.451   9.600   7.289
14390WAT      O43411   5.378   0.769   8.929
14390WAT     H143412   5.386   0.685   8.981
14390WAT     H243413   5.445   0.769   8.855
14391WAT      O43414   2.504   8.856   1.637
14391WAT     H143415   2.426   8.880   1.695
14391WAT     H243416   2.584   8.840   1.694
14392WAT      O43417   5.347   0.234   4.520
14392WAT     H143418   5.365   0.136   4.505
14392WAT     H243419   5.338   0.251   4.618
14393WAT      O43420   5.975   8.034   6.669
14393WAT     H143421   5.896   7.972   6.676
14393WAT     H243422   5.943   8.129   6.669
14394WAT      O43423   6.427   2.337   1.321
14394WAT     H143424   6.501   2.345   1.253
14394WAT     H243425   6.344   2.303   1.276
14395WAT      O43426   2.251   4.580   6.975
14395WAT     H143427   2.286   4.669   6.945
14395WAT     H243428   2.154   4.588   6.997
14396WAT      O43429   5.500   8.991   4.960
14396WAT     H143430   5.441   9.046   5.019
14396WAT     H243431   5.486   8.894   4.979
14397WAT      O43432   5.372   3.955   8.701
14397WAT     H143433   5.432   4.034   8.702
14397WAT     H243434   5.414   3.880   8.752
14398WAT      O43435   2.210   8.128   7.311
14398WAT     H143436   2.132   8.115   7.250
14398WAT     H243437   2.212   8.055   7.379
14399WAT      O43438   2.910   5.300   0.295
14399WAT     H143439   2.952   5.295   0.386
14399WAT     H243440   2.962   5.363   0.238
14400WAT      O43441   4.154   2.304   0.176
14400WAT     H143442   4.179   2.209   0.192
14400WAT     H243443   4.234   2.355   0.143
14401WAT      O43444   9.732   1.844   6.370
14401WAT     H143445   9.781   1.762   6.342
14401WAT     H243446   9.753   1.919   6.307
14402WAT      O43447   8.689   3.053   1.229
14402WAT     H143448   8.673   3.021   1.136
14402WAT     H243449   8.763   2.999   1.270
14403WAT      O43450   4.419   1.963   0.038
14403WAT     H143451   4.334   1.987   0.085
14403WAT     H243452   4.405   1.972  -0.061
14404WAT      O43453   8.286   7.785   7.062
14404WAT     H143454   8.202   7.747   7.023
14404WAT     H243455   8.330   7.717   7.120
14405WAT      O43456   2.640   2.761   3.425
14405WAT     H143457   2.623   2.842   3.481
14405WAT     H243458   2.732   2.767   3.385
14406WAT      O43459   2.811   6.132   2.589
14406WAT     H143460   2.822   6.177   2.678
14406WAT     H243461   2.890   6.154   2.531
14407WAT      O43462   1.936   9.569   6.775
14407WAT     H143463   1.871   9.542   6.845
14407WAT     H243464   1.920   9.664   6.748
14408WAT      O43465   1.122   0.368   0.159
14408WAT     H143466   1.187   0.438   0.189
14408WAT     H243467   1.166   0.278   0.165
14409WAT      O43468   8.813   7.776   7.319
14409WAT     H143469   8.716   7.756   7.301
14409WAT     H243470   8.846   7.714   7.391
14410WAT      O43471   6.276   2.743   8.882
14410WAT     H143472   6.338   2.752   8.804
14410WAT     H243473   6.222   2.660   8.874
14411WAT      O43474   2.344   0.853   5.060
14411WAT     H143475   2.346   0.772   5.119
14411WAT     H243476   2.250   0.871   5.032
14412WAT      O43477   3.787   2.144   4.881
14412WAT     H143478   3.865   2.206   4.880
14412WAT     H243479   3.812   2.058   4.837
14413WAT      O43480   5.585   5.674   8.019
14413WAT     H143481   5.531   5.712   8.095
14413WAT     H243482   5.671   5.639   8.054
14414WAT      O43483   9.452   5.093   3.498
14414WAT     H143484   9.501   5.149   3.431
14414WAT     H243485   9.510   5.016   3.525
14415WAT      O43486   1.995   9.482   3.031
14415WAT     H143487   1.932   9.502   2.956
14415WAT     H243488   1.985   9.551   3.102
14416WAT      O43489   2.950   6.371   3.264
14416WAT     H143490   3.018   6.422   3.211
14416WAT     H243491   2.962   6.390   3.361
14417WAT      O43492   7.602   0.894   8.904
14417WAT     H143493   7.514   0.937   8.921
14417WAT     H243494   7.657   0.896   8.988
14418WAT      O43495   6.459   7.635   5.668
14418WAT     H143496   6.425   7.557   5.719
14418WAT     H243497   6.485   7.607   5.576
14419WAT      O43498   5.231   1.848   4.664
14419WAT     H143499   5.258   1.775   4.727
14419WAT     H243500   5.275   1.933   4.691
14420WAT      O43501   8.455   8.858   8.304
14420WAT     H143502   8.451   8.946   8.351
14420WAT     H243503   8.533   8.805   8.339
14421WAT      O43504   5.173   6.929   4.952
14421WAT     H143505   5.167   7.018   4.907
14421WAT     H243506   5.112   6.928   5.031
14422WAT      O43507   2.637   4.064   9.325
14422WAT     H143508   2.705   4.133   9.302
14422WAT     H243509   2.680   3.992   9.381
14423WAT      O43510   3.521   8.300   6.877
14423WAT     H143511   3.598   8.242   6.849
14423WAT     H243512   3.547   8.353   6.958
14424WAT      O43513   0.779   3.978   6.375
14424WAT     H143514   0.701   3.990   6.314
14424WAT     H243515   0.826   3.893   6.351
14425WAT      O43516   1.541   8.825   9.755
14425WAT     H143517   1.450   8.863   9.741
14425WAT     H243518   1.590   8.823   9.668
14426WAT      O43519   6.465   8.543   6.478
14426WAT     H143520   6.407   8.497   6.411
14426WAT     H243521   6.471   8.487   6.561
14427WAT      O43522   7.157   8.251   9.451
14427WAT     H143523   7.177   8.175   9.513
14427WAT     H243524   7.074   8.232   9.400
14428WAT      O43525   3.945   5.673   8.454
14428WAT     H143526   3.852   5.690   8.422
14428WAT     H243527   4.008   5.735   8.409
14429WAT      O43528   4.024   5.080   9.350
14429WAT     H143529   4.063   5.065   9.441
14429WAT     H243530   4.059   5.166   9.312
14430WAT      O43531   5.421   1.297   3.892
14430WAT     H143532   5.334   1.337   3.866
14430WAT     H243533   5.411   1.246   3.978
14431WAT      O43534   0.255   7.524   1.930
14431WAT     H143535   0.353   7.517   1.952
14431WAT     H243536   0.206   7.562   2.007
14432WAT      O43537   5.504   5.487   9.297
14432WAT     H143538   5.457   5.525   9.217
14432WAT     H243539   5.551   5.560   9.346
14433WAT      O43540   1.139   8.678   7.366
14433WAT     H143541   1.158   8.675   7.465
14433WAT     H243542   1.131   8.773   7.336
14434WAT      O43543   6.378   0.539   5.119
14434WAT     H143544   6.282   0.568   5.117
14434WAT     H243545   6.430   0.591   5.052
14435WAT      O43546   6.710   9.524   9.209
14435WAT     H143547   6.796   9.484   9.179
14435WAT     H243548   6.662   9.564   9.130
14436WAT      O43549   9.837   1.617   3.714
14436WAT     H143550   9.762   1.677   3.684
14436WAT     H243551   9.924   1.662   3.695
14437WAT      O43552   4.025   3.755   7.896
14437WAT     H143553   3.963   3.734   7.971
14437WAT     H243554   4.117   3.772   7.933
14438WAT      O43555   5.465   0.645   7.256
14438WAT     H143556   5.445   0.548   7.262
14438WAT     H243557   5.392   0.692   7.206
14439WAT      O43558   9.459   4.915   9.799
14439WAT     H143559   9.513   4.844   9.844
14439WAT     H243560   9.392   4.952   9.864
14440WAT      O43561   0.630   3.324   5.085
14440WAT     H143562   0.569   3.390   5.128
14440WAT     H243563   0.694   3.288   5.154
14441WAT      O43564   6.988   9.717   3.983
14441WAT     H143565   6.920   9.645   3.971
14441WAT     H243566   6.957   9.800   3.938
14442WAT      O43567   5.011   9.584   5.071
14442WAT     H143568   5.066   9.634   5.138
14442WAT     H243569   4.915   9.584   5.101
14443WAT      O43570   0.999   8.610   2.808
14443WAT     H143571   0.912   8.573   2.841
14443WAT     H243572   1.073   8.549   2.835
14444WAT      O43573   5.752   4.161   0.409
14444WAT     H143574   5.783   4.075   0.450
14444WAT     H243575   5.801   4.238   0.451
14445WAT      O43576   3.265   4.248   6.614
14445WAT     H143577   3.336   4.199   6.562
14445WAT     H243578   3.264   4.344   6.585
14446WAT      O43579   0.949   8.643   4.227
14446WAT     H143580   1.023   8.619   4.290
14446WAT     H243581   0.987   8.696   4.151
14447WAT      O43582   2.767   2.724   1.311
14447WAT     H143583   2.850   2.766   1.347
14447WAT     H243584   2.732   2.780   1.236
14448WAT      O43585   2.859   7.392   7.449
14448WAT     H143586   2.894   7.299   7.442
14448WAT     H243587   2.769   7.392   7.493
14449WAT      O43588   4.746   9.116   3.973
14449WAT     H143589   4.779   9.070   4.055
14449WAT     H243590   4.716   9.208   3.997
14450WAT      O43591   3.279   6.002   8.899
14450WAT     H143592   3.329   5.916   8.907
14450WAT     H243593   3.216   5.997   8.821
14451WAT      O43594   4.380   7.256   1.783
14451WAT     H143595   4.402   7.203   1.865
14451WAT     H243596   4.301   7.314   1.801
14452WAT      O43597   7.435   6.366   5.276
14452WAT     H143598   7.432   6.273   5.240
14452WAT     H243599   7.342   6.397   5.296
14453WAT      O43600   3.429   6.717   8.923
14453WAT     H143601   3.344   6.763   8.946
14453WAT     H243602   3.505   6.757   8.974
14454WAT      O43603   3.339   0.925   9.057
14454WAT     H143604   3.264   0.991   9.065
14454WAT     H243605   3.303   0.832   9.063
14455WAT      O43606   6.449   6.976   8.107
14455WAT     H143607   6.495   6.934   8.029
14455WAT     H243608   6.504   6.962   8.189
14456WAT      O43609   6.878   7.668   7.171
14456WAT     H143610   6.822   7.728   7.227
14456WAT     H243611   6.961   7.718   7.143
14457WAT      O43612   3.666   9.435   8.708
14457WAT     H143613   3.606   9.426   8.788
14457WAT     H243614   3.760   9.416   8.735
14458WAT      O43615   7.067   0.382   3.069
14458WAT     H143616   7.164   0.395   3.052
14458WAT     H243617   7.040   0.434   3.150
14459WAT      O43618   2.473   0.686   3.879
14459WAT     H143619   2.393   0.692   3.819
14459WAT     H243620   2.444   0.659   3.971
14460WAT      O43621   2.851   8.187   0.887
14460WAT     H143622   2.759   8.173   0.926
14460WAT     H243623   2.850   8.163   0.790
14461WAT      O43624   1.397   0.634   6.269
14461WAT     H143625   1.460   0.687   6.212
14461WAT     H243626   1.310   0.622   6.221
14462WAT      O43627   3.557   0.007   6.749
14462WAT     H143628   3.484  -0.019   6.685
14462WAT     H243629   3.569  -0.066   6.816
14463WAT      O43630   7.540   9.151   3.518
14463WAT     H143631   7.605   9.180   3.588
14463WAT     H243632   7.448   9.181   3.543
14464WAT      O43633   8.983   0.828   7.963
14464WAT     H143634   8.985   0.776   7.877
14464WAT     H243635   8.892   0.867   7.976
14465WAT      O43636   7.497   5.968   7.573
14465WAT     H143637   7.460   5.917   7.651
14465WAT     H243638   7.597   5.972   7.581
14466WAT      O43639   0.804   0.064   1.353
14466WAT     H143640   0.878   0.066   1.286
14466WAT     H243641   0.840   0.092   1.442
14467WAT      O43642   0.365   5.298   9.348
14467WAT     H143643   0.384   5.206   9.381
14467WAT     H243644   0.292   5.338   9.403
14468WAT      O43645   6.691   2.632   9.029
14468WAT     H143646   6.664   2.721   8.992
14468WAT     H243647   6.784   2.610   8.997
14469WAT      O43648   1.146   7.919   0.163
14469WAT     H143649   1.185   7.925   0.255
14469WAT     H243650   1.177   7.996   0.108
14470WAT      O43651   9.384   6.472   3.191
14470WAT     H143652   9.318   6.479   3.266
14470WAT     H243653   9.375   6.383   3.147
14471WAT      O43654   8.838   5.134   2.045
14471WAT     H143655   8.811   5.193   1.969
14471WAT     H243656   8.911   5.178   2.097
14472WAT      O43657   1.487   5.945   0.942
14472WAT     H143658   1.507   6.005   1.020
14472WAT     H243659   1.517   5.988   0.857
14473WAT      O43660   7.758   1.388   5.525
14473WAT     H143661   7.706   1.329   5.464
14473WAT     H243662   7.854   1.361   5.523
14474WAT      O43663   3.645   0.045   9.409
14474WAT     H143664   3.607  -0.043   9.436
14474WAT     H243665   3.590   0.119   9.448
14475WAT      O43666   4.660   2.589   4.520
14475WAT     H143667   4.687   2.506   4.568
14475WAT     H243668   4.585   2.633   4.569
14476WAT      O43669   8.008   5.529   0.296
14476WAT     H143670   8.096   5.490   0.268
14476WAT     H243671   8.009   5.546   0.395
14477WAT      O43672   5.745   0.555   6.039
14477WAT     H143673   5.829   0.500   6.041
14477WAT     H243674   5.676   0.508   5.984
14478WAT      O43675   1.011   8.774   7.060
14478WAT     H143676   0.927   8.761   7.007
14478WAT     H243677   1.090   8.753   7.003
14479WAT      O43678   9.196   9.826   0.908
14479WAT     H143679   9.275   9.841   0.849
14479WAT     H243680   9.160   9.915   0.939
14480WAT      O43681   2.995   2.960   5.404
14480WAT     H143682   3.047   2.878   5.426
14480WAT     H243683   2.985   3.017   5.486
14481WAT      O43684   8.431   2.673   9.324
14481WAT     H143685   8.420   2.683   9.225
14481WAT     H243686   8.442   2.763   9.366
14482WAT      O43687   8.304   4.943   9.850
14482WAT     H143688   8.362   4.871   9.889
14482WAT     H243689   8.313   4.942   9.750
14483WAT      O43690   1.796   4.242   9.148
14483WAT     H143691   1.725   4.216   9.213
14483WAT     H243692   1.834   4.330   9.175
14484WAT      O43693   9.717   6.063   0.220
14484WAT     H143694   9.742   6.076   0.316
14484WAT     H243695   9.776   6.120   0.163
14485WAT      O43696   9.318   1.610   7.618
14485WAT     H143697   9.405   1.607   7.567
14485WAT     H243698   9.274   1.521   7.613
14486WAT      O43699   0.649   0.143   9.106
14486WAT     H143700   0.705   0.224   9.118
14486WAT     H243701   0.706   0.061   9.116
14487WAT      O43702   5.610   8.170   6.956
14487WAT     H143703   5.584   8.265   6.968
14487WAT     H243704   5.613   8.149   6.858
14488WAT      O43705   3.093   7.477   2.110
14488WAT     H143706   3.060   7.532   2.186
14488WAT     H243707   3.041   7.499   2.027
14489WAT      O43708   3.939   7.144   5.209
14489WAT     H143709   4.035   7.125   5.232
14489WAT     H243710   3.916   7.100   5.122
14490WAT      O43711   8.924   5.556   6.064
14490WAT     H143712   8.857   5.625   6.039
14490WAT     H243713   8.889   5.501   6.140
14491WAT      O43714   5.126   3.688   1.741
14491WAT     H143715   5.205   3.741   1.708
14491WAT     H243716   5.086   3.639   1.664
14492WAT      O43717   8.033   0.307   9.816
14492WAT     H143718   7.972   0.350   9.884
14492WAT     H243719   7.977   0.266   9.744
14493WAT      O43720   6.058   9.006   8.599
14493WAT     H143721   6.079   8.972   8.691
14493WAT     H243722   5.963   9.036   8.596
14494WAT      O43723   8.861   6.471   4.387
14494WAT     H143724   8.818   6.428   4.466
14494WAT     H243725   8.936   6.530   4.417
14495WAT      O43726   2.987   6.500   4.701
14495WAT     H143727   3.027   6.409   4.687
14495WAT     H243728   3.014   6.560   4.626
14496WAT      O43729   0.463   5.999   7.985
14496WAT     H143730   0.538   5.933   7.971
14496WAT     H243731   0.442   6.043   7.898
14497WAT      O43732   8.993   3.558   6.864
14497WAT     H143733   9.080   3.516   6.840
14497WAT     H243734   9.010   3.648   6.904
14498WAT      O43735   1.841   8.364   1.526
14498WAT     H143736   1.767   8.394   1.585
14498WAT     H243737   1.843   8.264   1.523
14499WAT      O43738   7.251   2.981   9.095
14499WAT     H143739   7.223   2.929   9.175
14499WAT     H243740   7.239   3.079   9.112
14500WAT      O43741   6.667   2.144   2.581
14500WAT     H143742   6.708   2.066   2.628
14500WAT     H243743   6.710   2.228   2.613
14501WAT      O43744   8.846   7.957   9.229
14501WAT     H143745   8.838   7.943   9.130
14501WAT     H243746   8.941   7.943   9.257
14502WAT      O43747   6.386   3.126   7.791
14502WAT     H143748   6.460   3.059   7.793
14502WAT     H243749   6.303   3.085   7.830
14503WAT      O43750   0.286   9.389   8.683
14503WAT     H143751   0.320   9.386   8.777
14503WAT     H243752   0.306   9.302   8.638
14504WAT      O43753   9.112   3.381   3.015
14504WAT     H143754   9.198   3.431   3.014
14504WAT     H243755   9.086   3.360   3.110
14505WAT      O43756   3.697   3.584   5.058
14505WAT     H143757   3.683   3.539   4.969
14505WAT     H243758   3.795   3.598   5.072
14506WAT      O43759   4.827   7.164   0.780
14506WAT     H143760   4.911   7.113   0.798
14506WAT     H243761   4.827   7.249   0.832
14507WAT      O43762   4.056   2.312   6.325
14507WAT     H143763   4.087   2.347   6.237
14507WAT     H243764   4.007   2.226   6.310
14508WAT      O43765   7.533   6.146   3.244
14508WAT     H143766   7.463   6.216   3.257
14508WAT     H243767   7.510   6.089   3.166
14509WAT      O43768   9.662   6.808   1.611
14509WAT     H143769   9.586   6.771   1.664
14509WAT     H243770   9.678   6.903   1.638
14510WAT      O43771   7.589   6.291   4.656
14510WAT     H143772   7.588   6.246   4.746
14510WAT     H243773   7.675   6.271   4.610
14511WAT      O43774   7.456   1.072   4.811
14511WAT     H143775   7.502   1.077   4.900
14511WAT     H243776   7.459   0.978   4.777
14512WAT      O43777   7.287   4.378   0.011
14512WAT     H143778   7.311   4.333   0.098
14512WAT     H243779   7.250   4.310  -0.052
14513WAT      O43780   9.480   8.072   7.598
14513WAT     H143781   9.481   8.164   7.638
14513WAT     H243782   9.567   8.055   7.552
14514WAT      O43783   6.320   6.077   6.656
14514WAT     H143784   6.242   6.113   6.605
14514WAT     H243785   6.405   6.111   6.614
14515WAT      O43786   0.841   7.974   8.018
14515WAT     H143787   0.920   7.918   7.993
14515WAT     H243788   0.859   8.018   8.107
14516WAT      O43789   8.554   4.128   3.895
14516WAT     H143790   8.650   4.133   3.921
14516WAT     H243791   8.504   4.205   3.935
14517WAT      O43792   6.880   6.429   9.496
14517WAT     H143793   6.927   6.466   9.416
14517WAT     H243794   6.783   6.449   9.489
14518WAT      O43795   1.301   6.161   4.725
14518WAT     H143796   1.358   6.243   4.733
14518WAT     H243797   1.331   6.093   4.793
14519WAT      O43798   1.787   8.349   9.585
14519WAT     H143799   1.716   8.360   9.655
14519WAT     H243800   1.869   8.310   9.628
14520WAT      O43801   3.079   7.360   1.473
14520WAT     H143802   3.000   7.408   1.510
14520WAT     H243803   3.163   7.395   1.516
14521WAT      O43804   0.916   7.549   3.812
14521WAT     H143805   0.979   7.595   3.749
14521WAT     H243806   0.822   7.573   3.788
14522WAT      O43807   3.435   6.455   8.999
14522WAT     H143808   3.458   6.547   8.968
14522WAT     H243809   3.344   6.430   8.965
14523WAT      O43810   1.029   8.565   2.540
14523WAT     H143811   1.019   8.573   2.639
14523WAT     H243812   0.981   8.641   2.496
14524WAT      O43813   1.696   0.158   7.371
14524WAT     H143814   1.688   0.236   7.309
14524WAT     H243815   1.608   0.139   7.414
14525WAT      O43816   8.627   4.424   8.637
14525WAT     H143817   8.563   4.441   8.712
14525WAT     H243818   8.619   4.329   8.608
14526WAT      O43819   8.291   3.163   8.008
14526WAT     H143820   8.196   3.165   7.975
14526WAT     H243821   8.330   3.073   7.989
14527WAT      O43822   8.810   7.343   2.321
14527WAT     H143823   8.742   7.414   2.302
14527WAT     H243824   8.896   7.385   2.347
14528WAT      O43825   6.894   9.785   1.281
14528WAT     H143826   6.927   9.870   1.324
14528WAT     H243827   6.960   9.712   1.296
14529WAT      O43828   0.975   7.460   6.533
14529WAT     H143829   0.913   7.501   6.600
14529WAT     H243830   0.923   7.405   6.468
14530WAT      O43831   5.563   1.715   2.795
14530WAT     H143832   5.510   1.791   2.756
14530WAT     H243833   5.613   1.748   2.875
14531WAT      O43834   2.001   8.869   1.333
14531WAT     H143835   2.098   8.891   1.328
14531WAT     H243836   1.988   8.771   1.314
14532WAT      O43837   8.020   6.852   4.230
14532WAT     H143838   7.956   6.920   4.264
14532WAT     H243839   8.002   6.764   4.274
14533WAT      O43840   5.301   4.391   5.562
14533WAT     H143841   5.372   4.424   5.500
14533WAT     H243842   5.303   4.444   5.647
14534WAT      O43843   3.873   1.935   5.578
14534WAT     H143844   3.911   1.874   5.509
14534WAT     H243845   3.940   2.005   5.601
14535WAT      O43846   4.745   5.653   9.395
14535WAT     H143847   4.718   5.719   9.325
14535WAT     H243848   4.813   5.591   9.357
14536WAT      O43849   1.009   7.802   5.914
14536WAT     H143850   0.923   7.781   5.868
14536WAT     H243851   1.058   7.873   5.863
14537WAT      O43852   1.569   9.480   6.577
14537WAT     H143853   1.619   9.498   6.492
14537WAT     H243854   1.471   9.485   6.561
14538WAT      O43855   8.872   4.261   5.001
14538WAT     H143856   8.924   4.311   5.071
14538WAT     H243857   8.798   4.210   5.046
14539WAT      O43858   4.963   9.277   1.661
14539WAT     H143859   4.881   9.323   1.694
14539WAT     H243860   4.938   9.190   1.620
14540WAT      O43861   0.691   8.462   8.773
14540WAT     H143862   0.677   8.557   8.802
14540WAT     H243863   0.759   8.419   8.832
14541WAT      O43864   8.833   8.468   5.614
14541WAT     H143865   8.863   8.376   5.639
14541WAT     H243866   8.733   8.468   5.604
14542WAT      O43867   3.364   9.237   0.324
14542WAT     H143868   3.418   9.314   0.291
14542WAT     H243869   3.354   9.169   0.250
14543WAT      O43870   9.028   7.751   4.764
14543WAT     H143871   9.124   7.767   4.741
14543WAT     H243872   9.009   7.789   4.855
14544WAT      O43873   3.846   4.705   9.734
14544WAT     H143874   3.832   4.610   9.764
14544WAT     H243875   3.788   4.766   9.788
14545WAT      O43876   3.886   1.882   2.615
14545WAT     H143877   3.853   1.971   2.649
14545WAT     H243878   3.826   1.851   2.542
14546WAT      O43879   1.521   0.369   9.830
14546WAT     H143880   1.606   0.394   9.784
14546WAT     H243881   1.493   0.444   9.890
14547WAT      O43882   8.420   0.851   2.113
14547WAT     H143883   8.373   0.910   2.047
14547WAT     H243884   8.448   0.904   2.192
14548WAT      O43885   8.152   5.619   9.455
14548WAT     H143886   8.248   5.642   9.442
14548WAT     H243887   8.107   5.612   9.366
14549WAT      O43888   3.371   6.888   1.008
14549WAT     H143889   3.278   6.902   0.975
14549WAT     H243890   3.372   6.815   1.076
14550WAT      O43891   1.689   3.111   2.415
14550WAT     H143892   1.752   3.085   2.342
14550WAT     H243893   1.643   3.196   2.391
14551WAT      O43894   2.640   7.587   6.063
14551WAT     H143895   2.618   7.680   6.092
14551WAT     H243896   2.598   7.568   5.975
14552WAT      O43897   2.934   4.589   9.398
14552WAT     H143898   3.006   4.566   9.331
14552WAT     H243899   2.957   4.676   9.442
14553WAT      O43900   4.390   7.478   2.797
14553WAT     H143901   4.360   7.521   2.882
14553WAT     H243902   4.323   7.409   2.768
14554WAT      O43903   5.954   6.670   8.722
14554WAT     H143904   5.873   6.614   8.704
14554WAT     H243905   5.999   6.638   8.805
14555WAT      O43906   9.224   0.455   8.680
14555WAT     H143907   9.242   0.398   8.760
14555WAT     H243908   9.262   0.410   8.598
14556WAT      O43909   2.327   6.416   0.140
14556WAT     H143910   2.270   6.335   0.124
14556WAT     H243911   2.322   6.476   0.060
14557WAT      O43912   3.303   0.874   5.151
14557WAT     H143913   3.220   0.928   5.137
14557WAT     H243914   3.291   0.814   5.230
14558WAT      O43915   4.413   9.684   4.291
14558WAT     H143916   4.493   9.625   4.294
14558WAT     H243917   4.372   9.680   4.200
14559WAT      O43918   8.993   9.540   2.732
14559WAT     H143919   8.970   9.476   2.659
14559WAT     H243920   8.967   9.633   2.704
14560WAT      O43921   0.941   3.238   9.099
14560WAT     H143922   0.849   3.267   9.126
14560WAT     H243923   0.990   3.205   9.179
14561WAT      O43924   7.132   1.110   4.431
14561WAT     H143925   7.121   1.064   4.519
14561WAT     H243926   7.090   1.054   4.359
14562WAT      O43927   3.081   0.928   4.263
14562WAT     H143928   2.993   0.885   4.242
14562WAT     H243929   3.066   1.007   4.323
14563WAT      O43930   8.892   1.764   7.852
14563WAT     H143931   8.837   1.706   7.793
14563WAT     H243932   8.987   1.764   7.819
14564WAT      O43933   2.803   5.065   1.063
14564WAT     H143934   2.885   5.111   1.097
14564WAT     H243935   2.730   5.073   1.131
14565WAT      O43936   7.231   6.826   1.787
14565WAT     H143937   7.323   6.860   1.807
14565WAT     H243938   7.169   6.850   1.861
14566WAT      O43939   6.967   4.470   4.590
14566WAT     H143940   7.030   4.480   4.514
14566WAT     H243941   6.877   4.441   4.555
14567WAT      O43942   7.607   6.133   1.301
14567WAT     H143943   7.575   6.121   1.394
14567WAT     H243944   7.529   6.147   1.240
14568WAT      O43945   5.473   7.182   0.675
14568WAT     H143946   5.461   7.198   0.577
14568WAT     H243947   5.396   7.129   0.710
14569WAT      O43948   7.536   4.338   8.724
14569WAT     H143949   7.507   4.347   8.819
14569WAT     H243950   7.516   4.423   8.676
14570WAT      O43951   3.566   1.749   0.273
14570WAT     H143952   3.558   1.769   0.371
14570WAT     H243953   3.517   1.664   0.253
14571WAT      O43954   6.239   2.728   9.801
14571WAT     H143955   6.160   2.753   9.744
14571WAT     H243956   6.207   2.679   9.882
14572WAT      O43957   7.526   3.755   8.639
14572WAT     H143958   7.616   3.800   8.639
14572WAT     H243959   7.520   3.694   8.717
14573WAT      O43960   6.867   6.745   5.382
14573WAT     H143961   6.963   6.772   5.386
14573WAT     H243962   6.812   6.809   5.436
14574WAT      O43963   1.194   3.537   1.161
14574WAT     H143964   1.132   3.459   1.155
14574WAT     H243965   1.169   3.606   1.093
14575WAT      O43966   8.038   8.644   2.930
14575WAT     H143967   7.972   8.643   2.855
14575WAT     H243968   7.990   8.669   3.015
14576WAT      O43969   4.771   6.179   1.508
14576WAT     H143970   4.696   6.153   1.447
14576WAT     H243971   4.777   6.278   1.513
14577WAT      O43972   0.622   8.722   1.292
14577WAT     H143973   0.622   8.646   1.357
14577WAT     H243974   0.573   8.694   1.209
14578WAT      O43975   6.313   8.788   4.033
14578WAT     H143976   6.396   8.842   4.016
14578WAT     H243977   6.246   8.805   3.960
14579WAT      O43978   5.712   0.370   8.866
14579WAT     H143979   5.619   0.357   8.831
14579WAT     H243980   5.777   0.366   8.791
14580WAT      O43981   9.351   0.744   0.334
14580WAT     H143982   9.303   0.818   0.286
14580WAT     H243983   9.339   0.658   0.284
14581WAT      O43984   5.505   0.532   1.778
14581WAT     H143985   5.485   0.461   1.712
14581WAT     H243986   5.502   0.622   1.733
14582WAT      O43987   4.608   9.329   4.918
14582WAT     H143988   4.535   9.382   4.960
14582WAT     H243989   4.697   9.361   4.951
14583WAT      O43990   1.097   4.652   5.510
14583WAT     H143991   1.111   4.568   5.562
14583WAT     H243992   1.120   4.731   5.568
14584WAT      O43993   3.390   6.792   9.737
14584WAT     H143994   3.303   6.793   9.786
14584WAT     H243995   3.449   6.865   9.772
14585WAT      O43996   1.890   5.894   0.280
14585WAT     H143997   1.908   5.989   0.253
14585WAT     H243998   1.927   5.833   0.211
14586WAT      O43999   1.675   5.532   7.459
14586WAT     H144000   1.755   5.584   7.488
14586WAT     H244001   1.593   5.586   7.474
14587WAT      O44002   7.537   8.792   7.636
14587WAT     H144003   7.558   8.761   7.544
14587WAT     H244004   7.537   8.892   7.638
14588WAT      O44005   0.498   6.664   4.915
14588WAT     H144006   0.503   6.570   4.948
14588WAT     H244007   0.424   6.673   4.848
14589WAT      O44008   2.867   6.100   1.947
14589WAT     H144009   2.932   6.138   1.881
14589WAT     H244010   2.775   6.099   1.907
14590WAT      O44011   4.086   0.524   2.228
14590WAT     H144012   4.043   0.612   2.208
14590WAT     H244013   4.173   0.539   2.274
14591WAT      O44014   6.626   9.558   9.877
14591WAT     H144015   6.636   9.459   9.870
14591WAT     H244016   6.532   9.581   9.903
14592WAT      O44017   1.000   2.033   8.158
14592WAT     H144018   0.904   2.005   8.150
14592WAT     H244019   1.055   1.980   8.094
14593WAT      O44020   1.872   0.750   8.602
14593WAT     H144021   1.802   0.691   8.560
14593WAT     H244022   1.910   0.704   8.682
14594WAT      O44023   3.075   1.387   7.688
14594WAT     H144024   3.122   1.328   7.623
14594WAT     H244025   3.039   1.333   7.763
14595WAT      O44026   7.193   1.702   5.111
14595WAT     H144027   7.243   1.616   5.120
14595WAT     H244028   7.097   1.687   5.135
14596WAT      O44029   0.244   2.605   7.741
14596WAT     H144030   0.159   2.656   7.757
14596WAT     H244031   0.277   2.568   7.828
14597WAT      O44032   3.389   5.087   7.398
14597WAT     H144033   3.308   5.059   7.347
14597WAT     H244034   3.423   5.174   7.363
14598WAT      O44035   0.886   3.041   2.139
14598WAT     H144036   0.907   3.139   2.142
14598WAT     H244037   0.849   3.018   2.049
14599WAT      O44038   2.068   2.565   7.442
14599WAT     H144039   2.051   2.605   7.531
14599WAT     H244040   2.158   2.595   7.409
14600WAT      O44041   4.001   6.398   7.412
14600WAT     H144042   4.006   6.429   7.507
14600WAT     H244043   4.003   6.298   7.409
14601WAT      O44044   4.280   2.475   4.512
14601WAT     H144045   4.290   2.381   4.479
14601WAT     H244046   4.311   2.539   4.442
14602WAT      O44047   6.760   2.390   7.289
14602WAT     H144048   6.803   2.446   7.360
14602WAT     H244049   6.758   2.295   7.319
14603WAT      O44050   6.352   4.845   4.808
14603WAT     H144051   6.307   4.930   4.781
14603WAT     H244052   6.303   4.805   4.886
14604WAT      O44053   1.489   3.302   2.806
14604WAT     H144054   1.466   3.369   2.877
14604WAT     H244055   1.579   3.323   2.767
14605WAT      O44056   6.373   2.322   8.081
14605WAT     H144057   6.349   2.244   8.023
14605WAT     H244058   6.458   2.363   8.048
14606WAT      O44059   4.296   4.527   4.042
14606WAT     H144060   4.388   4.505   4.077
14606WAT     H244061   4.252   4.443   4.010
14607WAT      O44062   5.224   4.943   1.861
14607WAT     H144063   5.195   4.971   1.953
14607WAT     H244064   5.143   4.918   1.807
14608WAT      O44065   7.045   2.378   9.317
14608WAT     H144066   7.102   2.339   9.244
14608WAT     H244067   7.004   2.304   9.370
14609WAT      O44068   0.223   5.411   9.569
14609WAT     H144069   0.250   5.375   9.659
14609WAT     H244070   0.285   5.484   9.543
14610WAT      O44071   3.989   7.375   7.197
14610WAT     H144072   3.947   7.429   7.124
14610WAT     H244073   3.958   7.410   7.286
14611WAT      O44074   5.807   4.801   6.589
14611WAT     H144075   5.709   4.821   6.585
14611WAT     H244076   5.851   4.865   6.652
14612WAT      O44077   9.457   8.610   6.993
14612WAT     H144078   9.426   8.551   6.919
14612WAT     H244079   9.405   8.695   6.992
14613WAT      O44080   0.668   7.645   2.586
14613WAT     H144081   0.734   7.637   2.660
14613WAT     H244082   0.667   7.739   2.553
14614WAT      O44083   1.487   7.776   5.907
14614WAT     H144084   1.462   7.868   5.877
14614WAT     H244085   1.404   7.720   5.916
14615WAT      O44086   0.251   7.129   3.088
14615WAT     H144087   0.223   7.043   3.131
14615WAT     H244088   0.182   7.199   3.106
14616WAT      O44089   2.443   6.416   6.947
14616WAT     H144090   2.444   6.449   7.041
14616WAT     H244091   2.420   6.319   6.946
14617WAT      O44092   4.151   6.445   8.742
14617WAT     H144093   4.069   6.452   8.686
14617WAT     H244094   4.224   6.400   8.691
14618WAT      O44095   2.459   1.791   8.386
14618WAT     H144096   2.380   1.732   8.366
14618WAT     H244097   2.463   1.865   8.319
14619WAT      O44098   2.563   0.549   9.303
14619WAT     H144099   2.473   0.586   9.277
14619WAT     H244100   2.553   0.491   9.384
14620WAT      O44101   0.115   0.930   7.349
14620WAT     H144102   0.091   0.965   7.440
14620WAT     H244103   0.075   0.990   7.279
14621WAT      O44104   0.729   9.595   9.373
14621WAT     H144105   0.646   9.574   9.425
14621WAT     H244106   0.794   9.643   9.432
14622WAT      O44107   0.664   0.814   5.131
14622WAT     H144108   0.749   0.867   5.136
14622WAT     H244109   0.602   0.857   5.066
14623WAT      O44110   6.421   7.155   6.807
14623WAT     H144111   6.332   7.110   6.819
14623WAT     H244112   6.471   7.154   6.893
14624WAT      O44113   4.432   1.962   3.267
14624WAT     H144114   4.528   1.983   3.249
14624WAT     H244115   4.424   1.872   3.309
14625WAT      O44116   2.622   0.694   2.593
14625WAT     H144117   2.599   0.600   2.566
14625WAT     H244118   2.594   0.757   2.521
14626WAT      O44119   6.883   7.219   6.631
14626WAT     H144120   6.787   7.206   6.607
14626WAT     H244121   6.889   7.263   6.721
14627WAT      O44122   2.264   2.492   2.698
14627WAT     H144123   2.283   2.589   2.687
14627WAT     H244124   2.208   2.460   2.622
14628WAT      O44125   3.832   6.952   4.648
14628WAT     H144126   3.767   6.990   4.713
14628WAT     H244127   3.925   6.959   4.686
14629WAT      O44128   3.059   3.024   8.521
14629WAT     H144129   3.099   3.030   8.613
14629WAT     H244130   2.964   2.992   8.529
14630WAT      O44131   1.548   5.389   6.960
14630WAT     H144132   1.599   5.380   7.046
14630WAT     H244133   1.504   5.302   6.938
14631WAT      O44134   1.074   1.277   2.668
14631WAT     H144135   1.037   1.284   2.761
14631WAT     H244136   1.009   1.228   2.610
14632WAT      O44137   3.556   2.930   1.752
14632WAT     H144138   3.606   2.890   1.675
14632WAT     H244139   3.518   3.018   1.725
14633WAT      O44140   2.047   7.944   2.444
14633WAT     H144141   2.124   8.003   2.469
14633WAT     H244142   1.963   7.982   2.482
14634WAT      O44143   8.589   1.626   2.986
14634WAT     H144144   8.552   1.709   3.027
14634WAT     H244145   8.566   1.547   3.043
14635WAT      O44146   0.929   7.878   8.526
14635WAT     H144147   0.933   7.957   8.586
14635WAT     H244148   1.018   7.865   8.482
14636WAT      O44149   9.524   9.792   9.004
14636WAT     H144150   9.610   9.840   8.991
14636WAT     H244151   9.453   9.857   9.032
14637WAT      O44152   9.117   7.119   7.434
14637WAT     H144153   9.163   7.168   7.509
14637WAT     H244154   9.146   7.158   7.347
14638WAT      O44155   4.753   1.119   8.441
14638WAT     H144156   4.741   1.151   8.535
14638WAT     H244157   4.739   1.194   8.377
14639WAT      O44158   2.490   6.874   6.492
14639WAT     H144159   2.437   6.928   6.557
14639WAT     H244160   2.438   6.792   6.467
14640WAT      O44161   6.888   3.796   6.674
14640WAT     H144162   6.925   3.854   6.601
14640WAT     H244163   6.820   3.733   6.635
14641WAT      O44164   5.190   0.084   8.321
14641WAT     H144165   5.133   0.096   8.403
14641WAT     H244166   5.272   0.141   8.329
14642WAT      O44167   7.896   2.955   8.183
14642WAT     H144168   7.914   2.933   8.087
14642WAT     H244169   7.977   2.999   8.223
14643WAT      O44170   4.323   9.351   4.001
14643WAT     H144171   4.354   9.259   3.976
14643WAT     H244172   4.234   9.345   4.045
14644WAT      O44173   5.172   4.445   1.339
14644WAT     H144174   5.121   4.530   1.341
14644WAT     H244175   5.185   4.416   1.244
14645WAT      O44176   0.651   2.778   1.285
14645WAT     H144177   0.701   2.848   1.335
14645WAT     H244178   0.664   2.689   1.329
14646WAT      O44179   4.376   7.154   7.351
14646WAT     H144180   4.376   7.125   7.447
14646WAT     H244181   4.444   7.225   7.337
14647WAT      O44182   3.445   3.578   8.537
14647WAT     H144183   3.393   3.551   8.456
14647WAT     H244184   3.430   3.512   8.610
14648WAT      O44185   3.833   3.246   2.963
14648WAT     H144186   3.780   3.316   2.915
14648WAT     H244187   3.858   3.173   2.899
14649WAT      O44188   7.495   7.299   8.751
14649WAT     H144189   7.515   7.342   8.839
14649WAT     H244190   7.531   7.205   8.751
14650WAT      O44191   7.370   5.083   0.137
14650WAT     H144192   7.367   5.181   0.157
14650WAT     H244193   7.370   5.069   0.038
14651WAT      O44194   4.022   6.050   7.876
14651WAT     H144195   4.109   6.035   7.923
14651WAT     H244196   3.957   5.979   7.904
14652WAT      O44197   0.595   7.858   8.285
14652WAT     H144198   0.598   7.947   8.331
14652WAT     H244199   0.567   7.870   8.190
14653WAT      O44200   6.382   9.751   0.301
14653WAT     H144201   6.354   9.823   0.365
14653WAT     H244202   6.426   9.677   0.351
14654WAT      O44203   1.244   4.826   6.725
14654WAT     H144204   1.321   4.847   6.786
14654WAT     H244205   1.174   4.776   6.777
14655WAT      O44206   3.383   5.690   9.891
14655WAT     H144207   3.462   5.645   9.933
14655WAT     H244208   3.413   5.745   9.814
14656WAT      O44209   4.105   3.367   1.193
14656WAT     H144210   4.054   3.299   1.139
14656WAT     H244211   4.042   3.419   1.250
14657WAT      O44212   7.462   2.837   3.871
14657WAT     H144213   7.397   2.875   3.936
14657WAT     H244214   7.417   2.768   3.815
14658WAT      O44215   0.346   5.537   8.189
14658WAT     H144216   0.269   5.592   8.221
14658WAT     H244217   0.318   5.480   8.112
14659WAT      O44218   6.776   1.897   7.024
14659WAT     H144219   6.782   1.936   6.932
14659WAT     H244220   6.847   1.938   7.081
14660WAT      O44221   3.052   3.793   0.368
14660WAT     H144222   3.012   3.878   0.332
14660WAT     H244223   3.147   3.785   0.336
14661WAT      O44224   9.209   9.189   9.633
14661WAT     H144225   9.241   9.228   9.547
14661WAT     H244226   9.120   9.145   9.618
14662WAT      O44227   3.946   7.447   7.464
14662WAT     H144228   3.907   7.398   7.542
14662WAT     H244229   3.907   7.539   7.461
14663WAT      O44230   4.557   0.482   4.169
14663WAT     H144231   4.465   0.444   4.168
14663WAT     H244232   4.566   0.549   4.096
14664WAT      O44233   2.229   6.229   2.246
14664WAT     H144234   2.129   6.236   2.248
14664WAT     H244235   2.255   6.151   2.190
14665WAT      O44236   9.148   7.657   2.611
14665WAT     H144237   9.233   7.669   2.560
14665WAT     H244238   9.146   7.720   2.688
14666WAT      O44239   9.860   6.472   1.903
14666WAT     H144240   9.836   6.566   1.926
14666WAT     H244241   9.779   6.424   1.868
14667WAT      O44242   1.782   8.534   7.157
14667WAT     H144243   1.860   8.595   7.143
14667WAT     H244244   1.722   8.572   7.227
14668WAT      O44245   8.612   5.413   0.193
14668WAT     H144246   8.578   5.336   0.247
14668WAT     H244247   8.557   5.423   0.111
14669WAT      O44248   3.894   4.415   5.524
14669WAT     H144249   3.815   4.458   5.481
14669WAT     H244250   3.957   4.383   5.453
14670WAT      O44251   7.494   4.685   7.432
14670WAT     H144252   7.420   4.621   7.454
14670WAT     H244253   7.521   4.673   7.337
14671WAT      O44254   1.724   2.863   4.869
14671WAT     H144255   1.762   2.772   4.852
14671WAT     H244256   1.760   2.927   4.801
14672WAT      O44257   8.448   5.303   8.733
14672WAT     H144258   8.405   5.273   8.818
14672WAT     H244259   8.454   5.403   8.733
14673WAT      O44260   7.285   6.017   2.638
14673WAT     H144261   7.295   6.035   2.540
14673WAT     H244262   7.346   6.078   2.689
14674WAT      O44263   6.958   3.096   9.092
14674WAT     H144264   6.947   3.071   9.189
14674WAT     H244265   7.039   3.153   9.081
14675WAT      O44266   0.309   3.506   0.639
14675WAT     H144267   0.307   3.495   0.738
14675WAT     H244268   0.235   3.567   0.610
14676WAT      O44269   4.959   4.423   4.724
14676WAT     H144270   4.861   4.403   4.725
14676WAT     H244271   5.009   4.343   4.757
14677WAT      O44272   3.895   5.084   1.534
14677WAT     H144273   3.948   5.097   1.618
14677WAT     H244274   3.893   4.987   1.511
14678WAT      O44275   6.744   7.541   8.229
14678WAT     H144276   6.777   7.529   8.135
14678WAT     H244277   6.660   7.488   8.242
14679WAT      O44278   4.192   6.328   7.096
14679WAT     H144279   4.154   6.287   7.179
14679WAT     H244280   4.289   6.304   7.088
14680WAT      O44281   1.786   2.583   0.875
14680WAT     H144282   1.691   2.607   0.857
14680WAT     H244283   1.801   2.486   0.856
14681WAT      O44284   8.989   4.444   1.043
14681WAT     H144285   9.049   4.438   0.963
14681WAT     H244286   9.037   4.488   1.118
14682WAT      O44287   0.152   2.512   1.893
14682WAT     H144288   0.087   2.585   1.910
14682WAT     H244289   0.124   2.430   1.945
14683WAT      O44290   1.851   8.868   1.849
14683WAT     H144291   1.794   8.866   1.767
14683WAT     H244292   1.798   8.903   1.926
14684WAT      O44293   0.077   3.569   2.376
14684WAT     H144294   0.135   3.551   2.455
14684WAT     H244295   0.125   3.628   2.311
14685WAT      O44296   8.882   9.556   0.793
14685WAT     H144297   8.928   9.584   0.878
14685WAT     H244298   8.914   9.613   0.717
14686WAT      O44299   4.803   3.735   6.082
14686WAT     H144300   4.739   3.808   6.105
14686WAT     H244301   4.874   3.730   6.152
14687WAT      O44302   0.770   5.546   5.909
14687WAT     H144303   0.863   5.577   5.894
14687WAT     H244304   0.757   5.526   6.006
14688WAT      O44305   6.640   3.430   8.784
14688WAT     H144306   6.656   3.350   8.843
14688WAT     H244307   6.583   3.496   8.833
14689WAT      O44308   5.285   3.841   5.865
14689WAT     H144309   5.197   3.847   5.819
14689WAT     H244310   5.282   3.894   5.950
14690WAT      O44311   1.582   2.224   5.158
14690WAT     H144312   1.652   2.156   5.137
14690WAT     H244313   1.547   2.209   5.250
14691WAT      O44314   0.046   3.476   8.477
14691WAT     H144315   0.083   3.544   8.541
14691WAT     H244316   0.120   3.427   8.433
14692WAT      O44317   1.860   7.463   5.871
14692WAT     H144318   1.830   7.371   5.894
14692WAT     H244319   1.784   7.514   5.830
14693WAT      O44320   6.538   4.460   9.791
14693WAT     H144321   6.461   4.431   9.735
14693WAT     H244322   6.510   4.461   9.887
14694WAT      O44323   0.595   2.195   5.061
14694WAT     H144324   0.633   2.281   5.027
14694WAT     H244325   0.590   2.198   5.161
14695WAT      O44326   6.462   7.248   5.321
14695WAT     H144327   6.401   7.300   5.380
14695WAT     H244328   6.492   7.306   5.244
14696WAT      O44329   5.063   2.191   9.186
14696WAT     H144330   5.122   2.228   9.114
14696WAT     H244331   5.103   2.107   9.222
14697WAT      O44332   8.386   3.681   0.191
14697WAT     H144333   8.377   3.688   0.290
14697WAT     H244334   8.296   3.659   0.151
14698WAT      O44335   4.015   3.730   5.947
14698WAT     H144336   3.938   3.718   5.885
14698WAT     H244337   3.997   3.683   6.033
14699WAT      O44338   5.758   1.065   7.895
14699WAT     H144339   5.678   1.086   7.951
14699WAT     H244340   5.804   1.151   7.869
14700WAT      O44341   9.217   3.502   2.202
14700WAT     H144342   9.143   3.438   2.220
14700WAT     H244343   9.303   3.452   2.192
14701WAT      O44344   2.328   4.241   5.764
14701WAT     H144345   2.397   4.282   5.824
14701WAT     H244346   2.244   4.296   5.769
14702WAT      O44347   4.766   2.392   1.421
14702WAT     H144348   4.774   2.467   1.486
14702WAT     H244349   4.670   2.365   1.413
14703WAT      O44350   9.756   5.484   5.045
14703WAT     H144351   9.743   5.449   4.953
14703WAT     H244352   9.706   5.426   5.110
14704WAT      O44353   1.854   4.342   1.828
14704WAT     H144354   1.833   4.245   1.843
14704WAT     H244355   1.784   4.382   1.769
14705WAT      O44356   8.242   5.906   0.698
14705WAT     H144357   8.257   5.898   0.797
14705WAT     H244358   8.323   5.945   0.655
14706WAT      O44359   0.589   4.562   9.453
14706WAT     H144360   0.528   4.631   9.493
14706WAT     H244361   0.609   4.587   9.359
14707WAT      O44362   9.649   9.354   3.691
14707WAT     H144363   9.647   9.443   3.737
14707WAT     H244364   9.571   9.299   3.721
14708WAT      O44365   4.881   3.438   5.038
14708WAT     H144366   4.968   3.488   5.045
14708WAT     H244367   4.887   3.355   5.093
14709WAT      O44368   0.394   9.443   6.586
14709WAT     H144369   0.366   9.350   6.562
14709WAT     H244370   0.398   9.452   6.685
14710WAT      O44371   9.636   2.395   1.292
14710WAT     H144372   9.623   2.388   1.193
14710WAT     H244373   9.548   2.408   1.336
14711WAT      O44374   3.689   3.051   5.164
14711WAT     H144375   3.744   3.089   5.238
14711WAT     H244376   3.677   3.120   5.092
14712WAT      O44377   1.420   2.409   3.653
14712WAT     H144378   1.426   2.352   3.735
14712WAT     H244379   1.508   2.410   3.607
14713WAT      O44380   7.907   7.871   6.676
14713WAT     H144381   7.905   7.942   6.605
14713WAT     H244382   7.979   7.805   6.654
14714WAT      O44383   1.648   0.982   2.910
14714WAT     H144384   1.732   1.005   2.959
14714WAT     H244385   1.607   1.065   2.872
14715WAT      O44386   2.498   1.255   8.832
14715WAT     H144387   2.477   1.279   8.738
14715WAT     H244388   2.444   1.311   8.894
14716WAT      O44389   8.632   2.669   4.398
14716WAT     H144390   8.637   2.698   4.494
14716WAT     H244391   8.536   2.667   4.370
14717WAT      O44392   8.099   3.754   0.788
14717WAT     H144393   8.192   3.765   0.823
14717WAT     H244394   8.035   3.756   0.865
14718WAT      O44395   5.795   6.022   9.706
14718WAT     H144396   5.768   5.929   9.728
14718WAT     H244397   5.851   6.059   9.779
14719WAT      O44398   9.038   7.471   5.604
14719WAT     H144399   8.965   7.479   5.536
14719WAT     H244400   9.107   7.407   5.570
14720WAT      O44401   5.430   1.492   6.810
14720WAT     H144402   5.421   1.523   6.905
14720WAT     H244403   5.366   1.418   6.793
14721WAT      O44404   9.274   8.350   2.269
14721WAT     H144405   9.342   8.410   2.226
14721WAT     H244406   9.253   8.274   2.208
14722WAT      O44407   9.309   4.426   0.660
14722WAT     H144408   9.304   4.508   0.602
14722WAT     H244409   9.369   4.359   0.617
14723WAT      O44410   7.087   0.890   4.595
14723WAT     H144411   7.098   0.869   4.692
14723WAT     H244412   7.142   0.826   4.541
14724WAT      O44413   2.309   9.351   7.840
14724WAT     H144414   2.292   9.270   7.895
14724WAT     H244415   2.271   9.432   7.886
14725WAT      O44416   5.439   1.253   7.082
14725WAT     H144417   5.496   1.206   7.015
14725WAT     H244418   5.342   1.241   7.059
14726WAT      O44419   9.479   8.338   9.658
14726WAT     H144420   9.492   8.242   9.680
14726WAT     H244421   9.564   8.388   9.678
14727WAT      O44422   9.267   6.280   1.603
14727WAT     H144423   9.215   6.259   1.685
14727WAT     H244424   9.261   6.204   1.539
14728WAT      O44425   0.374   6.361   1.376
14728WAT     H144426   0.335   6.453   1.372
14728WAT     H244427   0.301   6.294   1.390
14729WAT      O44428   8.262   5.389   5.013
14729WAT     H144429   8.352   5.434   5.016
14729WAT     H244430   8.262   5.319   4.942
14730WAT      O44431   4.105   8.072   5.743
14730WAT     H144432   4.031   8.065   5.810
14730WAT     H244433   4.118   7.984   5.698
14731WAT      O44434   0.140   8.632   9.669
14731WAT     H144435   0.202   8.583   9.731
14731WAT     H244436   0.136   8.728   9.695
14732WAT      O44437   4.071   7.027   3.667
14732WAT     H144438   4.111   7.000   3.579
14732WAT     H244439   3.972   7.013   3.663
14733WAT      O44440   5.219   9.373   9.396
14733WAT     H144441   5.161   9.373   9.478
14733WAT     H244442   5.282   9.295   9.400
14734WAT      O44443   0.692   4.762   3.210
14734WAT     H144444   0.661   4.848   3.250
14734WAT     H244445   0.761   4.780   3.141
14735WAT      O44446   8.097   8.808   7.411
14735WAT     H144447   8.167   8.816   7.483
14735WAT     H244448   8.034   8.885   7.417
14736WAT      O44449   4.936   2.409   8.132
14736WAT     H144450   4.870   2.423   8.058
14736WAT     H244451   4.919   2.321   8.176
14737WAT      O44452   1.002   0.614   5.100
14737WAT     H144453   0.987   0.678   5.175
14737WAT     H244454   0.954   0.529   5.118
14738WAT      O44455   0.215   9.655   5.490
14738WAT     H144456   0.219   9.595   5.570
14738WAT     H244457   0.289   9.631   5.427
14739WAT      O44458   1.770   5.895   9.116
14739WAT     H144459   1.777   5.873   9.214
14739WAT     H244460   1.759   5.810   9.065
14740WAT      O44461   0.841   9.405   9.234
14740WAT     H144462   0.802   9.471   9.298
14740WAT     H244463   0.817   9.312   9.264
14741WAT      O44464   6.273   1.237   3.988
14741WAT     H144465   6.279   1.337   3.981
14741WAT     H244466   6.181   1.208   3.963
14742WAT      O44467   4.274   6.870   0.429
14742WAT     H144468   4.310   6.834   0.515
14742WAT     H244469   4.338   6.938   0.392
14743WAT      O44470   6.562   4.202   4.338
14743WAT     H144471   6.620   4.278   4.366
14743WAT     H244472   6.533   4.151   4.419
14744WAT      O44473   2.988   4.614   9.880
14744WAT     H144474   3.031   4.700   9.906
14744WAT     H244475   2.960   4.565   9.963
14745WAT      O44476   3.500   8.357   3.145
14745WAT     H144477   3.485   8.264   3.179
14745WAT     H244478   3.448   8.422   3.202
14746WAT      O44479   1.574   9.154   9.811
14746WAT     H144480   1.661   9.112   9.834
14746WAT     H244481   1.556   9.143   9.713
14747WAT      O44482   7.123   6.874   0.373
14747WAT     H144483   7.202   6.886   0.433
14747WAT     H244484   7.095   6.963   0.336
14748WAT      O44485   8.230   3.779   1.766
14748WAT     H144486   8.154   3.730   1.723
14748WAT     H244487   8.308   3.718   1.775
14749WAT      O44488   4.506   7.877   1.670
14749WAT     H144489   4.495   7.849   1.575
14749WAT     H244490   4.422   7.858   1.721
14750WAT      O44491   5.752   9.315   7.171
14750WAT     H144492   5.833   9.312   7.113
14750WAT     H244493   5.774   9.280   7.262
14751WAT      O44494   3.132   3.093   4.369
14751WAT     H144495   3.171   3.010   4.407
14751WAT     H244496   3.075   3.138   4.438
14752WAT      O44497   4.067   9.407   0.143
14752WAT     H144498   4.059   9.332   0.209
14752WAT     H244499   4.083   9.370   0.052
14753WAT      O44500   9.132   4.660   7.230
14753WAT     H144501   9.130   4.673   7.131
14753WAT     H244502   9.160   4.746   7.274
14754WAT      O44503   1.410   4.707   9.307
14754WAT     H144504   1.321   4.717   9.261
14754WAT     H244505   1.481   4.744   9.248
14755WAT      O44506   0.985   6.996   2.479
14755WAT     H144507   0.968   6.910   2.526
14755WAT     H244508   1.075   7.032   2.505
14756WAT      O44509   2.898   2.437   0.747
14756WAT     H144510   2.816   2.386   0.775
14756WAT     H244511   2.977   2.376   0.748
14757WAT      O44512   8.974   1.175   4.166
14757WAT     H144513   9.014   1.113   4.098
14757WAT     H244514   8.940   1.257   4.121
14758WAT      O44515   2.503   0.370   9.107
14758WAT     H144516   2.547   0.446   9.154
14758WAT     H244517   2.572   0.301   9.084
14759WAT      O44518   9.122   7.727   2.238
14759WAT     H144519   9.204   7.704   2.290
14759WAT     H244520   9.147   7.765   2.149
14760WAT      O44521   1.496   9.604   4.854
14760WAT     H144522   1.509   9.702   4.871
14760WAT     H244523   1.527   9.552   4.933
14761WAT      O44524   5.117   6.751   8.973
14761WAT     H144525   5.210   6.756   8.936
14761WAT     H244526   5.059   6.700   8.910
14762WAT      O44527   4.402   6.143   7.415
14762WAT     H144528   4.474   6.211   7.402
14762WAT     H244529   4.362   6.152   7.506
14763WAT      O44530   9.718   2.249   2.028
14763WAT     H144531   9.818   2.240   2.028
14763WAT     H244532   9.680   2.197   2.104
14764WAT      O44533   2.678   8.607   5.422
14764WAT     H144534   2.736   8.537   5.465
14764WAT     H244535   2.705   8.697   5.455
14765WAT      O44536   6.311   7.753   6.714
14765WAT     H144537   6.317   7.848   6.682
14765WAT     H244538   6.302   7.752   6.813
14766WAT      O44539   5.743   8.663   4.814
14766WAT     H144540   5.761   8.655   4.913
14766WAT     H244541   5.794   8.740   4.777
14767WAT      O44542   9.866   4.599   7.926
14767WAT     H144543   9.885   4.584   7.829
14767WAT     H244544   9.868   4.512   7.975
14768WAT      O44545   3.135   3.084   1.410
14768WAT     H144546   3.158   3.102   1.315
14768WAT     H244547   3.134   3.170   1.461
14769WAT      O44548   7.783   9.811   0.473
14769WAT     H144549   7.704   9.813   0.411
14769WAT     H244550   7.867   9.819   0.419
14770WAT      O44551   6.633   7.530   0.111
14770WAT     H144552   6.687   7.614   0.116
14770WAT     H244553   6.666   7.465   0.179
14771WAT      O44554   3.422   9.220   4.858
14771WAT     H144555   3.472   9.155   4.801
14771WAT     H244556   3.478   9.244   4.938
14772WAT      O44557   0.879   4.837   5.239
14772WAT     H144558   0.779   4.831   5.244
14772WAT     H244559   0.919   4.750   5.267
14773WAT      O44560   6.464   0.838   8.871
14773WAT     H144561   6.434   0.866   8.780
14773WAT     H244562   6.404   0.879   8.940
14774WAT      O44563   0.760   7.447   0.170
14774WAT     H144564   0.819   7.431   0.249
14774WAT     H244565   0.777   7.377   0.101
14775WAT      O44566   4.295   1.844   7.241
14775WAT     H144567   4.208   1.823   7.196
14775WAT     H244568   4.364   1.776   7.215
14776WAT      O44569   3.985   3.513   2.727
14776WAT     H144570   3.914   3.518   2.657
14776WAT     H244571   3.947   3.542   2.815
14777WAT      O44572   3.733   3.725   1.360
14777WAT     H144573   3.691   3.648   1.312
14777WAT     H244574   3.677   3.750   1.439
14778WAT      O44575   5.284   0.254   6.608
14778WAT     H144576   5.244   0.253   6.700
14778WAT     H244577   5.353   0.182   6.601
14779WAT      O44578   3.053   7.036   8.081
14779WAT     H144579   3.052   6.937   8.092
14779WAT     H244580   3.087   7.079   8.165
14780WAT      O44581   0.310   0.918   1.421
14780WAT     H144582   0.297   0.861   1.340
14780WAT     H244583   0.221   0.944   1.458
14781WAT      O44584   6.774   3.664   1.475
14781WAT     H144585   6.804   3.758   1.458
14781WAT     H244586   6.675   3.660   1.480
14782WAT      O44587   6.741   6.927   5.591
14782WAT     H144588   6.658   6.961   5.546
14782WAT     H244589   6.816   6.991   5.574
14783WAT      O44590   9.148   4.719   4.712
14783WAT     H144591   9.066   4.762   4.749
14783WAT     H244592   9.224   4.784   4.715
14784WAT      O44593   8.290   0.959   2.766
14784WAT     H144594   8.379   0.913   2.765
14784WAT     H244595   8.279   1.005   2.855
14785WAT      O44596   6.020   8.592   2.805
14785WAT     H144597   6.065   8.623   2.722
14785WAT     H244598   6.076   8.617   2.884
14786WAT      O44599   6.442   2.693   0.079
14786WAT     H144600   6.535   2.696   0.041
14786WAT     H244601   6.377   2.728   0.012
14787WAT      O44602   1.243   8.593   4.112
14787WAT     H144603   1.179   8.647   4.058
14787WAT     H244604   1.219   8.496   4.105
14788WAT      O44605   6.834   0.856   9.461
14788WAT     H144606   6.780   0.784   9.504
14788WAT     H244607   6.927   0.854   9.496
14789WAT      O44608   0.716   6.738   6.283
14789WAT     H144609   0.617   6.740   6.298
14789WAT     H244610   0.739   6.797   6.206
14790WAT      O44611   4.421   5.300   3.512
14790WAT     H144612   4.407   5.210   3.471
14790WAT     H244613   4.340   5.326   3.565
14791WAT      O44614   4.001   9.100   6.771
14791WAT     H144615   4.039   9.092   6.863
14791WAT     H244616   3.959   9.190   6.760
14792WAT      O44617   9.610   7.492   4.047
14792WAT     H144618   9.642   7.583   4.074
14792WAT     H244619   9.517   7.478   4.082
14793WAT      O44620   1.355   5.444   2.333
14793WAT     H144621   1.351   5.346   2.311
14793WAT     H244622   1.262   5.481   2.340
14794WAT      O44623   8.130   3.125   8.259
14794WAT     H144624   8.179   3.131   8.172
14794WAT     H244625   8.122   3.216   8.300
14795WAT      O44626   6.576   0.494   1.549
14795WAT     H144627   6.534   0.485   1.459
14795WAT     H244628   6.530   0.434   1.614
14796WAT      O44629   5.072   8.791   3.134
14796WAT     H144630   4.984   8.839   3.125
14796WAT     H244631   5.127   8.808   3.052
14797WAT      O44632   0.658   6.417   1.407
14797WAT     H144633   0.664   6.495   1.470
14797WAT     H244634   0.563   6.389   1.398
14798WAT      O44635   2.807   5.817   9.126
14798WAT     H144636   2.718   5.861   9.136
14798WAT     H244637   2.863   5.871   9.062
14799WAT      O44638   3.567   0.983   3.865
14799WAT     H144639   3.650   0.944   3.825
14799WAT     H244640   3.488   0.955   3.810
14800WAT      O44641   8.752   2.487   6.461
14800WAT     H144642   8.765   2.527   6.370
14800WAT     H244643   8.779   2.391   6.459
14801WAT      O44644   5.291   6.873   7.980
14801WAT     H144645   5.316   6.943   7.913
14801WAT     H244646   5.199   6.839   7.958
14802WAT      O44647   6.919   4.726   3.892
14802WAT     H144648   6.892   4.635   3.924
14802WAT     H244649   6.931   4.787   3.970
14803WAT      O44650   0.821   5.662   2.932
14803WAT     H144651   0.833   5.563   2.927
14803WAT     H244652   0.814   5.691   3.027
14804WAT      O44653   9.175   6.246   2.104
14804WAT     H144654   9.248   6.184   2.132
14804WAT     H244655   9.094   6.230   2.161
14805WAT      O44656   1.281   1.869   5.760
14805WAT     H144657   1.212   1.937   5.784
14805WAT     H244658   1.250   1.778   5.787
14806WAT      O44659   9.437   1.074   6.399
14806WAT     H144660   9.403   1.063   6.305
14806WAT     H244661   9.493   0.996   6.423
14807WAT      O44662   1.803   3.324   7.033
14807WAT     H144663   1.879   3.320   6.969
14807WAT     H244664   1.823   3.266   7.112
14808WAT      O44665   6.038   4.798   6.124
14808WAT     H144666   6.027   4.778   6.221
14808WAT     H244667   6.028   4.896   6.108
14809WAT      O44668   6.170   6.723   2.531
14809WAT     H144669   6.150   6.800   2.470
14809WAT     H244670   6.229   6.657   2.483
14810WAT      O44671   0.214   5.440   3.720
14810WAT     H144672   0.301   5.472   3.759
14810WAT     H244673   0.155   5.408   3.794
14811WAT      O44674   9.358   5.486   1.513
14811WAT     H144675   9.339   5.510   1.418
14811WAT     H244676   9.423   5.552   1.552
14812WAT      O44677   6.784   3.142   2.681
14812WAT     H144678   6.777   3.180   2.774
14812WAT     H244679   6.783   3.042   2.686
14813WAT      O44680   5.083   8.409   9.499
14813WAT     H144681   5.085   8.335   9.566
14813WAT     H244682   5.016   8.387   9.428
14814WAT      O44683   2.270   1.947   5.467
14814WAT     H144684   2.337   2.015   5.497
14814WAT     H244685   2.258   1.955   5.368
14815WAT      O44686   7.396   7.696   5.430
14815WAT     H144687   7.326   7.651   5.486
14815WAT     H244688   7.371   7.687   5.333
14816WAT      O44689   3.037   8.271   2.290
14816WAT     H144690   3.097   8.351   2.289
14816WAT     H244691   3.088   8.191   2.260
14817WAT      O44692   0.104   9.220   3.808
14817WAT     H144693   0.098   9.319   3.797
14817WAT     H244694   0.094   9.196   3.904
14818WAT      O44695   7.028   5.217   8.336
14818WAT     H144696   7.100   5.256   8.394
14818WAT     H244697   6.947   5.276   8.340
14819WAT      O44698   2.452   8.625   1.885
14819WAT     H144699   2.403   8.694   1.938
14819WAT     H244700   2.409   8.536   1.899
14820WAT      O44701   5.707   1.012   2.595
14820WAT     H144702   5.613   1.042   2.578
14820WAT     H244703   5.769   1.066   2.539
14821WAT      O44704   9.057   4.142   0.601
14821WAT     H144705   9.157   4.140   0.597
14821WAT     H244706   9.026   4.084   0.676
14822WAT      O44707   0.736   7.958   6.872
14822WAT     H144708   0.761   8.052   6.849
14822WAT     H244709   0.783   7.895   6.810
14823WAT      O44710   1.458   4.954   2.221
14823WAT     H144711   1.529   4.962   2.152
14823WAT     H244712   1.449   4.858   2.248
14824WAT      O44713   5.222   1.416   1.736
14824WAT     H144714   5.224   1.338   1.674
14824WAT     H244715   5.278   1.397   1.817
14825WAT      O44716   1.212   8.897   5.943
14825WAT     H144717   1.276   8.822   5.960
14825WAT     H244718   1.154   8.874   5.865
14826WAT      O44719   8.630   7.730   6.550
14826WAT     H144720   8.705   7.681   6.507
14826WAT     H244721   8.606   7.810   6.495
14827WAT      O44722   7.532   5.739   2.098
14827WAT     H144723   7.560   5.835   2.099
14827WAT     H244724   7.439   5.732   2.062
14828WAT      O44725   6.771   7.406   6.019
14828WAT     H144726   6.755   7.312   6.051
14828WAT     H244727   6.853   7.443   6.064
14829WAT      O44728   7.666   7.228   9.769
14829WAT     H144729   7.674   7.192   9.862
14829WAT     H244730   7.581   7.279   9.760
14830WAT      O44731   5.905   2.373   1.618
14830WAT     H144732   5.852   2.445   1.574
14830WAT     H244733   5.991   2.411   1.652
14831WAT      O44734   8.596   0.125   5.786
14831WAT     H144735   8.638   0.155   5.872
14831WAT     H244736   8.629   0.182   5.711
14832WAT      O44737   4.457   7.480   0.881
14832WAT     H144738   4.417   7.434   0.801
14832WAT     H244739   4.537   7.533   0.853
14833WAT      O44740   5.297   1.947   1.719
14833WAT     H144741   5.351   1.911   1.795
14833WAT     H244742   5.279   1.873   1.653
14834WAT      O44743   2.320   5.695   3.864
14834WAT     H144744   2.307   5.794   3.865
14834WAT     H244745   2.415   5.674   3.887
14835WAT      O44746   3.263   6.002   4.184
14835WAT     H144747   3.301   6.011   4.092
14835WAT     H244748   3.183   5.942   4.182
14836WAT      O44749   7.593   6.220   7.192
14836WAT     H144750   7.589   6.138   7.248
14836WAT     H244751   7.500   6.246   7.165
14837WAT      O44752   7.304   7.962   7.181
14837WAT     H144753   7.274   8.032   7.245
14837WAT     H244754   7.396   7.983   7.149
14838WAT      O44755   2.783   1.756   9.256
14838WAT     H144756   2.842   1.832   9.284
14838WAT     H244757   2.726   1.728   9.333
14839WAT      O44758   0.163   1.381   7.979
14839WAT     H144759   0.235   1.448   7.996
14839WAT     H244760   0.172   1.304   8.042
14840WAT      O44761   3.864   0.845   8.724
14840WAT     H144762   3.819   0.878   8.642
14840WAT     H244763   3.822   0.759   8.753
14841WAT      O44764   9.476   2.868   0.869
14841WAT     H144765   9.553   2.932   0.866
14841WAT     H244766   9.402   2.903   0.811
14842WAT      O44767   4.428   6.705   6.833
14842WAT     H144768   4.513   6.721   6.882
14842WAT     H244769   4.358   6.770   6.864
14843WAT      O44770   9.593   7.220   3.081
14843WAT     H144771   9.671   7.160   3.065
14843WAT     H244772   9.508   7.170   3.060
14844WAT      O44773   0.591   4.241   4.738
14844WAT     H144774   0.496   4.273   4.747
14844WAT     H244775   0.653   4.315   4.765
14845WAT      O44776   7.330   6.183   7.453
14845WAT     H144777   7.365   6.105   7.506
14845WAT     H244778   7.380   6.189   7.367
14846WAT      O44779   3.629   9.675   8.581
14846WAT     H144780   3.627   9.590   8.635
14846WAT     H244781   3.680   9.659   8.496
14847WAT      O44782   3.773   2.549   3.259
14847WAT     H144783   3.714   2.606   3.317
14847WAT     H244784   3.764   2.453   3.287
14848WAT      O44785   8.329   9.533   6.716
14848WAT     H144786   8.370   9.465   6.655
14848WAT     H244787   8.396   9.560   6.785
14849WAT      O44788   7.246   3.934   0.300
14849WAT     H144789   7.146   3.932   0.300
14849WAT     H244790   7.280   3.902   0.388
14850WAT      O44791   9.838   3.236   4.473
14850WAT     H144792   9.914   3.300   4.463
14850WAT     H244793   9.765   3.279   4.527
14851WAT      O44794   9.611   4.344   9.078
14851WAT     H144795   9.526   4.391   9.102
14851WAT     H244796   9.678   4.410   9.043
14852WAT      O44797   9.187   2.600   6.275
14852WAT     H144798   9.147   2.547   6.200
14852WAT     H244799   9.210   2.539   6.351
14853WAT      O44800   5.207   8.320   1.736
14853WAT     H144801   5.249   8.384   1.671
14853WAT     H244802   5.229   8.226   1.710
14854WAT      O44803   5.309   3.803   3.382
14854WAT     H144804   5.372   3.738   3.425
14854WAT     H244805   5.246   3.840   3.451
14855WAT      O44806   3.051   3.002   8.948
14855WAT     H144807   3.027   3.057   9.028
14855WAT     H244808   2.981   3.014   8.878
14856WAT      O44809   7.878   0.043   5.645
14856WAT     H144810   7.949   0.053   5.715
14856WAT     H244811   7.810  -0.023   5.676
14857WAT      O44812   3.417   9.289   2.769
14857WAT     H144813   3.446   9.196   2.747
14857WAT     H244814   3.392   9.337   2.686
14858WAT      O44815   8.779   0.159   3.529
14858WAT     H144816   8.834   0.235   3.495
14858WAT     H244817   8.686   0.166   3.494
14859WAT      O44818   6.121   2.771   8.577
14859WAT     H144819   6.103   2.868   8.597
14859WAT     H244820   6.219   2.753   8.588
14860WAT      O44821   7.613   5.660   9.740
14860WAT     H144822   7.519   5.691   9.731
14860WAT     H244823   7.618   5.588   9.809
14861WAT      O44824   6.053   9.427   2.933
14861WAT     H144825   6.127   9.495   2.927
14861WAT     H244826   5.990   9.440   2.857
14862WAT      O44827   5.661   6.120   6.898
14862WAT     H144828   5.682   6.087   6.806
14862WAT     H244829   5.740   6.106   6.958
14863WAT      O44830   0.550   0.848   8.348
14863WAT     H144831   0.495   0.822   8.427
14863WAT     H244832   0.646   0.831   8.367
14864WAT      O44833   0.917   8.522   6.902
14864WAT     H144834   1.017   8.516   6.903
14864WAT     H244835   0.889   8.595   6.839
14865WAT      O44836   3.452   6.480   6.498
14865WAT     H144837   3.526   6.527   6.451
14865WAT     H244838   3.374   6.471   6.436
14866WAT      O44839   4.975   8.762   5.880
14866WAT     H144840   4.961   8.663   5.868
14866WAT     H244841   5.025   8.777   5.966
14867WAT      O44842   6.919   4.515   8.298
14867WAT     H144843   6.877   4.605   8.300
14867WAT     H244844   6.918   4.475   8.390
14868WAT      O44845   2.733   8.962   4.079
14868WAT     H144846   2.666   9.012   4.133
14868WAT     H244847   2.758   9.016   3.998
14869WAT      O44848   4.151   7.716   1.515
14869WAT     H144849   4.192   7.710   1.606
14869WAT     H244850   4.092   7.636   1.500
14870WAT      O44851   0.438   5.021   2.652
14870WAT     H144852   0.381   4.950   2.694
14870WAT     H244853   0.495   5.063   2.722
14871WAT      O44854   0.948   2.853   4.378
14871WAT     H144855   1.034   2.892   4.345
14871WAT     H244856   0.872   2.910   4.346
14872WAT      O44857   1.735   5.246   5.947
14872WAT     H144858   1.725   5.328   5.892
14872WAT     H244859   1.654   5.188   5.935
14873WAT      O44860   8.668   3.109   7.363
14873WAT     H144861   8.698   3.198   7.329
14873WAT     H244862   8.746   3.048   7.370
14874WAT      O44863   1.551   1.962   3.306
14874WAT     H144864   1.594   2.036   3.254
14874WAT     H244865   1.582   1.874   3.270
14875WAT      O44866   0.544   0.323   1.252
14875WAT     H144867   0.556   0.352   1.158
14875WAT     H244868   0.607   0.373   1.311
14876WAT      O44869   2.299   1.096   0.483
14876WAT     H144870   2.270   1.004   0.512
14876WAT     H244871   2.233   1.163   0.517
14877WAT      O44872   1.257   1.247   6.711
14877WAT     H144873   1.247   1.162   6.659
14877WAT     H244874   1.193   1.245   6.788
14878WAT      O44875   2.544   4.914   1.835
14878WAT     H144876   2.549   4.982   1.908
14878WAT     H244877   2.634   4.872   1.822
14879WAT      O44878   3.520   4.384   4.414
14879WAT     H144879   3.572   4.346   4.491
14879WAT     H244880   3.534   4.328   4.333
14880WAT      O44881   1.610   1.012   7.122
14880WAT     H144882   1.524   1.064   7.124
14880WAT     H244883   1.604   0.941   7.053
14881WAT      O44884   3.419   4.090   4.530
14881WAT     H144885   3.445   4.186   4.520
14881WAT     H244886   3.364   4.062   4.451
14882WAT      O44887   3.745   9.074   9.690
14882WAT     H144888   3.705   9.157   9.728
14882WAT     H244889   3.695   8.994   9.723
14883WAT      O44890   9.508   2.346   2.951
14883WAT     H144891   9.446   2.341   2.873
14883WAT     H244892   9.537   2.441   2.964
14884WAT      O44893   6.947   7.562   4.454
14884WAT     H144894   6.850   7.541   4.444
14884WAT     H244895   6.973   7.636   4.392
14885WAT      O44896   6.493   5.644   6.305
14885WAT     H144897   6.585   5.618   6.333
14885WAT     H244898   6.439   5.561   6.288
14886WAT      O44899   5.941   4.036   6.495
14886WAT     H144900   5.879   4.008   6.569
14886WAT     H244901   5.887   4.074   6.420
14887WAT      O44902   2.704   6.434   2.301
14887WAT     H144903   2.712   6.501   2.375
14887WAT     H244904   2.654   6.354   2.335
14888WAT      O44905   1.108   4.006   0.832
14888WAT     H144906   1.135   3.931   0.892
14888WAT     H244907   1.008   4.007   0.822
14889WAT      O44908   7.547   3.104   3.916
14889WAT     H144909   7.532   3.190   3.867
14889WAT     H244910   7.511   3.029   3.861
14890WAT      O44911   6.662   8.696   9.841
14890WAT     H144912   6.592   8.765   9.825
14890WAT     H244913   6.752   8.735   9.823
14891WAT      O44914   1.181   1.130   0.850
14891WAT     H144915   1.222   1.220   0.857
14891WAT     H244916   1.249   1.064   0.818
14892WAT      O44917   5.325   7.419   5.485
14892WAT     H144918   5.326   7.456   5.578
14892WAT     H244919   5.300   7.491   5.421
14893WAT      O44920   0.489   7.136   3.780
14893WAT     H144921   0.546   7.200   3.832
14893WAT     H244922   0.395   7.142   3.812
14894WAT      O44923   6.931   3.277   1.657
14894WAT     H144924   6.928   3.372   1.686
14894WAT     H244925   6.942   3.217   1.737
14895WAT      O44926   4.496   2.418   6.832
14895WAT     H144927   4.592   2.444   6.828
14895WAT     H244928   4.487   2.319   6.826
14896WAT      O44929   7.303   9.824   2.562
14896WAT     H144930   7.250   9.757   2.510
14896WAT     H244931   7.241   9.877   2.620
14897WAT      O44932   7.613   5.816   0.624
14897WAT     H144933   7.579   5.757   0.698
14897WAT     H244934   7.712   5.809   0.619
14898WAT      O44935   3.603   0.184   4.193
14898WAT     H144936   3.606   0.207   4.291
14898WAT     H244937   3.611   0.268   4.139
14899WAT      O44938   9.873   1.861   0.947
14899WAT     H144939   9.882   1.892   0.853
14899WAT     H244940   9.944   1.903   1.003
14900WAT      O44941   9.851   3.678   1.995
14900WAT     H144942   9.807   3.708   1.910
14900WAT     H244943   9.870   3.580   1.991
14901WAT      O44944   0.578   0.735   2.605
14901WAT     H144945   0.504   0.668   2.604
14901WAT     H244946   0.566   0.798   2.682
14902WAT      O44947   7.281   5.999   5.173
14902WAT     H144948   7.212   5.934   5.207
14902WAT     H244949   7.236   6.084   5.146
14903WAT      O44950   4.967   3.074   6.865
14903WAT     H144951   4.980   3.073   6.964
14903WAT     H244952   5.029   3.140   6.824
14904WAT      O44953   7.598   7.175   7.331
14904WAT     H144954   7.500   7.181   7.317
14904WAT     H244955   7.618   7.108   7.403
14905WAT      O44956   7.094   0.967   4.182
14905WAT     H144957   7.096   0.872   4.150
14905WAT     H244958   7.159   1.021   4.129
14906WAT      O44959   2.035   8.768   6.833
14906WAT     H144960   1.952   8.712   6.831
14906WAT     H244961   2.057   8.796   6.739
14907WAT      O44962   2.125   1.711   8.826
14907WAT     H144963   2.036   1.668   8.818
14907WAT     H244964   2.143   1.734   8.922
14908WAT      O44965   7.243   0.495   7.192
14908WAT     H144966   7.148   0.470   7.173
14908WAT     H244967   7.258   0.496   7.291
14909WAT      O44968   6.905   5.528   0.127
14909WAT     H144969   6.869   5.569   0.211
14909WAT     H244970   6.863   5.572   0.048
14910WAT      O44971   0.840   8.754   5.667
14910WAT     H144972   0.755   8.737   5.716
14910WAT     H244973   0.826   8.737   5.569
14911WAT      O44974   4.231   4.017   3.447
14911WAT     H144975   4.225   3.921   3.475
14911WAT     H244976   4.298   4.065   3.503
14912WAT      O44977   3.515   4.154   1.757
14912WAT     H144978   3.566   4.098   1.822
14912WAT     H244979   3.578   4.218   1.712
14913WAT      O44980   8.660   6.964   0.138
14913WAT     H144981   8.631   6.898   0.208
14913WAT     H244982   8.642   6.926   0.047
14914WAT      O44983   7.130   2.455   8.775
14914WAT     H144984   7.152   2.541   8.822
14914WAT     H244985   7.137   2.468   8.676
14915WAT      O44986   7.647   0.856   7.484
14915WAT     H144987   7.687   0.788   7.546
14915WAT     H244988   7.547   0.850   7.488
14916WAT      O44989   7.343   1.287   9.862
14916WAT     H144990   7.430   1.328   9.887
14916WAT     H244991   7.317   1.218   9.930
14917WAT      O44992   9.824   4.805   9.550
14917WAT     H144993   9.839   4.724   9.608
14917WAT     H244994   9.816   4.886   9.608
14918WAT      O44995   3.286   3.886   1.549
14918WAT     H144996   3.218   3.941   1.501
14918WAT     H244997   3.305   3.803   1.497
14919WAT      O44998   8.305   4.132   7.769
14919WAT     H144999   8.365   4.174   7.700
14919WAT     H245000   8.308   4.187   7.853
14920WAT      O45001   3.395   3.996   2.392
14920WAT     H145002   3.401   4.096   2.389
14920WAT     H245003   3.460   3.957   2.326
14921WAT      O45004   7.901   2.258   7.805
14921WAT     H145005   7.885   2.327   7.875
14921WAT     H245006   7.967   2.294   7.738
14922WAT      O45007   2.111   0.539   0.164
14922WAT     H145008   2.057   0.610   0.209
14922WAT     H245009   2.179   0.504   0.228
14923WAT      O45010   9.637   4.197   9.490
14923WAT     H145011   9.733   4.221   9.504
14923WAT     H245012   9.591   4.188   9.579
14924WAT      O45013   0.741   3.227   7.790
14924WAT     H145014   0.722   3.198   7.696
14924WAT     H245015   0.657   3.260   7.833
14925WAT      O45016   5.507   6.343   6.904
14925WAT     H145017   5.541   6.380   6.817
14925WAT     H245018   5.540   6.250   6.915
14926WAT      O45019   3.535   6.643   6.103
14926WAT     H145020   3.600   6.568   6.111
14926WAT     H245021   3.553   6.710   6.175
14927WAT      O45022   4.349   9.579   5.974
14927WAT     H145023   4.300   9.565   5.888
14927WAT     H245024   4.318   9.664   6.017
14928WAT      O45025   3.637   8.911   7.538
14928WAT     H145026   3.575   8.894   7.461
14928WAT     H245027   3.583   8.941   7.617
14929WAT      O45028   9.052   4.502   0.368
14929WAT     H145029   9.011   4.429   0.424
14929WAT     H245030   9.010   4.502   0.277
14930WAT      O45031   3.905   7.305   7.702
14930WAT     H145032   3.861   7.236   7.761
14930WAT     H245033   3.922   7.388   7.755
14931WAT      O45034   5.788   0.218   2.284
14931WAT     H145035   5.772   0.316   2.273
14931WAT     H245036   5.749   0.187   2.371
14932WAT      O45037   5.822   1.210   9.273
14932WAT     H145038   5.874   1.126   9.288
14932WAT     H245039   5.734   1.204   9.321
14933WAT      O45040   1.890   3.065   0.040
14933WAT     H145041   1.922   3.159   0.056
14933WAT     H245042   1.816   3.066  -0.027
14934WAT      O45043   1.979   7.919   4.716
14934WAT     H145044   2.023   7.993   4.663
14934WAT     H245045   2.049   7.868   4.765
14935WAT      O45046   9.556   5.019   6.243
14935WAT     H145047   9.615   4.992   6.319
14935WAT     H245048   9.502   5.099   6.269
14936WAT      O45049   5.537   9.539   7.570
14936WAT     H145050   5.541   9.529   7.470
14936WAT     H245051   5.572   9.456   7.613
14937WAT      O45052   7.910   8.920   3.667
14937WAT     H145053   7.996   8.874   3.689
14937WAT     H245054   7.930   9.009   3.624
14938WAT      O45055   1.620   3.895   4.533
14938WAT     H145056   1.647   3.813   4.583
14938WAT     H245057   1.521   3.906   4.537
14939WAT      O45058   5.241   3.951   6.109
14939WAT     H145059   5.274   4.045   6.119
14939WAT     H245060   5.141   3.950   6.107
14940WAT      O45061   8.926   8.479   5.353
14940WAT     H145062   8.886   8.484   5.445
14940WAT     H245063   8.865   8.426   5.293
14941WAT      O45064   0.761   7.619   1.091
14941WAT     H145065   0.849   7.576   1.112
14941WAT     H245066   0.687   7.560   1.125
14942WAT      O45067   4.688   6.418   6.915
14942WAT     H145068   4.596   6.440   6.882
14942WAT     H245069   4.748   6.496   6.901
14943WAT      O45070   9.698   2.021   2.266
14943WAT     H145071   9.758   2.086   2.311
14943WAT     H245072   9.751   1.941   2.237
14944WAT      O45073   8.984   1.336   2.598
14944WAT     H145074   8.999   1.433   2.578
14944WAT     H245075   8.918   1.327   2.673
14945WAT      O45076   1.666   0.209   5.695
14945WAT     H145077   1.592   0.246   5.640
14945WAT     H245078   1.739   0.277   5.702
14946WAT      O45079   4.132   3.408   8.364
14946WAT     H145080   4.188   3.325   8.363
14946WAT     H245081   4.125   3.442   8.458
14947WAT      O45082   1.186   9.282   3.584
14947WAT     H145083   1.093   9.249   3.602
14947WAT     H245084   1.247   9.252   3.657
14948WAT      O45085   4.256   1.625   9.333
14948WAT     H145086   4.289   1.600   9.242
14948WAT     H245087   4.267   1.547   9.395
14949WAT      O45088   1.195   4.317   3.042
14949WAT     H145089   1.167   4.288   3.134
14949WAT     H245090   1.143   4.398   3.016
14950WAT      O45091   4.344   2.989   7.979
14950WAT     H145092   4.285   3.069   7.983
14950WAT     H245093   4.387   2.975   8.069
14951WAT      O45094   6.764   5.334   3.565
14951WAT     H145095   6.674   5.374   3.579
14951WAT     H245096   6.787   5.275   3.643
14952WAT      O45097   7.503   6.408   2.299
14952WAT     H145098   7.405   6.425   2.313
14952WAT     H245099   7.556   6.465   2.362
14953WAT      O45100   8.278   9.290   8.867
14953WAT     H145101   8.221   9.369   8.890
14953WAT     H245102   8.291   9.286   8.768
14954WAT      O45103   6.809   6.089   4.993
14954WAT     H145104   6.905   6.117   5.004
14954WAT     H245105   6.775   6.121   4.904
14955WAT      O45106   1.227   9.441   4.253
14955WAT     H145107   1.211   9.488   4.339
14955WAT     H245108   1.225   9.506   4.177
14956WAT      O45109   3.961   3.790   1.155
14956WAT     H145110   3.952   3.880   1.113
14956WAT     H245111   3.893   3.779   1.228
14957WAT      O45112   0.525   7.729   3.844
14957WAT     H145113   0.588   7.765   3.914
14957WAT     H245114   0.568   7.652   3.797
14958WAT      O45115   8.601   5.542   5.727
14958WAT     H145116   8.513   5.558   5.772
14958WAT     H245117   8.599   5.454   5.681
14959WAT      O45118   3.284   2.545   1.645
14959WAT     H145119   3.274   2.445   1.643
14959WAT     H245120   3.196   2.587   1.622
14960WAT      O45121   4.756   4.409   7.939
14960WAT     H145122   4.766   4.507   7.922
14960WAT     H245123   4.703   4.396   8.023
14961WAT      O45124   7.331   3.704   3.114
14961WAT     H145125   7.391   3.776   3.149
14961WAT     H245126   7.275   3.742   3.039
14962WAT      O45127   6.179   1.121   5.324
14962WAT     H145128   6.209   1.213   5.299
14962WAT     H245129   6.193   1.108   5.422
14963WAT      O45130   5.482   5.739   3.189
14963WAT     H145131   5.472   5.693   3.278
14963WAT     H245132   5.551   5.811   3.197
14964WAT      O45133   7.589   3.911   2.421
14964WAT     H145134   7.517   3.858   2.466
14964WAT     H245135   7.666   3.921   2.484
14965WAT      O45136   5.209   6.947   5.984
14965WAT     H145137   5.270   6.890   5.929
14965WAT     H245138   5.146   6.889   6.036
14966WAT      O45139   5.669   7.998   4.687
14966WAT     H145140   5.590   8.058   4.673
14966WAT     H245141   5.712   8.020   4.774
14967WAT      O45142   7.935   2.136   8.193
14967WAT     H145143   7.996   2.212   8.173
14967WAT     H245144   7.948   2.064   8.125
14968WAT      O45145   5.905   8.840   4.075
14968WAT     H145146   5.973   8.832   4.148
14968WAT     H245147   5.937   8.790   3.994
14969WAT      O45148   7.289   6.547   9.499
14969WAT     H145149   7.382   6.547   9.463
14969WAT     H245150   7.287   6.498   9.586
14970WAT      O45151   0.812   0.451   5.780
14970WAT     H145152   0.820   0.546   5.809
14970WAT     H245153   0.723   0.414   5.807
14971WAT      O45154   0.792   0.904   8.465
14971WAT     H145155   0.884   0.874   8.438
14971WAT     H245156   0.771   0.869   8.556
14972WAT      O45157   2.345   8.650   4.867
14972WAT     H145158   2.300   8.616   4.949
14972WAT     H245159   2.290   8.723   4.827
14973WAT      O45160   4.948   3.576   2.987
14973WAT     H145161   5.003   3.514   3.043
14973WAT     H245162   4.857   3.586   3.027
14974WAT      O45163   7.279   4.886   5.835
14974WAT     H145164   7.347   4.827   5.878
14974WAT     H245165   7.219   4.832   5.776
14975WAT      O45166   8.859   6.112   8.734
14975WAT     H145167   8.884   6.018   8.753
14975WAT     H245168   8.851   6.163   8.820
14976WAT      O45169   3.577   8.237   8.410
14976WAT     H145170   3.527   8.322   8.428
14976WAT     H245171   3.674   8.258   8.399
14977WAT      O45172   3.176   4.875   3.614
14977WAT     H145173   3.261   4.908   3.654
14977WAT     H245174   3.196   4.812   3.540
14978WAT      O45175   7.111   8.637   2.459
14978WAT     H145176   7.072   8.665   2.547
14978WAT     H245177   7.040   8.595   2.403
14979WAT      O45178   4.586   3.549   7.615
14979WAT     H145179   4.536   3.584   7.536
14979WAT     H245180   4.549   3.461   7.642
14980WAT      O45181   5.252   8.056   4.785
14980WAT     H145182   5.269   7.960   4.805
14980WAT     H245183   5.196   8.097   4.857
14981WAT      O45184   3.481   9.167   1.512
14981WAT     H145185   3.435   9.256   1.515
14981WAT     H245186   3.576   9.180   1.485
14982WAT      O45187   4.200   7.292   4.335
14982WAT     H145188   4.170   7.238   4.414
14982WAT     H245189   4.289   7.333   4.354
14983WAT      O45190   3.652   7.366   7.955
14983WAT     H145191   3.657   7.276   7.912
14983WAT     H245192   3.726   7.375   8.021
14984WAT      O45193   8.786   8.658   0.714
14984WAT     H145194   8.697   8.690   0.745
14984WAT     H245195   8.804   8.692   0.622
14985WAT      O45196   7.463   1.401   6.230
14985WAT     H145197   7.414   1.432   6.311
14985WAT     H245198   7.549   1.359   6.257
14986WAT      O45199   5.575   8.858   8.456
14986WAT     H145200   5.558   8.793   8.382
14986WAT     H245201   5.655   8.828   8.508
14987WAT      O45202   9.508   9.139   2.077
14987WAT     H145203   9.549   9.084   2.150
14987WAT     H245204   9.564   9.134   1.995
14988WAT      O45205   3.111   0.871   8.754
14988WAT     H145206   3.018   0.901   8.777
14988WAT     H245207   3.108   0.809   8.676
14989WAT      O45208   2.115   9.054   6.615
14989WAT     H145209   2.208   9.026   6.592
14989WAT     H245210   2.104   9.152   6.595
14990WAT      O45211   7.624   6.147   9.540
14990WAT     H145212   7.525   6.147   9.554
14990WAT     H245213   7.647   6.092   9.460
14991WAT      O45214   5.830   6.976   6.343
14991WAT     H145215   5.886   7.058   6.337
14991WAT     H245216   5.735   7.002   6.364
14992WAT      O45217   9.307   5.634   0.448
14992WAT     H145218   9.233   5.701   0.451
14992WAT     H245219   9.268   5.542   0.450
14993WAT      O45220   3.873   7.195   8.966
14993WAT     H145221   3.933   7.248   9.025
14993WAT     H245222   3.779   7.202   9.000
14994WAT      O45223   2.833   2.717   9.691
14994WAT     H145224   2.844   2.775   9.610
14994WAT     H245225   2.746   2.668   9.685
14995WAT      O45226   4.680   3.844   2.294
14995WAT     H145227   4.745   3.898   2.239
14995WAT     H245228   4.638   3.903   2.363
14996WAT      O45229   7.514   3.937   6.344
14996WAT     H145230   7.571   3.955   6.264
14996WAT     H245231   7.459   3.855   6.329
14997WAT      O45232   6.215   8.586   4.243
14997WAT     H145233   6.277   8.659   4.214
14997WAT     H245234   6.143   8.623   4.300
14998WAT      O45235   3.389   1.660   5.168
14998WAT     H145236   3.456   1.630   5.237
14998WAT     H245237   3.396   1.759   5.156
14999WAT      O45238   3.960   8.072   0.639
14999WAT     H145239   4.059   8.074   0.625
14999WAT     H245240   3.915   8.115   0.561
15000WAT      O45241   0.059   7.303   3.220
15000WAT     H145242  -0.016   7.361   3.252
15000WAT     H245243   0.065   7.222   3.278
15001WAT      O45244   6.637   7.844   6.953
15001WAT     H145245   6.697   7.924   6.943
15001WAT     H245246   6.542   7.871   6.933
15002WAT      O45247   0.855   5.140   8.545
15002WAT     H145248   0.872   5.194   8.627
15002WAT     H245249   0.892   5.187   8.465
15003WAT      O45250   6.911   3.786   3.124
15003WAT     H145251   6.950   3.733   3.199
15003WAT     H245252   6.895   3.880   3.154
15004WAT      O45253   8.651   6.899   8.856
15004WAT     H145254   8.727   6.836   8.873
15004WAT     H245255   8.606   6.920   8.943
15005WAT      O45256   4.996   0.709   7.606
15005WAT     H145257   4.921   0.716   7.540
15005WAT     H245258   5.047   0.624   7.588
15006WAT      O45259   6.027   7.801   8.209
15006WAT     H145260   6.038   7.866   8.134
15006WAT     H245261   6.053   7.845   8.295
15007WAT      O45262   5.074   4.198   8.302
15007WAT     H145263   4.988   4.151   8.284
15007WAT     H245264   5.057   4.294   8.324
15008WAT      O45265   6.340   8.373   6.020
15008WAT     H145266   6.299   8.358   6.110
15008WAT     H245267   6.267   8.395   5.954
15009WAT      O45268   2.349   3.934   7.774
15009WAT     H145269   2.412   3.874   7.824
15009WAT     H245270   2.298   3.880   7.707
15010WAT      O45271   6.330   1.933   5.178
15010WAT     H145272   6.270   1.876   5.234
15010WAT     H245273   6.404   1.970   5.234
15011WAT      O45274   1.307   0.258   7.174
15011WAT     H145275   1.332   0.161   7.168
15011WAT     H245276   1.245   0.271   7.251
15012WAT      O45277   4.915   0.152   2.430
15012WAT     H145278   4.930   0.231   2.370
15012WAT     H245279   4.895   0.184   2.523
15013WAT      O45280   4.807   1.081   5.231
15013WAT     H145281   4.744   1.071   5.154
15013WAT     H245282   4.901   1.064   5.199
15014WAT      O45283   3.131   4.787   0.564
15014WAT     H145284   3.169   4.789   0.656
15014WAT     H245285   3.154   4.701   0.519
15015WAT      O45286   3.689   8.486   3.905
15015WAT     H145287   3.662   8.557   3.841
15015WAT     H245288   3.786   8.494   3.925
15016WAT      O45289   6.734   8.511   3.652
15016WAT     H145290   6.681   8.582   3.607
15016WAT     H245291   6.692   8.422   3.635
15017WAT      O45292   4.414   0.526   2.684
15017WAT     H145293   4.342   0.482   2.738
15017WAT     H245294   4.394   0.624   2.677
15018WAT      O45295   5.401   4.280   0.056
15018WAT     H145296   5.342   4.300   0.134
15018WAT     H245297   5.494   4.263   0.089
15019WAT      O45298   0.349   2.878   2.295
15019WAT     H145299   0.263   2.906   2.337
15019WAT     H245300   0.421   2.944   2.320
15020WAT      O45301   2.958   4.650   8.733
15020WAT     H145302   2.941   4.552   8.740
15020WAT     H245303   2.898   4.699   8.796
15021WAT      O45304   9.051   8.485   4.311
15021WAT     H145305   9.083   8.580   4.315
15021WAT     H245306   9.126   8.423   4.331
15022WAT      O45307   3.007   0.498   9.764
15022WAT     H145308   3.022   0.586   9.720
15022WAT     H245309   3.049   0.498   9.855
15023WAT      O45310   5.202   8.630   1.916
15023WAT     H145311   5.190   8.728   1.901
15023WAT     H245312   5.288   8.613   1.964
15024WAT      O45313   6.950   4.472   9.767
15024WAT     H145314   6.994   4.393   9.809
15024WAT     H245315   6.980   4.555   9.812
15025WAT      O45316   9.771   7.626   2.517
15025WAT     H145317   9.770   7.564   2.595
15025WAT     H245318   9.856   7.679   2.517
15026WAT      O45319   3.896   8.485   9.483
15026WAT     H145320   3.966   8.502   9.414
15026WAT     H245321   3.848   8.571   9.503
15027WAT      O45322   1.147   7.150   1.436
15027WAT     H145323   1.069   7.212   1.442
15027WAT     H245324   1.125   7.063   1.479
15028WAT      O45325   0.619   9.778   4.146
15028WAT     H145326   0.640   9.864   4.100
15028WAT     H245327   0.596   9.797   4.242
15029WAT      O45328   1.932   7.686   0.113
15029WAT     H145329   2.010   7.705   0.172
15029WAT     H245330   1.948   7.725   0.022
15030WAT      O45331   6.471   8.387   1.114
15030WAT     H145332   6.445   8.406   1.019
15030WAT     H245333   6.540   8.454   1.144
15031WAT      O45334   4.773   8.220   4.301
15031WAT     H145335   4.790   8.129   4.339
15031WAT     H245336   4.850   8.280   4.321
15032WAT      O45337   0.800   8.588   4.994
15032WAT     H145338   0.888   8.594   5.041
15032WAT     H245339   0.815   8.571   4.897
15033WAT      O45340   4.041   4.050   0.217
15033WAT     H145341   4.131   4.044   0.260
15033WAT     H245342   4.050   4.041   0.118
15034WAT      O45343   3.086   3.066   7.571
15034WAT     H145344   3.103   3.159   7.539
15034WAT     H245345   3.099   3.062   7.670
15035WAT      O45346   3.561   3.672   3.514
15035WAT     H145347   3.592   3.618   3.436
15035WAT     H245348   3.474   3.634   3.548
15036WAT      O45349   2.454   1.407   4.564
15036WAT     H145350   2.487   1.320   4.600
15036WAT     H245351   2.529   1.473   4.560
15037WAT      O45352   7.344   0.785   8.754
15037WAT     H145353   7.434   0.810   8.719
15037WAT     H245354   7.284   0.763   8.677
15038WAT      O45355   9.700   1.470   0.852
15038WAT     H145356   9.675   1.388   0.903
15038WAT     H245357   9.690   1.551   0.910
15039WAT      O45358   3.379   1.815   4.835
15039WAT     H145359   3.337   1.903   4.860
15039WAT     H245360   3.319   1.740   4.863
15040WAT      O45361   6.019   5.332   5.757
15040WAT     H145362   5.947   5.388   5.716
15040WAT     H245363   6.096   5.324   5.693
15041WAT      O45364   4.669   2.359   8.755
15041WAT     H145365   4.617   2.369   8.840
15041WAT     H245366   4.688   2.263   8.738
15042WAT      O45367   7.211   3.454   7.480
15042WAT     H145368   7.220   3.554   7.480
15042WAT     H245369   7.117   3.429   7.504
15043WAT      O45370   4.966   0.542   8.721
15043WAT     H145371   4.884   0.600   8.717
15043WAT     H245372   5.031   0.573   8.652
15044WAT      O45373   6.421   0.391   7.018
15044WAT     H145374   6.392   0.411   6.925
15044WAT     H245375   6.516   0.420   7.030
15045WAT      O45376   0.246   1.789   6.508
15045WAT     H145377   0.212   1.793   6.601
15045WAT     H245378   0.195   1.852   6.450
15046WAT      O45379   4.767   3.859   1.778
15046WAT     H145380   4.735   3.844   1.684
15046WAT     H245381   4.861   3.893   1.776
15047WAT      O45382   9.837   5.671   5.539
15047WAT     H145383   9.896   5.740   5.579
15047WAT     H245384   9.813   5.698   5.445
15048WAT      O45385   3.352   6.862   0.645
15048WAT     H145386   3.402   6.916   0.712
15048WAT     H245387   3.317   6.778   0.688
15049WAT      O45388   0.859   6.714   1.407
15049WAT     H145389   0.760   6.709   1.393
15049WAT     H245390   0.892   6.628   1.444
15050WAT      O45391   3.690   9.470   4.541
15050WAT     H145392   3.711   9.457   4.444
15050WAT     H245393   3.590   9.467   4.554
15051WAT      O45394   9.255   5.979   6.363
15051WAT     H145395   9.279   6.007   6.456
15051WAT     H245396   9.160   6.002   6.345
15052WAT      O45397   4.025   2.486   8.101
15052WAT     H145398   3.967   2.406   8.090
15052WAT     H245399   4.118   2.457   8.126
15053WAT      O45400   8.801   8.313   3.341
15053WAT     H145401   8.713   8.330   3.384
15053WAT     H245402   8.789   8.300   3.243
15054WAT      O45403   7.616   7.325   1.269
15054WAT     H145404   7.655   7.386   1.199
15054WAT     H245405   7.562   7.254   1.225
15055WAT      O45406   8.359   1.201   4.561
15055WAT     H145407   8.394   1.179   4.652
15055WAT     H245408   8.435   1.206   4.496
15056WAT      O45409   0.093   8.230   5.181
15056WAT     H145410   0.108   8.324   5.150
15056WAT     H245411   0.070   8.230   5.278
15057WAT      O45412   7.919   7.113   2.813
15057WAT     H145413   7.910   7.044   2.741
15057WAT     H245414   7.868   7.195   2.788
15058WAT      O45415   2.667   6.926   2.489
15058WAT     H145416   2.741   6.987   2.463
15058WAT     H245417   2.614   6.902   2.407
15059WAT      O45418   1.473   5.120   0.744
15059WAT     H145419   1.493   5.196   0.683
15059WAT     H245420   1.391   5.072   0.714
15060WAT      O45421   2.651   6.885   7.353
15060WAT     H145422   2.698   6.810   7.400
15060WAT     H245423   2.685   6.892   7.259
15061WAT      O45424   6.260   2.426   1.616
15061WAT     H145425   6.186   2.489   1.642
15061WAT     H245426   6.348   2.472   1.624
15062WAT      O45427   7.419   9.621   3.673
15062WAT     H145428   7.452   9.714   3.691
15062WAT     H245429   7.476   9.555   3.722
15063WAT      O45430   9.624   8.470   6.307
15063WAT     H145431   9.689   8.394   6.314
15063WAT     H245432   9.641   8.520   6.222
15064WAT      O45433   0.369   0.150   7.236
15064WAT     H145434   0.354   0.065   7.285
15064WAT     H245435   0.314   0.151   7.152
15065WAT      O45436   2.122   1.242   0.922
15065WAT     H145437   2.204   1.225   0.867
15065WAT     H245438   2.149   1.263   1.016
15066WAT      O45439   7.757   3.913   2.648
15066WAT     H145440   7.754   3.813   2.637
15066WAT     H245441   7.701   3.940   2.726
15067WAT      O45442   0.257   0.986   6.265
15067WAT     H145443   0.198   0.907   6.250
15067WAT     H245444   0.202   1.070   6.265
15068WAT      O45445   8.795   7.931   6.036
15068WAT     H145446   8.832   7.960   5.948
15068WAT     H245447   8.856   7.960   6.110
15069WAT      O45448   8.319   3.386   9.791
15069WAT     H145449   8.377   3.462   9.817
15069WAT     H245450   8.285   3.340   9.873
15070WAT      O45451   5.405   5.087   0.200
15070WAT     H145452   5.310   5.085   0.170
15070WAT     H245453   5.458   5.020   0.147
15071WAT      O45454   0.084   6.038   3.983
15071WAT     H145455  -0.008   6.012   4.012
15071WAT     H245456   0.114   6.118   4.037
15072WAT      O45457   4.289   5.406   1.262
15072WAT     H145458   4.258   5.496   1.231
15072WAT     H245459   4.222   5.336   1.235
15073WAT      O45460   0.796   9.199   4.397
15073WAT     H145461   0.826   9.258   4.322
15073WAT     H245462   0.709   9.156   4.372
15074WAT      O45463   0.802   9.024   5.412
15074WAT     H145464   0.704   9.005   5.419
15074WAT     H245465   0.830   9.081   5.490
15075WAT      O45466   9.380   1.514   0.127
15075WAT     H145467   9.414   1.604   0.099
15075WAT     H245468   9.388   1.505   0.226
15076WAT      O45469   3.878   8.196   8.978
15076WAT     H145470   3.802   8.183   8.915
15076WAT     H245471   3.892   8.111   9.030
15077WAT      O45472   2.860   5.378   9.185
15077WAT     H145473   2.845   5.370   9.087
15077WAT     H245474   2.851   5.473   9.213
15078WAT      O45475   6.245   6.722   9.016
15078WAT     H145476   6.217   6.817   9.029
15078WAT     H245477   6.340   6.720   8.982
15079WAT      O45478   0.678   9.559   5.199
15079WAT     H145479   0.630   9.494   5.140
15079WAT     H245480   0.623   9.642   5.208
15080WAT      O45481   2.980   6.691   2.256
15080WAT     H145482   2.975   6.620   2.186
15080WAT     H245483   2.898   6.748   2.253
15081WAT      O45484   5.329   9.417   5.078
15081WAT     H145485   5.402   9.486   5.072
15081WAT     H245486   5.281   9.427   5.165
15082WAT      O45487   6.254   1.084   6.617
15082WAT     H145488   6.183   1.084   6.546
15082WAT     H245489   6.214   1.112   6.704
15083WAT      O45490   6.792   2.996   5.270
15083WAT     H145491   6.795   3.056   5.191
15083WAT     H245492   6.787   3.051   5.354
15084WAT      O45493   0.770   4.329   2.622
15084WAT     H145494   0.825   4.339   2.704
15084WAT     H245495   0.711   4.409   2.610
15085WAT      O45496   6.318   4.250   0.386
15085WAT     H145497   6.263   4.172   0.354
15085WAT     H245498   6.257   4.323   0.417
15086WAT      O45499   9.257   9.064   3.409
15086WAT     H145500   9.341   9.030   3.367
15086WAT     H245501   9.209   8.987   3.452
15087WAT      O45502   4.370   7.235   8.668
15087WAT     H145503   4.434   7.215   8.742
15087WAT     H245504   4.329   7.325   8.683
15088WAT      O45505   6.608   1.364   8.589
15088WAT     H145506   6.679   1.355   8.519
15088WAT     H245507   6.574   1.273   8.612
15089WAT      O45508   2.704   8.366   8.208
15089WAT     H145509   2.637   8.422   8.159
15089WAT     H245510   2.673   8.270   8.208
15090WAT      O45511   7.173   5.357   1.262
15090WAT     H145512   7.141   5.281   1.319
15090WAT     H245513   7.235   5.415   1.315
15091WAT      O45514   0.234   1.770   7.838
15091WAT     H145515   0.286   1.847   7.875
15091WAT     H245516   0.199   1.794   7.747
15092WAT      O45517   9.727   8.464   5.877
15092WAT     H145518   9.667   8.396   5.919
15092WAT     H245519   9.815   8.422   5.854
15093WAT      O45520   1.794   5.635   9.025
15093WAT     H145521   1.851   5.612   8.945
15093WAT     H245522   1.829   5.585   9.105
15094WAT      O45523   6.082   8.563   5.944
15094WAT     H145524   6.106   8.659   5.958
15094WAT     H245525   6.069   8.519   6.033
15095WAT      O45526   7.885   8.857   1.579
15095WAT     H145527   7.929   8.767   1.572
15095WAT     H245528   7.951   8.928   1.556
15096WAT      O45529   4.491   8.030   8.916
15096WAT     H145530   4.584   8.009   8.943
15096WAT     H245531   4.490   8.068   8.824
15097WAT      O45532   8.059   9.814   2.984
15097WAT     H145533   7.979   9.837   2.929
15097WAT     H245534   8.030   9.769   3.069
15098WAT      O45535   7.265   0.125   0.412
15098WAT     H145536   7.316   0.120   0.498
15098WAT     H245537   7.307   0.194   0.352
15099WAT      O45538   8.060   1.125   5.378
15099WAT     H145539   8.145   1.082   5.347
15099WAT     H245540   8.082   1.202   5.439
15100WAT      O45541   7.480   8.764   4.895
15100WAT     H145542   7.528   8.775   4.808
15100WAT     H245543   7.421   8.843   4.911
15101WAT      O45544   3.795   5.087   3.036
15101WAT     H145545   3.751   5.165   2.993
15101WAT     H245546   3.838   5.030   2.967
15102WAT      O45547   6.230   9.338   8.795
15102WAT     H145548   6.215   9.317   8.699
15102WAT     H245549   6.311   9.398   8.804
15103WAT      O45550   1.061   4.178   2.800
15103WAT     H145551   1.108   4.216   2.879
15103WAT     H245552   1.100   4.216   2.716
15104WAT      O45553   6.004   6.393   9.318
15104WAT     H145554   5.997   6.329   9.395
15104WAT     H245555   5.917   6.441   9.306
15105WAT      O45556   3.361   1.476   6.256
15105WAT     H145557   3.307   1.394   6.274
15105WAT     H245558   3.308   1.557   6.282
15106WAT      O45559   0.432   7.640   6.047
15106WAT     H145560   0.485   7.556   6.054
15106WAT     H245561   0.488   7.718   6.075
15107WAT      O45562   2.987   6.024   9.852
15107WAT     H145563   2.887   6.018   9.861
15107WAT     H245564   3.017   6.117   9.873
15108WAT      O45565   4.271   7.144   9.680
15108WAT     H145566   4.263   7.160   9.778
15108WAT     H245567   4.324   7.060   9.665
15109WAT      O45568   1.284   7.632   2.215
15109WAT     H145569   1.316   7.726   2.205
15109WAT     H245570   1.194   7.631   2.259
15110WAT      O45571   3.309   4.722   6.167
15110WAT     H145572   3.263   4.634   6.180
15110WAT     H245573   3.261   4.792   6.219
15111WAT      O45574   0.696   9.021   8.759
15111WAT     H145575   0.794   9.043   8.753
15111WAT     H245576   0.654   9.029   8.669
15112WAT      O45577   0.483   3.754   9.275
15112WAT     H145578   0.394   3.773   9.316
15112WAT     H245579   0.510   3.830   9.216
15113WAT      O45580   1.168   3.717   6.593
15113WAT     H145581   1.138   3.686   6.503
15113WAT     H245582   1.163   3.817   6.598
15114WAT      O45583   3.177   0.696   9.144
15114WAT     H145584   3.181   0.670   9.048
15114WAT     H245585   3.125   0.628   9.196
15115WAT      O45586   1.377   9.501   8.896
15115WAT     H145587   1.467   9.487   8.854
15115WAT     H245588   1.363   9.431   8.967
15116WAT      O45589   5.616   1.085   1.946
15116WAT     H145590   5.591   1.019   2.017
15116WAT     H245591   5.636   1.174   1.989
15117WAT      O45592   0.344   6.319   0.907
15117WAT     H145593   0.342   6.231   0.860
15117WAT     H245594   0.396   6.310   0.993
15118WAT      O45595   4.853   5.341   3.112
15118WAT     H145596   4.788   5.417   3.106
15118WAT     H245597   4.803   5.255   3.121
15119WAT      O45598   7.565   2.380   3.606
15119WAT     H145599   7.613   2.460   3.569
15119WAT     H245600   7.621   2.299   3.594
15120WAT      O45601   3.070   2.375   2.697
15120WAT     H145602   3.018   2.447   2.652
15120WAT     H245603   3.012   2.294   2.707
15121WAT      O45604   5.349   3.693   8.030
15121WAT     H145605   5.306   3.628   8.093
15121WAT     H245606   5.350   3.784   8.071
15122WAT      O45607   9.428   8.329   4.217
15122WAT     H145608   9.374   8.302   4.137
15122WAT     H245609   9.462   8.422   4.205
15123WAT      O45610   1.574   2.377   4.414
15123WAT     H145611   1.502   2.443   4.391
15123WAT     H245612   1.534   2.285   4.420
15124WAT      O45613   3.345   1.509   3.019
15124WAT     H145614   3.343   1.442   2.946
15124WAT     H245615   3.277   1.486   3.088
15125WAT      O45616   6.962   2.773   2.541
15125WAT     H145617   7.015   2.825   2.475
15125WAT     H245618   6.877   2.741   2.498
15126WAT      O45619   9.121   5.731   5.217
15126WAT     H145620   9.126   5.676   5.133
15126WAT     H245621   9.036   5.783   5.216
15127WAT      O45622   4.266   4.601   1.021
15127WAT     H145623   4.236   4.566   1.110
15127WAT     H245624   4.252   4.531   0.951
15128WAT      O45625   0.343   5.267   3.406
15128WAT     H145626   0.422   5.290   3.463
15128WAT     H245627   0.297   5.187   3.444
15129WAT      O45628   4.403   7.473   5.030
15129WAT     H145629   4.358   7.541   4.971
15129WAT     H245630   4.335   7.407   5.061
15130WAT      O45631   4.029   6.874   0.883
15130WAT     H145632   4.117   6.852   0.926
15130WAT     H245633   4.000   6.798   0.826
15131WAT      O45634   1.102   4.613   8.955
15131WAT     H145635   1.124   4.698   9.003
15131WAT     H245636   1.008   4.585   8.977
15132WAT      O45637   6.860   4.285   2.775
15132WAT     H145638   6.957   4.294   2.752
15132WAT     H245639   6.846   4.315   2.869
15133WAT      O45640   4.506   4.469   9.332
15133WAT     H145641   4.460   4.515   9.408
15133WAT     H245642   4.476   4.508   9.245
15134WAT      O45643   0.427   8.205   9.170
15134WAT     H145644   0.353   8.175   9.230
15134WAT     H245645   0.408   8.176   9.076
15135WAT      O45646   6.959   3.609   4.859
15135WAT     H145647   6.977   3.706   4.875
15135WAT     H245648   6.880   3.599   4.798
15136WAT      O45649   8.759   5.517   4.875
15136WAT     H145650   8.728   5.466   4.795
15136WAT     H245651   8.809   5.598   4.846
15137WAT      O45652   6.811   3.073   9.329
15137WAT     H145653   6.754   2.994   9.304
15137WAT     H245654   6.763   3.157   9.305
15138WAT      O45655   5.353   6.662   2.067
15138WAT     H145656   5.308   6.588   2.018
15138WAT     H245657   5.308   6.749   2.045
15139WAT      O45658   0.319   1.311   5.315
15139WAT     H145659   0.271   1.277   5.396
15139WAT     H245660   0.344   1.234   5.256
15140WAT      O45661   0.124   1.919   5.736
15140WAT     H145662   0.191   1.906   5.809
15140WAT     H245663   0.059   1.990   5.761
15141WAT      O45664   5.827   5.590   9.165
15141WAT     H145665   5.825   5.538   9.251
15141WAT     H245666   5.825   5.688   9.185
15142WAT      O45667   2.687   8.426   0.130
15142WAT     H145668   2.763   8.368   0.101
15142WAT     H245669   2.607   8.369   0.148
15143WAT      O45670   3.010   7.943   8.498
15143WAT     H145671   2.918   7.907   8.516
15143WAT     H245672   3.078   7.873   8.519
15144WAT      O45673   1.393   7.110   7.564
15144WAT     H145674   1.420   7.026   7.610
15144WAT     H245675   1.355   7.088   7.474
15145WAT      O45676   5.056   4.584   4.372
15145WAT     H145677   5.135   4.600   4.432
15145WAT     H245678   5.059   4.647   4.295
15146WAT      O45679   2.155   8.543   2.634
15146WAT     H145680   2.105   8.594   2.564
15146WAT     H245681   2.244   8.515   2.598
15147WAT      O45682   4.368   2.113   7.245
15147WAT     H145683   4.329   2.021   7.240
15147WAT     H245684   4.352   2.151   7.336
15148WAT      O45685   5.946   6.748   1.399
15148WAT     H145686   6.007   6.828   1.397
15148WAT     H245687   5.862   6.769   1.349
15149WAT      O45688   4.701   2.816   2.693
15149WAT     H145689   4.659   2.883   2.754
15149WAT     H245690   4.751   2.748   2.747
15150WAT      O45691   5.555   1.980   1.124
15150WAT     H145692   5.498   1.952   1.046
15150WAT     H245693   5.576   1.899   1.179
15151WAT      O45694   9.367   6.274   1.255
15151WAT     H145695   9.341   6.188   1.301
15151WAT     H245696   9.464   6.292   1.271
15152WAT      O45697   8.562   8.923   4.432
15152WAT     H145698   8.570   8.847   4.367
15152WAT     H245699   8.545   8.886   4.523
15153WAT      O45700   5.248   1.520   0.524
15153WAT     H145701   5.210   1.455   0.458
15153WAT     H245702   5.259   1.610   0.481
15154WAT      O45703   4.211   7.374   2.084
15154WAT     H145704   4.147   7.306   2.120
15154WAT     H245705   4.222   7.448   2.151
15155WAT      O45706   6.124   1.620   7.322
15155WAT     H145707   6.119   1.679   7.402
15155WAT     H245708   6.084   1.531   7.344
15156WAT      O45709   7.825   0.996   9.485
15156WAT     H145710   7.806   1.092   9.509
15156WAT     H245711   7.771   0.936   9.543
15157WAT      O45712   8.827   1.205   7.367
15157WAT     H145713   8.737   1.216   7.325
15157WAT     H245714   8.850   1.108   7.373
15158WAT      O45715   2.533   4.229   3.044
15158WAT     H145716   2.591   4.170   3.101
15158WAT     H245717   2.559   4.324   3.058
15159WAT      O45718   3.325   3.512   6.372
15159WAT     H145719   3.321   3.608   6.346
15159WAT     H245720   3.232   3.478   6.387
15160WAT      O45721   1.192   6.430   4.993
15160WAT     H145722   1.265   6.479   5.041
15160WAT     H245723   1.181   6.469   4.902
15161WAT      O45724   1.204   7.199   9.175
15161WAT     H145725   1.126   7.252   9.141
15161WAT     H245726   1.259   7.168   9.097
15162WAT      O45727   2.598   0.812   9.094
15162WAT     H145728   2.576   0.757   9.174
15162WAT     H245729   2.609   0.908   9.120
15163WAT      O45730   7.457   4.905   3.433
15163WAT     H145731   7.444   4.884   3.530
15163WAT     H245732   7.413   4.993   3.412
15164WAT      O45733   1.330   0.029   2.447
15164WAT     H145734   1.299   0.106   2.391
15164WAT     H245735   1.393  -0.028   2.392
15165WAT      O45736   8.472   5.976   0.566
15165WAT     H145737   8.485   6.075   0.560
15165WAT     H245738   8.529   5.930   0.497
15166WAT      O45739   0.441   2.580   7.556
15166WAT     H145740   0.517   2.639   7.581
15166WAT     H245741   0.365   2.595   7.620
15167WAT      O45742   9.753   1.784   5.536
15167WAT     H145743   9.756   1.872   5.489
15167WAT     H245744   9.752   1.710   5.468
15168WAT      O45745   1.152   5.542   6.020
15168WAT     H145746   1.139   5.610   5.948
15168WAT     H245747   1.103   5.458   5.996
15169WAT      O45748   4.687   6.110   9.267
15169WAT     H145749   4.605   6.132   9.319
15169WAT     H245750   4.768   6.124   9.325
15170WAT      O45751   9.055   0.805   8.409
15170WAT     H145752   9.109   0.853   8.478
15170WAT     H245753   8.978   0.862   8.382
15171WAT      O45754   8.604   2.110   0.128
15171WAT     H145755   8.694   2.123   0.087
15171WAT     H245756   8.548   2.192   0.113
15172WAT      O45757   7.715   7.655   7.802
15172WAT     H145758   7.760   7.568   7.780
15172WAT     H245759   7.756   7.694   7.885
15173WAT      O45760   1.013   3.291   4.571
15173WAT     H145761   1.011   3.355   4.494
15173WAT     H245762   0.936   3.227   4.562
15174WAT      O45763   6.067   3.733   2.920
15174WAT     H145764   6.058   3.825   2.957
15174WAT     H245765   5.978   3.686   2.925
15175WAT      O45766   3.897   3.160   7.778
15175WAT     H145767   3.879   3.081   7.837
15175WAT     H245768   3.865   3.141   7.685
15176WAT      O45769   0.930   8.372   4.191
15176WAT     H145770   0.999   8.333   4.130
15176WAT     H245771   0.925   8.471   4.177
15177WAT      O45772   8.407   5.757   4.555
15177WAT     H145773   8.340   5.756   4.481
15177WAT     H245774   8.364   5.788   4.639
15178WAT      O45775   7.700   4.918   8.527
15178WAT     H145776   7.674   4.987   8.459
15178WAT     H245777   7.617   4.874   8.562
15179WAT      O45778   5.341   8.275   4.262
15179WAT     H145779   5.258   8.272   4.319
15179WAT     H245780   5.356   8.185   4.221
15180WAT      O45781   4.705   4.351   4.764
15180WAT     H145782   4.657   4.264   4.773
15180WAT     H245783   4.667   4.418   4.828
15181WAT      O45784   9.750   7.931   0.474
15181WAT     H145785   9.767   7.893   0.383
15181WAT     H245786   9.780   8.026   0.476
15182WAT      O45787   2.868   0.231   8.138
15182WAT     H145788   2.772   0.252   8.154
15182WAT     H245789   2.895   0.265   8.048
15183WAT      O45790   7.720   6.537   6.039
15183WAT     H145791   7.708   6.629   6.076
15183WAT     H245792   7.659   6.474   6.087
15184WAT      O45793   7.204   2.767   6.124
15184WAT     H145794   7.136   2.801   6.189
15184WAT     H245795   7.295   2.777   6.165
15185WAT      O45796   7.822   1.550   3.963
15185WAT     H145797   7.840   1.510   4.053
15185WAT     H245798   7.903   1.539   3.905
15186WAT      O45799   0.947   4.882   7.249
15186WAT     H145800   0.885   4.828   7.192
15186WAT     H245801   0.936   4.979   7.228
15187WAT      O45802   2.208   0.008   8.056
15187WAT     H145803   2.257  -0.055   8.116
15187WAT     H245804   2.110   0.006   8.079
15188WAT      O45805   3.253   9.737   1.508
15188WAT     H145806   3.235   9.822   1.460
15188WAT     H245807   3.170   9.681   1.510
15189WAT      O45808   7.247   5.722   5.275
15189WAT     H145809   7.260   5.738   5.373
15189WAT     H245810   7.297   5.640   5.247
15190WAT      O45811   7.025   6.301   5.502
15190WAT     H145812   7.049   6.262   5.413
15190WAT     H245813   6.929   6.281   5.522
15191WAT      O45814   4.241   1.410   6.714
15191WAT     H145815   4.156   1.421   6.663
15191WAT     H245816   4.255   1.490   6.773
15192WAT      O45817   7.966   0.493   2.306
15192WAT     H145818   7.957   0.560   2.381
15192WAT     H245819   7.887   0.432   2.307
15193WAT      O45820   2.314   7.369   3.900
15193WAT     H145821   2.414   7.359   3.908
15193WAT     H245822   2.271   7.281   3.919
15194WAT      O45823   9.040   6.065   2.457
15194WAT     H145824   9.000   6.097   2.372
15194WAT     H245825   9.014   5.970   2.473
15195WAT      O45826   6.736   7.644   0.800
15195WAT     H145827   6.647   7.671   0.835
15195WAT     H245828   6.790   7.726   0.781
15196WAT      O45829   5.873   3.668   9.142
15196WAT     H145830   5.951   3.665   9.204
15196WAT     H245831   5.799   3.613   9.179
15197WAT      O45832   5.653   6.955   5.471
15197WAT     H145833   5.652   6.941   5.570
15197WAT     H245834   5.747   6.950   5.437
15198WAT      O45835   7.961   4.744   6.944
15198WAT     H145836   8.058   4.745   6.968
15198WAT     H245837   7.949   4.779   6.852
15199WAT      O45838   2.138   6.797   8.855
15199WAT     H145839   2.049   6.840   8.867
15199WAT     H245840   2.200   6.860   8.810
15200WAT      O45841   4.345   8.394   0.445
15200WAT     H145842   4.425   8.428   0.394
15200WAT     H245843   4.376   8.344   0.525
15201WAT      O45844   4.149   9.793   8.792
15201WAT     H145845   4.145   9.697   8.764
15201WAT     H245846   4.179   9.849   8.714
15202WAT      O45847   4.228   6.630   1.795
15202WAT     H145848   4.261   6.561   1.859
15202WAT     H245849   4.306   6.678   1.755
15203WAT      O45850   4.903   8.199   2.725
15203WAT     H145851   4.869   8.275   2.781
15203WAT     H245852   4.826   8.153   2.681
15204WAT      O45853   4.414   8.072   5.508
15204WAT     H145854   4.348   8.140   5.538
15204WAT     H245855   4.412   7.993   5.569
15205WAT      O45856   5.273   6.272   8.827
15205WAT     H145857   5.177   6.291   8.803
15205WAT     H245858   5.281   6.177   8.857
15206WAT      O45859   4.762   2.279   8.349
15206WAT     H145860   4.782   2.330   8.433
15206WAT     H245861   4.728   2.342   8.280
15207WAT      O45862   5.038   2.503   0.571
15207WAT     H145863   5.055   2.502   0.473
15207WAT     H245864   4.992   2.419   0.599
15208WAT      O45865   8.132   2.357   8.110
15208WAT     H145866   8.137   2.282   8.044
15208WAT     H245867   8.182   2.333   8.193
15209WAT      O45868   6.846   7.234   2.548
15209WAT     H145869   6.833   7.331   2.570
15209WAT     H245870   6.925   7.224   2.487
15210WAT      O45871   4.536   2.021   8.468
15210WAT     H145872   4.481   1.943   8.437
15210WAT     H245873   4.626   2.018   8.426
15211WAT      O45874   1.413   0.921   5.788
15211WAT     H145875   1.413   0.980   5.708
15211WAT     H245876   1.375   0.832   5.764
15212WAT      O45877   1.528   7.352   5.935
15212WAT     H145878   1.518   7.449   5.914
15212WAT     H245879   1.485   7.297   5.863
15213WAT      O45880   4.740   2.656   2.340
15213WAT     H145881   4.691   2.601   2.407
15213WAT     H245882   4.705   2.636   2.248
15214WAT      O45883   3.006   0.474   4.076
15214WAT     H145884   2.951   0.405   4.123
15214WAT     H245885   2.974   0.484   3.982
15215WAT      O45886   6.594   9.653   1.815
15215WAT     H145887   6.628   9.731   1.763
15215WAT     H245888   6.663   9.580   1.814
15216WAT      O45889   4.985   7.742   6.583
15216WAT     H145890   5.075   7.751   6.625
15216WAT     H245891   4.996   7.734   6.484
15217WAT      O45892   1.172   9.115   3.338
15217WAT     H145893   1.188   9.190   3.402
15217WAT     H245894   1.083   9.073   3.358
15218WAT      O45895   0.254   5.554   5.809
15218WAT     H145896   0.312   5.496   5.752
15218WAT     H245897   0.311   5.619   5.860
15219WAT      O45898   9.587   4.284   0.994
15219WAT     H145899   9.520   4.358   0.996
15219WAT     H245900   9.678   4.320   1.012
15220WAT      O45901   1.516   2.983   7.726
15220WAT     H145902   1.447   3.023   7.665
15220WAT     H245903   1.489   2.999   7.821
15221WAT      O45904   7.833   1.423   3.608
15221WAT     H145905   7.926   1.415   3.571
15221WAT     H245906   7.828   1.375   3.696
15222WAT      O45907   3.583   6.346   5.266
15222WAT     H145908   3.485   6.351   5.248
15222WAT     H245909   3.598   6.310   5.358
15223WAT      O45910   2.825   7.539   8.667
15223WAT     H145911   2.824   7.542   8.567
15223WAT     H245912   2.736   7.569   8.702
15224WAT      O45913   4.025   0.475   0.343
15224WAT     H145914   3.931   0.453   0.316
15224WAT     H245915   4.032   0.571   0.367
15225WAT      O45916   6.250   4.365   6.451
15225WAT     H145917   6.185   4.334   6.520
15225WAT     H245918   6.302   4.287   6.416
15226WAT      O45919   1.390   4.706   3.689
15226WAT     H145920   1.332   4.669   3.762
15226WAT     H245921   1.388   4.643   3.611
15227WAT      O45922   6.217   5.412   3.005
15227WAT     H145923   6.183   5.329   2.961
15227WAT     H245924   6.264   5.468   2.937
15228WAT      O45925   6.724   3.465   7.644
15228WAT     H145926   6.632   3.434   7.667
15228WAT     H245927   6.737   3.559   7.675
15229WAT      O45928   0.201   4.646   4.621
15229WAT     H145929   0.254   4.642   4.536
15229WAT     H245930   0.186   4.741   4.646
15230WAT      O45931   6.647   9.656   0.796
15230WAT     H145932   6.744   9.679   0.803
15230WAT     H245933   6.608   9.650   0.888
15231WAT      O45934   7.538   1.593   3.773
15231WAT     H145935   7.460   1.533   3.755
15231WAT     H245936   7.583   1.615   3.686
15232WAT      O45937   3.512   4.694   0.666
15232WAT     H145938   3.548   4.778   0.627
15232WAT     H245939   3.504   4.624   0.595
15233WAT      O45940   8.569   9.721   6.408
15233WAT     H145941   8.621   9.666   6.473
15233WAT     H245942   8.560   9.814   6.443
15234WAT      O45943   1.446   0.909   0.080
15234WAT     H145944   1.432   1.009   0.080
15234WAT     H245945   1.357   0.864   0.072
15235WAT      O45946   7.722   0.405   0.915
15235WAT     H145947   7.625   0.383   0.909
15235WAT     H245948   7.734   0.495   0.957
15236WAT      O45949   5.478   7.318   2.103
15236WAT     H145950   5.423   7.356   2.029
15236WAT     H245951   5.507   7.226   2.079
15237WAT      O45952   6.786   2.743   0.565
15237WAT     H145953   6.837   2.660   0.543
15237WAT     H245954   6.711   2.720   0.627
15238WAT      O45955   3.309   7.503   1.608
15238WAT     H145956   3.371   7.509   1.686
15238WAT     H245957   3.346   7.556   1.532
15239WAT      O45958   4.886   2.429   8.908
15239WAT     H145959   4.884   2.448   9.006
15239WAT     H245960   4.793   2.409   8.876
15240WAT      O45961   6.436   2.375   2.670
15240WAT     H145962   6.510   2.310   2.688
15240WAT     H245963   6.423   2.434   2.750
15241WAT      O45964   4.023   1.177   0.241
15241WAT     H145965   4.044   1.088   0.282
15241WAT     H245966   4.108   1.224   0.220
15242WAT      O45967   5.390   9.463   2.870
15242WAT     H145968   5.464   9.518   2.908
15242WAT     H245969   5.302   9.494   2.907
15243WAT      O45970   9.411   5.274   0.741
15243WAT     H145971   9.482   5.338   0.713
15243WAT     H245972   9.368   5.234   0.660
15244WAT      O45973   5.001   0.342   9.160
15244WAT     H145974   5.040   0.373   9.247
15244WAT     H245975   5.015   0.411   9.090
15245WAT      O45976   6.717   7.219   7.541
15245WAT     H145977   6.814   7.206   7.563
15245WAT     H245978   6.663   7.147   7.585
15246WAT      O45979   6.950   6.495   6.227
15246WAT     H145980   6.944   6.532   6.135
15246WAT     H245981   7.022   6.426   6.231
15247WAT      O45982   7.282   1.439   6.446
15247WAT     H145983   7.259   1.408   6.539
15247WAT     H245984   7.209   1.412   6.383
15248WAT      O45985   9.321   2.949   2.037
15248WAT     H145986   9.249   2.920   1.973
15248WAT     H245987   9.370   2.869   2.071
15249WAT      O45988   4.678   4.923   5.992
15249WAT     H145989   4.699   5.001   6.051
15249WAT     H245990   4.745   4.851   6.007
15250WAT      O45991   5.650   7.676   1.995
15250WAT     H145992   5.582   7.679   1.921
15250WAT     H245993   5.715   7.602   1.976
15251WAT      O45994   5.586   7.303   9.465
15251WAT     H145995   5.576   7.373   9.535
15251WAT     H245996   5.510   7.309   9.400
15252WAT      O45997   3.120   2.239   0.452
15252WAT     H145998   3.138   2.333   0.424
15252WAT     H245999   3.178   2.216   0.530
15253WAT      O46000   1.703   3.073   1.953
15253WAT     H146001   1.607   3.102   1.951
15253WAT     H246002   1.707   2.975   1.976
15254WAT      O46003   2.306   6.940   3.915
15254WAT     H146004   2.283   6.862   3.857
15254WAT     H246005   2.307   6.911   4.011
15255WAT      O46006   4.417   0.958   7.283
15255WAT     H146007   4.357   1.038   7.293
15255WAT     H246008   4.484   0.957   7.357
15256WAT      O46009   3.080   0.341   2.882
15256WAT     H146010   3.175   0.368   2.876
15256WAT     H246011   3.054   0.326   2.977
15257WAT      O46012   7.380   1.930   5.621
15257WAT     H146013   7.391   1.830   5.621
15257WAT     H246014   7.302   1.954   5.562
15258WAT      O46015   4.167   6.368   8.434
15258WAT     H146016   4.199   6.289   8.383
15258WAT     H246017   4.107   6.423   8.376
15259WAT      O46018   2.591   4.195   7.873
15259WAT     H146019   2.541   4.110   7.892
15259WAT     H246020   2.604   4.246   7.958
15260WAT      O46021   1.148   9.812   0.430
15260WAT     H146022   1.063   9.760   0.435
15260WAT     H246023   1.137   9.900   0.476
15261WAT      O46024   0.501   8.549   7.196
15261WAT     H146025   0.410   8.514   7.214
15261WAT     H246026   0.563   8.522   7.270
15262WAT      O46027   6.796   5.904   0.041
15262WAT     H146028   6.869   5.915   0.108
15262WAT     H246029   6.797   5.982  -0.022
15263WAT      O46030   9.530   6.383   4.925
15263WAT     H146031   9.617   6.333   4.927
15263WAT     H246032   9.468   6.339   4.860
15264WAT      O46033   3.209   6.356   0.616
15264WAT     H146034   3.148   6.282   0.590
15264WAT     H246035   3.190   6.384   0.711
15265WAT      O46036   5.351   4.200   6.139
15265WAT     H146037   5.428   4.186   6.076
15265WAT     H246038   5.302   4.283   6.114
15266WAT      O46039   1.340   4.567   3.940
15266WAT     H146040   1.402   4.515   3.881
15266WAT     H246041   1.340   4.527   4.032
15267WAT      O46042   5.161   3.885   0.040
15267WAT     H146043   5.254   3.876   0.005
15267WAT     H246044   5.096   3.863  -0.032
15268WAT      O46045   7.246   4.336   3.758
15268WAT     H146046   7.291   4.276   3.692
15268WAT     H246047   7.259   4.431   3.731
15269WAT      O46048   9.364   9.102   1.199
15269WAT     H146049   9.463   9.086   1.195
15269WAT     H246050   9.319   9.049   1.127
15270WAT      O46051   7.823   1.203   3.791
15270WAT     H146052   7.748   1.253   3.834
15270WAT     H246053   7.881   1.162   3.861
15271WAT      O46054   4.289   3.410   5.070
15271WAT     H146055   4.211   3.348   5.055
15271WAT     H246056   4.370   3.357   5.095
15272WAT      O46057   3.270   0.921   4.739
15272WAT     H146058   3.342   0.870   4.786
15272WAT     H246059   3.302   0.947   4.648
15273WAT      O46060   0.823   8.195   1.588
15273WAT     H146061   0.846   8.292   1.591
15273WAT     H246062   0.774   8.175   1.503
15274WAT      O46063   0.546   1.751   9.381
15274WAT     H146064   0.590   1.734   9.293
15274WAT     H246065   0.592   1.697   9.452
15275WAT      O46066   7.008   9.056   9.464
15275WAT     H146067   6.979   9.141   9.420
15275WAT     H246068   7.049   8.995   9.396
15276WAT      O46069   5.621   7.014   8.854
15276WAT     H146070   5.720   7.003   8.848
15276WAT     H246071   5.576   6.945   8.797
15277WAT      O46072   7.388   5.658   1.590
15277WAT     H146073   7.387   5.589   1.517
15277WAT     H246074   7.297   5.700   1.597
15278WAT      O46075   4.906   9.035   6.201
15278WAT     H146076   4.968   9.050   6.279
15278WAT     H246077   4.835   9.105   6.202
15279WAT      O46078   5.138   7.968   0.684
15279WAT     H146079   5.199   8.039   0.718
15279WAT     H246080   5.187   7.880   0.684
15280WAT      O46081   5.056   5.140   9.675
15280WAT     H146082   5.022   5.094   9.756
15280WAT     H246083   5.023   5.093   9.593
15281WAT      O46084   8.827   8.987   8.732
15281WAT     H146085   8.878   8.924   8.675
15281WAT     H246086   8.886   9.021   8.806
15282WAT      O46087   4.348   0.361   8.675
15282WAT     H146088   4.421   0.321   8.619
15282WAT     H246089   4.333   0.305   8.756
15283WAT      O46090   3.282   3.504   6.816
15283WAT     H146091   3.310   3.456   6.733
15283WAT     H246092   3.320   3.459   6.896
15284WAT      O46093   5.520   9.625   4.017
15284WAT     H146094   5.423   9.611   3.996
15284WAT     H246095   5.576   9.576   3.951
15285WAT      O46096   3.524   0.503   2.239
15285WAT     H146097   3.449   0.567   2.254
15285WAT     H246098   3.523   0.432   2.310
15286WAT      O46099   5.589   5.367   1.034
15286WAT     H146100   5.687   5.385   1.044
15286WAT     H246101   5.539   5.453   1.035
15287WAT      O46102   4.194   0.820   7.919
15287WAT     H146103   4.224   0.912   7.943
15287WAT     H246104   4.132   0.824   7.841
15288WAT      O46105   0.254   3.020   9.760
15288WAT     H146106   0.156   3.022   9.741
15288WAT     H246107   0.273   2.960   9.837
15289WAT      O46108   9.407   2.595   3.369
15289WAT     H146109   9.444   2.527   3.306
15289WAT     H246110   9.348   2.659   3.319
15290WAT      O46111   5.595   1.381   1.576
15290WAT     H146112   5.673   1.345   1.627
15290WAT     H246113   5.588   1.479   1.593
15291WAT      O46114   4.495   3.164   7.043
15291WAT     H146115   4.507   3.129   7.136
15291WAT     H246116   4.583   3.163   6.996
15292WAT      O46117   7.994   3.547   3.103
15292WAT     H146118   7.960   3.636   3.133
15292WAT     H246119   8.058   3.510   3.171
15293WAT      O46120   0.823   8.486   3.891
15293WAT     H146121   0.910   8.438   3.876
15293WAT     H246122   0.754   8.451   3.827
15294WAT      O46123   0.119   9.805   4.764
15294WAT     H146124   0.206   9.809   4.716
15294WAT     H246125   0.106   9.713   4.802
15295WAT      O46126   8.293   6.253   6.585
15295WAT     H146127   8.238   6.200   6.520
15295WAT     H246128   8.389   6.224   6.580
15296WAT      O46129   4.818   1.310   2.621
15296WAT     H146130   4.800   1.401   2.660
15296WAT     H246131   4.906   1.310   2.575
15297WAT      O46132   8.890   5.947   7.938
15297WAT     H146133   8.824   6.005   7.985
15297WAT     H246134   8.931   5.998   7.862
15298WAT      O46135   4.566   6.959   3.028
15298WAT     H146136   4.648   6.939   2.976
15298WAT     H246137   4.583   7.035   3.090
15299WAT      O46138   5.203   5.007   4.462
15299WAT     H146139   5.243   4.919   4.489
15299WAT     H246140   5.227   5.076   4.530
15300WAT      O46141   2.035   9.035   2.424
15300WAT     H146142   1.937   9.028   2.408
15300WAT     H246143   2.054   9.029   2.522
15301WAT      O46144   8.095   8.341   3.910
15301WAT     H146145   8.032   8.343   3.988
15301WAT     H246146   8.057   8.283   3.838
15302WAT      O46147   8.387   9.202   7.130
15302WAT     H146148   8.292   9.231   7.141
15302WAT     H246149   8.389   9.109   7.093
15303WAT      O46150   5.559   7.393   8.091
15303WAT     H146151   5.646   7.400   8.041
15303WAT     H246152   5.523   7.300   8.082
15304WAT      O46153   1.553   1.177   4.810
15304WAT     H146154   1.564   1.078   4.821
15304WAT     H246155   1.642   1.221   4.807
15305WAT      O46156   5.175   2.242   7.142
15305WAT     H146157   5.212   2.170   7.083
15305WAT     H246158   5.082   2.218   7.170
15306WAT      O46159   5.673   7.916   0.834
15306WAT     H146160   5.707   7.840   0.889
15306WAT     H246161   5.582   7.943   0.866
15307WAT      O46162   1.023   0.558   7.358
15307WAT     H146163   1.113   0.532   7.391
15307WAT     H246164   1.033   0.620   7.280
15308WAT      O46165   4.288   5.663   8.618
15308WAT     H146166   4.339   5.583   8.586
15308WAT     H246167   4.194   5.635   8.641
15309WAT      O46168   9.548   9.417   8.602
15309WAT     H146169   9.608   9.341   8.626
15309WAT     H246170   9.582   9.501   8.645
15310WAT      O46171   7.497   2.018   5.317
15310WAT     H146172   7.565   2.089   5.300
15310WAT     H246173   7.542   1.928   5.316
15311WAT      O46174   1.537   0.997   9.512
15311WAT     H146175   1.460   1.060   9.520
15311WAT     H246176   1.623   1.045   9.530
15312WAT      O46177   3.240   4.278   2.746
15312WAT     H146178   3.243   4.252   2.650
15312WAT     H246179   3.247   4.196   2.803
15313WAT      O46180   3.129   2.724   8.687
15313WAT     H146181   3.165   2.814   8.709
15313WAT     H246182   3.204   2.662   8.664
15314WAT      O46183   4.656   3.573   1.461
15314WAT     H146184   4.746   3.532   1.471
15314WAT     H246185   4.596   3.541   1.534
15315WAT      O46186   7.641   1.963   9.702
15315WAT     H146187   7.541   1.965   9.699
15315WAT     H246188   7.671   1.947   9.796
15316WAT      O46189   7.199   5.030   6.933
15316WAT     H146190   7.151   5.049   7.018
15316WAT     H246191   7.200   5.113   6.876
15317WAT      O46192   5.695   4.701   7.693
15317WAT     H146193   5.790   4.694   7.663
15317WAT     H246194   5.669   4.797   7.699
15318WAT      O46195   3.658   3.403   8.822
15318WAT     H146196   3.561   3.380   8.808
15318WAT     H246197   3.695   3.442   8.739
15319WAT      O46198   6.235   8.581   9.670
15319WAT     H146199   6.150   8.628   9.647
15319WAT     H246200   6.233   8.488   9.633
15320WAT      O46201   6.674   0.008   1.631
15320WAT     H146202   6.745   0.076   1.650
15320WAT     H246203   6.605   0.047   1.571
15321WAT      O46204   7.858   6.809   0.977
15321WAT     H146205   7.880   6.889   1.032
15321WAT     H246206   7.901   6.728   1.018
15322WAT      O46207   1.248   9.001   4.584
15322WAT     H146208   1.298   9.063   4.523
15322WAT     H246209   1.311   8.931   4.618
15323WAT      O46210   0.755   4.774   8.637
15323WAT     H146211   0.734   4.700   8.700
15323WAT     H246212   0.740   4.862   8.682
15324WAT      O46213   2.439   0.475   1.088
15324WAT     H146214   2.404   0.400   1.144
15324WAT     H246215   2.534   0.494   1.115
15325WAT      O46216   5.925   3.661   6.687
15325WAT     H146217   5.834   3.661   6.729
15325WAT     H246218   5.917   3.643   6.589
15326WAT      O46219   6.208   7.561   1.295
15326WAT     H146220   6.203   7.581   1.392
15326WAT     H246221   6.278   7.492   1.278
15327WAT      O46222   1.446   7.125   9.872
15327WAT     H146223   1.511   7.190   9.912
15327WAT     H246224   1.410   7.162   9.787
15328WAT      O46225   5.406   5.554   6.728
15328WAT     H146226   5.480   5.621   6.740
15328WAT     H246227   5.320   5.601   6.714
15329WAT      O46228   7.886   1.798   8.569
15329WAT     H146229   7.866   1.835   8.660
15329WAT     H246230   7.902   1.874   8.506
15330WAT      O46231   1.615   1.210   7.377
15330WAT     H146232   1.584   1.151   7.303
15330WAT     H246233   1.704   1.180   7.411
15331WAT      O46234   9.710   4.527   1.519
15331WAT     H146235   9.739   4.578   1.600
15331WAT     H246236   9.622   4.561   1.487
15332WAT      O46237   4.057   7.853   5.091
15332WAT     H146238   3.977   7.884   5.040
15332WAT     H246239   4.085   7.763   5.058
15333WAT      O46240   3.064   7.193   1.705
15333WAT     H146241   3.045   7.250   1.625
15333WAT     H246242   2.978   7.165   1.748
15334WAT      O46243   3.435   4.050   5.084
15334WAT     H146244   3.524   4.044   5.128
15334WAT     H246245   3.430   4.133   5.029
15335WAT      O46246   2.747   8.832   1.748
15335WAT     H146247   2.791   8.743   1.762
15335WAT     H246248   2.787   8.876   1.668
15336WAT      O46249   7.809   9.619   8.179
15336WAT     H146250   7.895   9.656   8.214
15336WAT     H246251   7.752   9.590   8.255
15337WAT      O46252   6.752   1.854   1.936
15337WAT     H146253   6.755   1.757   1.961
15337WAT     H246254   6.677   1.870   1.873
15338WAT      O46255   7.575   5.989   2.082
15338WAT     H146256   7.644   6.030   2.021
15338WAT     H246257   7.570   6.042   2.166
15339WAT      O46258   4.961   8.493   1.267
15339WAT     H146259   4.923   8.467   1.356
15339WAT     H246260   4.921   8.436   1.196
15340WAT      O46261   1.124   7.773   1.772
15340WAT     H146262   1.182   7.803   1.697
15340WAT     H246263   1.061   7.846   1.798
15341WAT      O46264   7.115   6.864   8.473
15341WAT     H146265   7.130   6.819   8.561
15341WAT     H246266   7.194   6.847   8.413
15342WAT      O46267   6.830   9.683   7.291
15342WAT     H146268   6.751   9.625   7.271
15342WAT     H246269   6.863   9.725   7.207
15343WAT      O46270   2.690   8.051   5.974
15343WAT     H146271   2.788   8.038   5.960
15343WAT     H246272   2.654   7.978   6.032
15344WAT      O46273   0.196   3.295   4.156
15344WAT     H146274   0.207   3.197   4.172
15344WAT     H246275   0.154   3.310   4.067
15345WAT      O46276   7.850   8.259   5.558
15345WAT     H146277   7.752   8.241   5.559
15345WAT     H246278   7.886   8.245   5.466
15346WAT      O46279   2.496   8.607   2.865
15346WAT     H146280   2.523   8.577   2.774
15346WAT     H246281   2.439   8.689   2.858
15347WAT      O46282   1.423   9.732   1.189
15347WAT     H146283   1.452   9.785   1.109
15347WAT     H246284   1.448   9.636   1.176
15348WAT      O46285   3.070   9.084   0.734
15348WAT     H146286   3.047   9.172   0.775
15348WAT     H246287   3.001   9.016   0.759
15349WAT      O46288   8.294   3.865   3.278
15349WAT     H146289   8.326   3.773   3.302
15349WAT     H246290   8.241   3.902   3.354
15350WAT      O46291   1.894   6.227   7.196
15350WAT     H146292   1.822   6.195   7.134
15350WAT     H246293   1.852   6.261   7.280
15351WAT      O46294   8.571   3.145   5.770
15351WAT     H146295   8.630   3.216   5.732
15351WAT     H246296   8.577   3.148   5.870
15352WAT      O46297   2.491   6.446   6.374
15352WAT     H146298   2.403   6.412   6.407
15352WAT     H246299   2.565   6.397   6.418
15353WAT      O46300   7.097   6.598   0.319
15353WAT     H146301   7.128   6.693   0.329
15353WAT     H246302   7.050   6.588   0.231
15354WAT      O46303   7.734   5.002   1.732
15354WAT     H146304   7.789   5.050   1.799
15354WAT     H246305   7.764   4.907   1.726
15355WAT      O46306   2.606   9.376   3.637
15355WAT     H146307   2.663   9.371   3.719
15355WAT     H246308   2.615   9.291   3.585
15356WAT      O46309   2.272   5.181   2.784
15356WAT     H146310   2.343   5.154   2.849
15356WAT     H246311   2.182   5.161   2.823
15357WAT      O46312   1.710   3.023   1.572
15357WAT     H146313   1.769   3.083   1.519
15357WAT     H246314   1.616   3.054   1.565
15358WAT      O46315   4.701   7.690   6.245
15358WAT     H146316   4.640   7.672   6.322
15358WAT     H246317   4.646   7.698   6.161
15359WAT      O46318   2.308   4.509   5.245
15359WAT     H146319   2.223   4.456   5.248
15359WAT     H246320   2.298   4.583   5.179
15360WAT      O46321   8.542   1.184   9.466
15360WAT     H146322   8.500   1.131   9.539
15360WAT     H246323   8.607   1.249   9.505
15361WAT      O46324   3.107   4.940   1.030
15361WAT     H146325   3.061   4.932   0.942
15361WAT     H246326   3.046   4.910   1.103
15362WAT      O46327   5.232   1.798   5.340
15362WAT     H146328   5.139   1.787   5.374
15362WAT     H246329   5.290   1.838   5.411
15363WAT      O46330   5.327   7.301   2.570
15363WAT     H146331   5.264   7.369   2.535
15363WAT     H246332   5.404   7.291   2.507
15364WAT      O46333   8.019   8.129   2.955
15364WAT     H146334   8.009   8.071   2.874
15364WAT     H246335   7.966   8.213   2.944
15365WAT      O46336   2.770   1.563   7.099
15365WAT     H146337   2.714   1.568   7.182
15365WAT     H246338   2.859   1.605   7.117
15366WAT      O46339   5.147   4.623   4.667
15366WAT     H146340   5.117   4.693   4.732
15366WAT     H246341   5.084   4.546   4.668
15367WAT      O46342   5.809   1.371   8.396
15367WAT     H146343   5.722   1.322   8.392
15367WAT     H246344   5.804   1.453   8.338
15368WAT      O46345   6.382   4.769   3.708
15368WAT     H146346   6.424   4.838   3.767
15368WAT     H246347   6.349   4.812   3.624
15369WAT      O46348   7.223   1.502   2.485
15369WAT     H146349   7.190   1.468   2.574
15369WAT     H246350   7.180   1.450   2.412
15370WAT      O46351   1.456   1.149   0.630
15370WAT     H146352   1.520   1.224   0.649
15370WAT     H246353   1.424   1.157   0.535
15371WAT      O46354   1.210   7.428   4.034
15371WAT     H146355   1.225   7.474   4.121
15371WAT     H246356   1.254   7.480   3.961
15372WAT      O46357   6.142   4.264   3.239
15372WAT     H146358   6.208   4.279   3.165
15372WAT     H246359   6.163   4.178   3.285
15373WAT      O46360   0.106   8.785   3.123
15373WAT     H146361   0.119   8.873   3.170
15373WAT     H246362   0.019   8.745   3.152
15374WAT      O46363   9.703   6.746   8.699
15374WAT     H146364   9.680   6.651   8.719
15374WAT     H246365   9.633   6.785   8.639
15375WAT      O46366   8.056   7.819   5.020
15375WAT     H146367   8.082   7.827   4.924
15375WAT     H246368   8.137   7.798   5.075
15376WAT      O46369   5.024   3.817   2.883
15376WAT     H146370   5.112   3.812   2.836
15376WAT     H246371   5.012   3.735   2.939
15377WAT      O46372   0.964   1.721   8.938
15377WAT     H146373   0.887   1.684   8.887
15377WAT     H246374   1.049   1.701   8.889
15378WAT      O46375   4.128   3.659   0.413
15378WAT     H146376   4.153   3.581   0.471
15378WAT     H246377   4.184   3.738   0.439
15379WAT      O46378   2.226   3.367   4.033
15379WAT     H146379   2.207   3.460   4.003
15379WAT     H246380   2.187   3.353   4.124
15380WAT      O46381   9.828   7.802   1.335
15380WAT     H146382   9.880   7.717   1.325
15380WAT     H246383   9.807   7.839   1.245
15381WAT      O46384   4.487   9.088   3.338
15381WAT     H146385   4.419   9.078   3.410
15381WAT     H246386   4.477   9.014   3.271
15382WAT      O46387   2.997   5.696   1.279
15382WAT     H146388   3.021   5.600   1.296
15382WAT     H246389   2.963   5.706   1.186
15383WAT      O46390   9.297   4.171   2.103
15383WAT     H146391   9.389   4.159   2.142
15383WAT     H246392   9.285   4.266   2.075
15384WAT      O46393   7.995   3.708   8.204
15384WAT     H146394   7.899   3.717   8.231
15384WAT     H246395   8.012   3.615   8.171
15385WAT      O46396   6.500   8.629   1.789
15385WAT     H146397   6.413   8.623   1.837
15385WAT     H246398   6.487   8.674   1.700
15386WAT      O46399   1.951   0.199   9.731
15386WAT     H146400   1.990   0.287   9.757
15386WAT     H246401   2.013   0.153   9.667
15387WAT      O46402   5.530   4.715   7.007
15387WAT     H146403   5.586   4.727   6.925
15387WAT     H246404   5.479   4.799   7.026
15388WAT      O46405   3.279   4.769   0.797
15388WAT     H146406   3.283   4.760   0.897
15388WAT     H246407   3.363   4.733   0.757
15389WAT      O46408   3.241   4.022   6.877
15389WAT     H146409   3.189   4.107   6.870
15389WAT     H246410   3.324   4.038   6.930
15390WAT      O46411   6.265   6.590   2.030
15390WAT     H146412   6.354   6.575   2.071
15390WAT     H246413   6.271   6.665   1.964
15391WAT      O46414   3.078   6.220   9.340
15391WAT     H146415   3.118   6.170   9.264
15391WAT     H246416   3.105   6.316   9.335
15392WAT      O46417   0.429   5.613   1.801
15392WAT     H146418   0.360   5.675   1.762
15392WAT     H246419   0.391   5.520   1.805
15393WAT      O46420   7.233   7.998   4.763
15393WAT     H146421   7.139   7.982   4.796
15393WAT     H246422   7.297   7.949   4.822
15394WAT      O46423   5.500   7.250   6.228
15394WAT     H146424   5.503   7.262   6.327
15394WAT     H246425   5.428   7.184   6.205
15395WAT      O46426   0.271   4.591   5.877
15395WAT     H146427   0.332   4.632   5.809
15395WAT     H246428   0.300   4.618   5.969
15396WAT      O46429   3.859   1.274   9.077
15396WAT     H146430   3.867   1.221   8.993
15396WAT     H246431   3.816   1.218   9.148
15397WAT      O46432   5.944   1.199   0.013
15397WAT     H146433   6.034   1.204   0.056
15397WAT     H246434   5.876   1.170   0.080
15398WAT      O46435   0.997   3.775   1.513
15398WAT     H146436   0.900   3.759   1.494
15398WAT     H246437   1.046   3.688   1.508
15399WAT      O46438   5.445   4.510   0.550
15399WAT     H146439   5.424   4.420   0.586
15399WAT     H246440   5.483   4.501   0.458
15400WAT      O46441   0.675   1.626   9.607
15400WAT     H146442   0.640   1.567   9.680
15400WAT     H246443   0.706   1.712   9.647
15401WAT      O46444   5.747   5.213   6.833
15401WAT     H146445   5.763   5.294   6.777
15401WAT     H246446   5.748   5.238   6.930
15402WAT      O46447   0.324   1.857   3.338
15402WAT     H146448   0.354   1.762   3.342
15402WAT     H246449   0.227   1.860   3.314
15403WAT      O46450   0.115   6.519   5.594
15403WAT     H146451   0.023   6.478   5.596
15403WAT     H246452   0.181   6.453   5.630
15404WAT      O46453   3.446   0.786   6.948
15404WAT     H146454   3.507   0.835   7.011
15404WAT     H246455   3.352   0.815   6.963
15405WAT      O46456   3.045   1.114   4.446
15405WAT     H146457   3.002   1.073   4.527
15405WAT     H246458   3.040   1.213   4.452
15406WAT      O46459   3.168   0.835   8.050
15406WAT     H146460   3.093   0.771   8.069
15406WAT     H246461   3.250   0.806   8.100
15407WAT      O46462   8.745   8.633   7.830
15407WAT     H146463   8.702   8.543   7.842
15407WAT     H246464   8.844   8.621   7.828
15408WAT      O46465   1.876   7.909   8.728
15408WAT     H146466   1.800   7.876   8.672
15408WAT     H246467   1.846   7.916   8.823
15409WAT      O46468   5.899   7.480   4.667
15409WAT     H146469   5.851   7.567   4.668
15409WAT     H246470   5.965   7.478   4.592
15410WAT      O46471   2.108   7.222   9.120
15410WAT     H146472   2.184   7.286   9.118
15410WAT     H246473   2.038   7.252   9.055
15411WAT      O46474   7.711   7.650   2.242
15411WAT     H146475   7.731   7.604   2.329
15411WAT     H246476   7.620   7.691   2.245
15412WAT      O46477   5.357   2.314   5.376
15412WAT     H146478   5.291   2.345   5.444
15412WAT     H246479   5.319   2.328   5.284
15413WAT      O46480   7.212   1.724   1.955
15413WAT     H146481   7.179   1.818   1.955
15413WAT     H246482   7.216   1.690   1.861
15414WAT      O46483   9.305   7.346   8.345
15414WAT     H146484   9.336   7.322   8.253
15414WAT     H246485   9.223   7.294   8.367
15415WAT      O46486   0.638   2.621   4.466
15415WAT     H146487   0.557   2.573   4.499
15415WAT     H246488   0.719   2.566   4.486
15416WAT      O46489   6.485   5.640   7.029
15416WAT     H146490   6.537   5.726   7.032
15416WAT     H246491   6.404   5.652   6.971
15417WAT      O46492   8.162   0.120   1.505
15417WAT     H146493   8.076   0.069   1.506
15417WAT     H246494   8.150   0.208   1.551
15418WAT      O46495   2.542   1.474   7.696
15418WAT     H146496   2.584   1.474   7.786
15418WAT     H246497   2.576   1.551   7.642
15419WAT      O46498   1.741   6.417   1.861
15419WAT     H146499   1.711   6.345   1.799
15419WAT     H246500   1.834   6.399   1.891
15420WAT      O46501   1.981   3.524   2.892
15420WAT     H146502   1.895   3.502   2.938
15420WAT     H246503   2.012   3.615   2.922
15421WAT      O46504   0.794   4.786   2.617
15421WAT     H146505   0.807   4.868   2.673
15421WAT     H246506   0.728   4.805   2.544
15422WAT      O46507   6.275   9.023   1.675
15422WAT     H146508   6.218   9.105   1.678
15422WAT     H246509   6.343   9.027   1.748
15423WAT      O46510   3.621   8.253   2.544
15423WAT     H146511   3.582   8.344   2.527
15423WAT     H246512   3.663   8.251   2.635
15424WAT      O46513   6.902   2.640   5.643
15424WAT     H146514   6.852   2.724   5.623
15424WAT     H246515   6.846   2.561   5.618
15425WAT      O46516   3.323   7.536   3.025
15425WAT     H146517   3.330   7.449   3.073
15425WAT     H246518   3.329   7.521   2.927
15426WAT      O46519   2.592   7.492   9.387
15426WAT     H146520   2.632   7.461   9.301
15426WAT     H246521   2.603   7.591   9.395
15427WAT      O46522   9.511   0.281   0.790
15427WAT     H146523   9.564   0.318   0.714
15427WAT     H246524   9.572   0.257   0.866
15428WAT      O46525   8.501   4.774   2.180
15428WAT     H146526   8.536   4.755   2.089
15428WAT     H246527   8.576   4.793   2.243
15429WAT      O46528   8.693   7.585   5.294
15429WAT     H146529   8.619   7.579   5.227
15429WAT     H246530   8.778   7.609   5.249
15430WAT      O46531   7.680   5.119   7.084
15430WAT     H146532   7.636   5.032   7.107
15430WAT     H246533   7.777   5.104   7.066
15431WAT      O46534   5.933   9.045   6.148
15431WAT     H146535   6.017   9.045   6.093
15431WAT     H246536   5.919   9.136   6.187
15432WAT      O46537   0.091   7.150   4.544
15432WAT     H146538   0.021   7.222   4.544
15432WAT     H246539   0.098   7.110   4.453
15433WAT      O46540   5.539   3.155   1.443
15433WAT     H146541   5.472   3.089   1.411
15433WAT     H246542   5.599   3.113   1.511
15434WAT      O46543   4.434   7.120   3.662
15434WAT     H146544   4.385   7.033   3.670
15434WAT     H246545   4.462   7.151   3.753
15435WAT      O46546   8.213   6.154   3.564
15435WAT     H146547   8.121   6.115   3.566
15435WAT     H246548   8.248   6.153   3.470
15436WAT      O46549   5.089   9.491   1.043
15436WAT     H146550   5.101   9.590   1.051
15436WAT     H246551   4.999   9.465   1.079
15437WAT      O46552   3.188   0.316   4.851
15437WAT     H146553   3.195   0.256   4.932
15437WAT     H246554   3.278   0.322   4.807
15438WAT      O46555   3.996   9.158   1.275
15438WAT     H146556   4.014   9.076   1.329
15438WAT     H246557   3.904   9.192   1.295
15439WAT      O46558   4.759   6.764   7.762
15439WAT     H146559   4.829   6.824   7.722
15439WAT     H246560   4.800   6.677   7.787
15440WAT      O46561   8.970   1.036   9.416
15440WAT     H146562   8.873   1.024   9.437
15440WAT     H246563   8.979   1.075   9.324
15441WAT      O46564   1.726   2.308   8.771
15441WAT     H146565   1.711   2.214   8.740
15441WAT     H246566   1.747   2.307   8.869
15442WAT      O46567   0.347   8.533   3.480
15442WAT     H146568   0.346   8.613   3.420
15442WAT     H246569   0.258   8.488   3.476
15443WAT      O46570   3.419   3.137   8.755
15443WAT     H146571   3.470   3.160   8.672
15443WAT     H246572   3.483   3.111   8.828
15444WAT      O46573   0.077   8.776   9.349
15444WAT     H146574   0.080   8.825   9.436
15444WAT     H246575   0.108   8.682   9.362
15445WAT      O46576   8.552   2.859   2.255
15445WAT     H146577   8.505   2.873   2.342
15445WAT     H246578   8.639   2.908   2.256
15446WAT      O46579   7.780   8.682   1.894
15446WAT     H146580   7.850   8.727   1.949
15446WAT     H246581   7.713   8.749   1.863
15447WAT      O46582   1.312   7.922   0.590
15447WAT     H146583   1.376   7.981   0.541
15447WAT     H246584   1.292   7.962   0.679
15448WAT      O46585   6.246   7.495   9.325
15448WAT     H146586   6.263   7.484   9.423
15448WAT     H246587   6.263   7.590   9.300
15449WAT      O46588   2.647   7.373   4.540
15449WAT     H146589   2.717   7.440   4.514
15449WAT     H246590   2.673   7.331   4.627
15450WAT      O46591   2.898   1.241   5.734
15450WAT     H146592   2.996   1.262   5.726
15450WAT     H246593   2.877   1.212   5.827
15451WAT      O46594   6.853   6.474   0.526
15451WAT     H146595   6.835   6.420   0.609
15451WAT     H246596   6.952   6.486   0.515
15452WAT      O46597   4.048   9.156   9.404
15452WAT     H146598   4.038   9.083   9.472
15452WAT     H246599   4.132   9.206   9.421
15453WAT      O46600   1.171   4.852   6.270
15453WAT     H146601   1.151   4.780   6.336
15453WAT     H246602   1.175   4.941   6.316
15454WAT      O46603   8.125   2.222   3.528
15454WAT     H146604   8.140   2.306   3.476
15454WAT     H246605   8.044   2.233   3.586
15455WAT      O46606   7.439   2.341   1.877
15455WAT     H146607   7.406   2.396   1.801
15455WAT     H246608   7.442   2.245   1.849
15456WAT      O46609   9.160   9.841   6.753
15456WAT     H146610   9.145   9.928   6.706
15456WAT     H246611   9.197   9.774   6.688
15457WAT      O46612   6.542   9.654   9.052
15457WAT     H146613   6.447   9.626   9.060
15457WAT     H246614   6.550   9.752   9.073
15458WAT      O46615   0.553   8.006   4.883
15458WAT     H146616   0.624   8.066   4.846
15458WAT     H246617   0.463   8.041   4.860
15459WAT      O46618   7.981   2.578   3.280
15459WAT     H146619   7.926   2.495   3.286
15459WAT     H246620   8.034   2.590   3.364
15460WAT      O46621   1.020   3.270   7.601
15460WAT     H146622   1.059   3.227   7.684
15460WAT     H246623   0.941   3.325   7.626
15461WAT      O46624   3.057   0.189   5.477
15461WAT     H146625   3.144   0.228   5.509
15461WAT     H246626   2.998   0.169   5.555
15462WAT      O46627   6.138   3.914   8.793
15462WAT     H146628   6.078   3.922   8.714
15462WAT     H246629   6.196   3.833   8.782
15463WAT      O46630   3.474   7.506   2.401
15463WAT     H146631   3.508   7.500   2.307
15463WAT     H246632   3.417   7.426   2.421
15464WAT      O46633   7.490   2.986   6.666
15464WAT     H146634   7.459   2.921   6.596
15464WAT     H246635   7.589   3.000   6.656
15465WAT      O46636   3.710   8.161   1.617
15465WAT     H146637   3.787   8.103   1.644
15465WAT     H246638   3.741   8.256   1.609
15466WAT      O46639   1.375   0.242   8.444
15466WAT     H146640   1.349   0.165   8.502
15466WAT     H246641   1.404   0.318   8.501
15467WAT      O46642   7.178   8.762   0.601
15467WAT     H146643   7.270   8.735   0.573
15467WAT     H246644   7.121   8.775   0.520
15468WAT      O46645   6.288   6.221   5.639
15468WAT     H146646   6.287   6.154   5.565
15468WAT     H246647   6.352   6.294   5.618
15469WAT      O46648   9.034   9.594   0.525
15469WAT     H146649   9.092   9.539   0.464
15469WAT     H246650   9.059   9.577   0.620
15470WAT      O46651   1.411   5.458   2.046
15470WAT     H146652   1.396   5.391   2.119
15470WAT     H246653   1.358   5.541   2.064
15471WAT      O46654   5.329   0.065   2.465
15471WAT     H146655   5.264   0.086   2.392
15471WAT     H246656   5.386  -0.012   2.438
15472WAT      O46657   5.802   3.964   0.576
15472WAT     H146658   5.716   3.913   0.585
15472WAT     H246659   5.851   3.962   0.663
15473WAT      O46660   0.828   7.474   5.914
15473WAT     H146661   0.909   7.431   5.953
15473WAT     H246662   0.855   7.538   5.842
15474WAT      O46663   8.415   5.818   7.131
15474WAT     H146664   8.404   5.918   7.135
15474WAT     H246665   8.503   5.793   7.171
15475WAT      O46666   0.199   9.314   5.884
15475WAT     H146667   0.122   9.263   5.846
15475WAT     H246668   0.166   9.396   5.930
15476WAT      O46669   2.029   2.363   6.561
15476WAT     H146670   2.074   2.423   6.627
15476WAT     H246671   1.961   2.307   6.609
15477WAT      O46672   3.314   3.059   7.416
15477WAT     H146673   3.244   3.052   7.487
15477WAT     H246674   3.295   2.994   7.343
15478WAT      O46675   5.490   8.615   0.801
15478WAT     H146676   5.488   8.676   0.880
15478WAT     H246677   5.580   8.621   0.758
15479WAT      O46678   1.856   1.665   6.844
15479WAT     H146679   1.932   1.613   6.804
15479WAT     H246680   1.885   1.759   6.860
15480WAT      O46681   0.854   1.988   6.457
15480WAT     H146682   0.877   1.985   6.359
15480WAT     H246683   0.843   1.895   6.491
15481WAT      O46684   0.755   8.764   8.432
15481WAT     H146685   0.801   8.849   8.409
15481WAT     H246686   0.766   8.746   8.530
15482WAT      O46687   2.749   7.580   6.472
15482WAT     H146688   2.841   7.612   6.495
15482WAT     H246689   2.753   7.515   6.396
15483WAT      O46690   6.685   4.256   0.828
15483WAT     H146691   6.674   4.346   0.786
15483WAT     H246692   6.631   4.189   0.777
15484WAT      O46693   5.155   1.717   6.825
15484WAT     H146694   5.107   1.803   6.806
15484WAT     H246695   5.247   1.737   6.859
15485WAT      O46696   4.467   9.688   9.403
15485WAT     H146697   4.559   9.694   9.363
15485WAT     H246698   4.472   9.645   9.493
15486WAT      O46699   5.938   6.077   8.517
15486WAT     H146700   5.931   6.035   8.608
15486WAT     H246701   6.032   6.108   8.501
15487WAT      O46702   2.206   5.380   5.712
15487WAT     H146703   2.264   5.307   5.748
15487WAT     H246704   2.134   5.341   5.655
15488WAT      O46705   5.402   9.281   2.149
15488WAT     H146706   5.316   9.309   2.193
15488WAT     H246707   5.386   9.270   2.051
15489WAT      O46708   9.647   1.348   9.109
15489WAT     H146709   9.570   1.331   9.048
15489WAT     H246710   9.619   1.330   9.203
15490WAT      O46711   2.056   6.525   1.637
15490WAT     H146712   2.082   6.440   1.590
15490WAT     H246713   2.101   6.602   1.593
15491WAT      O46714   7.956   2.261   5.334
15491WAT     H146715   7.978   2.298   5.425
15491WAT     H246716   7.957   2.335   5.267
15492WAT      O46717   8.457   9.314   6.627
15492WAT     H146718   8.533   9.298   6.690
15492WAT     H246719   8.485   9.287   6.534
15493WAT      O46720   4.535   0.846   8.810
15493WAT     H146721   4.519   0.878   8.716
15493WAT     H246722   4.463   0.781   8.835
15494WAT      O46723   0.611   4.922   5.312
15494WAT     H146724   0.560   4.840   5.338
15494WAT     H246725   0.559   4.973   5.243
15495WAT      O46726   1.076   5.604   5.191
15495WAT     H146727   1.029   5.665   5.255
15495WAT     H246728   1.059   5.509   5.217
15496WAT      O46729   6.017   7.364   9.045
15496WAT     H146730   6.109   7.372   9.082
15496WAT     H246731   6.001   7.269   9.018
15497WAT      O46732   1.097   6.313   4.625
15497WAT     H146733   1.119   6.310   4.527
15497WAT     H246734   1.145   6.240   4.672
15498WAT      O46735   1.022   1.156   4.549
15498WAT     H146736   1.010   1.222   4.623
15498WAT     H246737   1.079   1.080   4.581
15499WAT      O46738   6.223   1.061   5.573
15499WAT     H146739   6.137   1.029   5.613
15499WAT     H246740   6.299   1.041   5.636
15500WAT      O46741   1.577   6.222   3.820
15500WAT     H146742   1.627   6.308   3.831
15500WAT     H246743   1.503   6.235   3.754
15501WAT      O46744   4.455   6.575   6.037
15501WAT     H146745   4.364   6.533   6.044
15501WAT     H246746   4.471   6.604   5.943
15502WAT      O46747   1.842   4.280   5.998
15502WAT     H146748   1.808   4.320   5.913
15502WAT     H246749   1.765   4.252   6.055
15503WAT      O46750   7.221   9.369   9.294
15503WAT     H146751   7.318   9.389   9.303
15503WAT     H246752   7.176   9.381   9.382
15504WAT      O46753   1.580   2.252   6.332
15504WAT     H146754   1.562   2.240   6.234
15504WAT     H246755   1.670   2.215   6.354
15505WAT      O46756   0.090   6.259   0.971
15505WAT     H146757   0.189   6.272   0.977
15505WAT     H246758   0.054   6.316   0.896
15506WAT      O46759   0.349   0.126   9.707
15506WAT     H146760   0.411   0.053   9.678
15506WAT     H246761   0.340   0.125   9.807
15507WAT      O46762   6.264   5.990   3.728
15507WAT     H146763   6.280   6.000   3.630
15507WAT     H246764   6.274   6.079   3.772
15508WAT      O46765   8.445   7.659   9.856
15508WAT     H146766   8.400   7.743   9.825
15508WAT     H246767   8.378   7.585   9.858
15509WAT      O46768   6.188   1.137   4.336
15509WAT     H146769   6.250   1.193   4.391
15509WAT     H246770   6.104   1.188   4.318
15510WAT      O46771   6.432   0.942   2.750
15510WAT     H146772   6.457   0.958   2.846
15510WAT     H246773   6.509   0.968   2.691
15511WAT      O46774   8.368   0.614   6.925
15511WAT     H146775   8.364   0.577   6.832
15511WAT     H246776   8.461   0.605   6.961
15512WAT      O46777   3.152   3.961   2.804
15512WAT     H146778   3.235   3.933   2.757
15512WAT     H246779   3.073   3.920   2.759
15513WAT      O46780   0.840   6.484   8.550
15513WAT     H146781   0.791   6.487   8.462
15513WAT     H246782   0.775   6.501   8.624
15514WAT      O46783   6.313   3.584   5.117
15514WAT     H146784   6.227   3.559   5.072
15514WAT     H246785   6.306   3.567   5.215
15515WAT      O46786   5.382   9.359   3.699
15515WAT     H146787   5.481   9.346   3.694
15515WAT     H246788   5.338   9.272   3.724
15516WAT      O46789   3.064   7.781   3.597
15516WAT     H146790   3.001   7.715   3.637
15516WAT     H246791   3.055   7.779   3.497
15517WAT      O46792   5.581   0.107   4.659
15517WAT     H146793   5.598   0.067   4.749
15517WAT     H246794   5.653   0.079   4.596
15518WAT      O46795   3.299   7.413   3.738
15518WAT     H146796   3.326   7.406   3.834
15518WAT     H246797   3.379   7.434   3.682
15519WAT      O46798   7.358   5.064   1.225
15519WAT     H146799   7.407   5.025   1.303
15519WAT     H246800   7.280   5.117   1.257
15520WAT      O46801   9.378   5.347   6.852
15520WAT     H146802   9.428   5.381   6.772
15520WAT     H246803   9.280   5.364   6.839
15521WAT      O46804   8.615   8.822   1.325
15521WAT     H146805   8.597   8.898   1.261
15521WAT     H246806   8.676   8.756   1.281
15522WAT      O46807   5.258   5.458   5.208
15522WAT     H146808   5.246   5.360   5.193
15522WAT     H246809   5.245   5.507   5.121
15523WAT      O46810   7.664   4.278   6.913
15523WAT     H146811   7.721   4.346   6.957
15523WAT     H246812   7.709   4.189   6.915
15524WAT      O46813   2.502   5.249   3.976
15524WAT     H146814   2.445   5.296   3.908
15524WAT     H246815   2.532   5.162   3.939
15525WAT      O46816   5.749   0.620   4.357
15525WAT     H146817   5.819   0.548   4.359
15525WAT     H246818   5.665   0.584   4.314
15526WAT      O46819   6.258   2.494   0.681
15526WAT     H146820   6.208   2.475   0.765
15526WAT     H246821   6.354   2.512   0.702
15527WAT      O46822   2.544   1.762   2.528
15527WAT     H146823   2.604   1.843   2.524
15527WAT     H246824   2.467   1.775   2.466
15528WAT      O46825   4.000   6.357   1.774
15528WAT     H146826   3.918   6.303   1.796
15528WAT     H246827   3.975   6.453   1.763
15529WAT      O46828   1.258   1.778   8.255
15529WAT     H146829   1.164   1.776   8.220
15529WAT     H246830   1.255   1.798   8.353
15530WAT      O46831   6.584   1.853   6.482
15530WAT     H146832   6.679   1.831   6.507
15530WAT     H246833   6.522   1.811   6.549
15531WAT      O46834   6.148   9.588   1.625
15531WAT     H146835   6.209   9.641   1.565
15531WAT     H246836   6.064   9.565   1.575
15532WAT      O46837   3.624   5.911   5.800
15532WAT     H146838   3.563   5.899   5.722
15532WAT     H246839   3.677   5.995   5.788
15533WAT      O46840   6.472   8.994   5.499
15533WAT     H146841   6.567   9.024   5.502
15533WAT     H246842   6.468   8.895   5.507
15534WAT      O46843   5.004   2.754   1.125
15534WAT     H146844   4.928   2.771   1.062
15534WAT     H246845   5.005   2.825   1.196
15535WAT      O46846   3.941   0.726   4.629
15535WAT     H146847   3.863   0.776   4.590
15535WAT     H246848   3.965   0.765   4.718
15536WAT      O46849   2.286   7.735   5.973
15536WAT     H146850   2.351   7.691   6.034
15536WAT     H246851   2.209   7.672   5.955
15537WAT      O46852   3.262   1.417   5.822
15537WAT     H146853   3.170   1.446   5.796
15537WAT     H246854   3.319   1.497   5.839
15538WAT      O46855   7.750   0.639   5.133
15538WAT     H146856   7.754   0.678   5.225
15538WAT     H246857   7.821   0.569   5.124
15539WAT      O46858   0.319   3.295   9.793
15539WAT     H146859   0.298   3.198   9.800
15539WAT     H246860   0.408   3.313   9.835
15540WAT      O46861   1.669   8.306   2.706
15540WAT     H146862   1.623   8.384   2.749
15540WAT     H246863   1.763   8.331   2.682
15541WAT      O46864   2.409   7.411   9.806
15541WAT     H146865   2.385   7.321   9.769
15541WAT     H246866   2.350   7.432   9.884
15542WAT      O46867   8.782   8.890   9.438
15542WAT     H146868   8.694   8.933   9.419
15542WAT     H246869   8.785   8.860   9.533
15543WAT      O46870   9.113   0.765   1.563
15543WAT     H146871   9.196   0.710   1.569
15543WAT     H246872   9.123   0.847   1.619
15544WAT      O46873   4.135   7.385   3.689
15544WAT     H146874   4.160   7.334   3.771
15544WAT     H246875   4.176   7.342   3.609
15545WAT      O46876   7.385   4.961   5.289
15545WAT     H146877   7.314   5.030   5.274
15545WAT     H246878   7.429   4.977   5.377
15546WAT      O46879   8.787   1.628   5.370
15546WAT     H146880   8.840   1.673   5.442
15546WAT     H246881   8.742   1.698   5.314
15547WAT      O46882   5.533   3.484   6.166
15547WAT     H146883   5.508   3.544   6.090
15547WAT     H246884   5.617   3.518   6.210
15548WAT      O46885   2.339   8.872   3.535
15548WAT     H146886   2.324   8.855   3.632
15548WAT     H246887   2.293   8.801   3.481
15549WAT      O46888   6.870   4.475   0.391
15549WAT     H146889   6.822   4.408   0.447
15549WAT     H246890   6.822   4.562   0.394
15550WAT      O46891   6.027   3.874   6.832
15550WAT     H146892   5.995   3.965   6.804
15550WAT     H246893   5.985   3.805   6.773
15551WAT      O46894   6.808   5.235   7.462
15551WAT     H146895   6.805   5.334   7.449
15551WAT     H246896   6.742   5.209   7.533
15552WAT      O46897   8.277   4.246   9.314
15552WAT     H146898   8.259   4.167   9.372
15552WAT     H246899   8.356   4.296   9.349
15553WAT      O46900   4.015   6.961   0.462
15553WAT     H146901   4.106   6.920   0.458
15553WAT     H246902   4.022   7.055   0.496
15554WAT      O46903   9.862   2.215   5.050
15554WAT     H146904   9.901   2.289   5.105
15554WAT     H246905   9.817   2.253   4.969
15555WAT      O46906   9.002   5.808   5.868
15555WAT     H146907   8.908   5.799   5.834
15555WAT     H246908   9.049   5.720   5.859
15556WAT      O46909   2.839   1.215   7.193
15556WAT     H146910   2.854   1.311   7.216
15556WAT     H246911   2.813   1.164   7.276
15557WAT      O46912   6.695   3.314   9.370
15557WAT     H146913   6.731   3.373   9.443
15557WAT     H246914   6.726   3.348   9.282
15558WAT      O46915   9.452   6.657   1.719
15558WAT     H146916   9.466   6.636   1.816
15558WAT     H246917   9.489   6.583   1.663
15559WAT      O46918   7.307   5.880   7.114
15559WAT     H146919   7.370   5.930   7.173
15559WAT     H246920   7.347   5.873   7.022
15560WAT      O46921   6.278   2.277   0.957
15560WAT     H146922   6.272   2.238   1.049
15560WAT     H246923   6.223   2.360   0.952
15561WAT      O46924   6.760   0.461   0.134
15561WAT     H146925   6.759   0.361   0.123
15561WAT     H246926   6.733   0.504   0.047
15562WAT      O46927   8.315   8.582   6.886
15562WAT     H146928   8.225   8.574   6.842
15562WAT     H246929   8.314   8.530   6.971
15563WAT      O46930   2.180   5.193   3.915
15563WAT     H146931   2.192   5.292   3.924
15563WAT     H246932   2.244   5.157   3.848
15564WAT      O46933   6.182   0.675   9.094
15564WAT     H146934   6.083   0.665   9.100
15564WAT     H246935   6.226   0.587   9.109
15565WAT      O46936   3.850   7.367   5.336
15565WAT     H146937   3.786   7.355   5.412
15565WAT     H246938   3.896   7.281   5.317
15566WAT      O46939   5.493   5.934   3.445
15566WAT     H146940   5.527   5.958   3.354
15566WAT     H246941   5.393   5.927   3.443
15567WAT      O46942   7.704   1.925   4.261
15567WAT     H146943   7.631   1.917   4.329
15567WAT     H246944   7.665   1.922   4.169
15568WAT      O46945   9.209   7.773   2.857
15568WAT     H146946   9.301   7.742   2.882
15568WAT     H246947   9.150   7.772   2.938
15569WAT      O46948   6.846   5.337   0.482
15569WAT     H146949   6.854   5.435   0.462
15569WAT     H246950   6.928   5.306   0.530
15570WAT      O46951   4.118   4.204   9.603
15570WAT     H146952   4.140   4.287   9.552
15570WAT     H246953   4.193   4.183   9.666
15571WAT      O46954   4.388   4.450   6.518
15571WAT     H146955   4.312   4.385   6.517
15571WAT     H246956   4.421   4.465   6.425
15572WAT      O46957   7.135   7.995   0.607
15572WAT     H146958   7.079   8.078   0.610
15572WAT     H246959   7.212   8.004   0.671
15573WAT      O46960   4.307   6.678   3.779
15573WAT     H146961   4.324   6.583   3.754
15573WAT     H246962   4.392   6.731   3.766
15574WAT      O46963   1.832   0.250   8.737
15574WAT     H146964   1.894   0.272   8.813
15574WAT     H246965   1.833   0.151   8.722
15575WAT      O46966   7.320   8.628   6.944
15575WAT     H146967   7.352   8.716   6.909
15575WAT     H246968   7.312   8.564   6.868
15576WAT      O46969   6.039   6.866   0.352
15576WAT     H146970   6.004   6.772   0.351
15576WAT     H246971   6.117   6.872   0.414
15577WAT      O46972   4.548   0.119   3.192
15577WAT     H146973   4.452   0.143   3.176
15577WAT     H246974   4.603   0.148   3.114
15578WAT      O46975   0.956   5.786   0.049
15578WAT     H146976   0.886   5.727   0.010
15578WAT     H246977   1.040   5.779  -0.004
15579WAT      O46978   1.270   2.377   5.857
15579WAT     H146979   1.240   2.315   5.929
15579WAT     H246980   1.335   2.330   5.797
15580WAT      O46981   1.333   9.639   9.544
15580WAT     H146982   1.364   9.544   9.551
15580WAT     H246983   1.397   9.691   9.489
15581WAT      O46984   9.164   1.123   3.489
15581WAT     H146985   9.090   1.067   3.527
15581WAT     H246986   9.251   1.092   3.527
15582WAT      O46987   1.247   5.393   0.556
15582WAT     H146988   1.244   5.312   0.498
15582WAT     H246989   1.338   5.400   0.598
15583WAT      O46990   1.623   7.034   6.802
15583WAT     H146991   1.673   7.120   6.806
15583WAT     H246992   1.537   7.043   6.854
15584WAT      O46993   0.833   1.374   7.740
15584WAT     H146994   0.762   1.360   7.671
15584WAT     H246995   0.844   1.290   7.794
15585WAT      O46996   3.838   5.541   7.543
15585WAT     H146997   3.743   5.535   7.573
15585WAT     H246998   3.899   5.538   7.622
15586WAT      O46999   8.097   1.827   6.013
15586WAT     H147000   8.178   1.802   6.065
15586WAT     H247001   8.020   1.771   6.042
15587WAT      O47002   7.141   8.239   6.632
15587WAT     H147003   7.189   8.195   6.556
15587WAT     H247004   7.046   8.210   6.633
15588WAT      O47005   0.291   6.581   0.195
15588WAT     H147006   0.248   6.550   0.111
15588WAT     H247007   0.373   6.634   0.173
15589WAT      O47008   8.752   2.471   5.471
15589WAT     H147009   8.663   2.490   5.513
15589WAT     H247010   8.769   2.537   5.398
15590WAT      O47011   0.039   8.002   7.691
15590WAT     H147012   0.057   8.073   7.760
15590WAT     H247013   0.063   7.913   7.729
15591WAT      O47014   9.786   3.248   2.710
15591WAT     H147015   9.869   3.291   2.744
15591WAT     H247016   9.708   3.278   2.765
15592WAT      O47017   1.701   6.849   3.694
15592WAT     H147018   1.609   6.886   3.702
15592WAT     H247019   1.702   6.774   3.628
15593WAT      O47020   1.910   2.932   7.684
15593WAT     H147021   1.870   2.909   7.772
15593WAT     H247022   1.945   3.025   7.685
15594WAT      O47023   6.984   1.211   9.298
15594WAT     H147024   7.038   1.127   9.295
15594WAT     H247025   6.989   1.257   9.210
15595WAT      O47026   3.358   7.548   2.138
15595WAT     H147027   3.261   7.532   2.157
15595WAT     H247028   3.367   7.616   2.065
15596WAT      O47029   0.377   0.583   8.407
15596WAT     H147030   0.370   0.645   8.329
15596WAT     H247031   0.299   0.597   8.468
15597WAT      O47032   4.455   6.187   5.326
15597WAT     H147033   4.411   6.115   5.273
15597WAT     H247034   4.433   6.175   5.423
15598WAT      O47035   3.627   1.447   3.986
15598WAT     H147036   3.588   1.384   3.919
15598WAT     H247037   3.554   1.481   4.046
15599WAT      O47038   4.285   1.750   1.713
15599WAT     H147039   4.203   1.789   1.671
15599WAT     H247040   4.313   1.806   1.791
15600WAT      O47041   8.063   1.837   1.897
15600WAT     H147042   7.965   1.821   1.887
15600WAT     H247043   8.092   1.906   1.830
15601WAT      O47044   1.657   1.775   1.327
15601WAT     H147045   1.606   1.800   1.245
15601WAT     H247046   1.621   1.826   1.405
15602WAT      O47047   3.232   7.809   3.818
15602WAT     H147048   3.183   7.855   3.892
15602WAT     H247049   3.169   7.791   3.742
15603WAT      O47050   6.148   5.934   0.927
15603WAT     H147051   6.133   5.845   0.969
15603WAT     H247052   6.071   5.956   0.867
15604WAT      O47053   2.227   6.613   3.231
15604WAT     H147054   2.234   6.713   3.230
15604WAT     H247055   2.213   6.580   3.138
15605WAT      O47056   7.417   6.681   7.804
15605WAT     H147057   7.380   6.708   7.716
15605WAT     H247058   7.399   6.583   7.819
15606WAT      O47059   2.779   1.944   4.050
15606WAT     H147060   2.812   2.036   4.071
15606WAT     H247061   2.796   1.923   3.954
15607WAT      O47062   8.158   6.011   7.456
15607WAT     H147063   8.157   5.919   7.494
15607WAT     H247064   8.161   6.078   7.530
15608WAT      O47065   4.788   7.458   7.640
15608WAT     H147066   4.796   7.391   7.714
15608WAT     H247067   4.742   7.416   7.562
15609WAT      O47068   7.416   8.399   3.093
15609WAT     H147069   7.414   8.376   2.996
15609WAT     H247070   7.332   8.447   3.118
15610WAT      O47071   4.384   6.570   7.175
15610WAT     H147072   4.442   6.642   7.135
15610WAT     H247073   4.292   6.606   7.189
15611WAT      O47074   6.589   5.778   8.330
15611WAT     H147075   6.652   5.832   8.274
15611WAT     H247076   6.509   5.753   8.275
15612WAT      O47077   2.216   0.336   3.288
15612WAT     H147078   2.267   0.284   3.357
15612WAT     H247079   2.252   0.314   3.197
15613WAT      O47080   4.895   3.794   7.027
15613WAT     H147081   4.844   3.723   7.077
15613WAT     H247082   4.879   3.882   7.070
15614WAT      O47083   4.794   0.206   9.072
15614WAT     H147084   4.869   0.266   9.099
15614WAT     H247085   4.716   0.261   9.040
15615WAT      O47086   6.888   3.728   5.197
15615WAT     H147087   6.883   3.766   5.289
15615WAT     H247088   6.964   3.770   5.147
15616WAT      O47089   3.680   0.699   0.358
15616WAT     H147090   3.700   0.602   0.345
15616WAT     H247091   3.621   0.710   0.438
15617WAT      O47092   2.793   7.354   2.834
15617WAT     H147093   2.780   7.433   2.893
15617WAT     H247094   2.877   7.365   2.781
15618WAT      O47095   3.308   5.197   8.790
15618WAT     H147096   3.376   5.192   8.716
15618WAT     H247097   3.272   5.106   8.808
15619WAT      O47098   1.882   4.402   2.892
15619WAT     H147099   1.819   4.432   2.821
15619WAT     H247100   1.836   4.337   2.953
15620WAT      O47101   6.607   5.160   2.963
15620WAT     H147102   6.641   5.201   2.878
15620WAT     H247103   6.594   5.232   3.031
15621WAT      O47104   1.476   8.948   2.547
15621WAT     H147105   1.428   9.021   2.499
15621WAT     H247106   1.575   8.961   2.537
15622WAT      O47107   6.555   7.588   1.183
15622WAT     H147108   6.598   7.652   1.119
15622WAT     H247109   6.486   7.535   1.134
15623WAT      O47110   2.650   9.160   3.467
15623WAT     H147111   2.610   9.152   3.376
15623WAT     H247112   2.670   9.069   3.503
15624WAT      O47113   6.463   0.758   8.066
15624WAT     H147114   6.413   0.836   8.103
15624WAT     H247115   6.475   0.689   8.137
15625WAT      O47116   5.345   8.312   7.806
15625WAT     H147117   5.301   8.340   7.721
15625WAT     H247118   5.328   8.215   7.823
15626WAT      O47119   8.575   9.078   9.425
15626WAT     H147120   8.501   9.078   9.358
15626WAT     H247121   8.618   9.168   9.427
15627WAT      O47122   5.036   9.791   1.013
15627WAT     H147123   4.946   9.764   0.977
15627WAT     H247124   5.078   9.856   0.950
15628WAT      O47125   8.727   6.629   4.828
15628WAT     H147126   8.778   6.710   4.799
15628WAT     H247127   8.657   6.608   4.760
15629WAT      O47128   2.950   0.056   6.557
15629WAT     H147129   2.885   0.089   6.625
15629WAT     H247130   2.916   0.075   6.465
15630WAT      O47131   0.926   9.709   7.088
15630WAT     H147132   0.849   9.700   7.025
15630WAT     H247133   0.961   9.803   7.084
15631WAT      O47134   1.662   8.142   3.171
15631WAT     H147135   1.594   8.069   3.162
15631WAT     H247136   1.624   8.228   3.137
15632WAT      O47137   5.162   3.400   2.150
15632WAT     H147138   5.202   3.328   2.094
15632WAT     H247139   5.234   3.446   2.202
15633WAT      O47140   9.739   8.860   4.498
15633WAT     H147141   9.724   8.782   4.558
15633WAT     H247142   9.751   8.829   4.404
15634WAT      O47143   6.577   8.360   5.060
15634WAT     H147144   6.626   8.447   5.062
15634WAT     H247145   6.624   8.297   4.999
15635WAT      O47146   0.404   8.634   8.061
15635WAT     H147147   0.428   8.647   7.965
15635WAT     H247148   0.485   8.646   8.119
15636WAT      O47149   0.595   6.716   4.383
15636WAT     H147150   0.514   6.744   4.436
15636WAT     H247151   0.579   6.734   4.286
15637WAT      O47152   0.141   0.050   5.603
15637WAT     H147153   0.164  -0.032   5.551
15637WAT     H247154   0.224   0.094   5.637
15638WAT      O47155   8.981   3.851   2.634
15638WAT     H147156   9.020   3.940   2.658
15638WAT     H247157   8.900   3.863   2.578
15639WAT      O47158   8.847   4.244   8.860
15639WAT     H147159   8.768   4.288   8.903
15639WAT     H247160   8.869   4.160   8.910
15640WAT      O47161   1.300   6.368   3.641
15640WAT     H147162   1.341   6.435   3.704
15640WAT     H247163   1.356   6.363   3.558
15641WAT      O47164   2.527   7.830   8.935
15641WAT     H147165   2.538   7.819   9.034
15641WAT     H247166   2.496   7.923   8.915
15642WAT      O47167   2.930   7.691   5.754
15642WAT     H147168   2.908   7.601   5.718
15642WAT     H247169   2.993   7.737   5.691
15643WAT      O47170   5.611   5.168   1.241
15643WAT     H147171   5.595   5.235   1.168
15643WAT     H247172   5.691   5.195   1.294
15644WAT      O47173   9.303   8.623   3.469
15644WAT     H147174   9.296   8.582   3.378
15644WAT     H247175   9.392   8.600   3.509
15645WAT      O47176   1.196   3.087   5.165
15645WAT     H147177   1.123   3.093   5.097
15645WAT     H247178   1.265   3.022   5.134
15646WAT      O47179   3.779   8.852   1.938
15646WAT     H147180   3.848   8.925   1.943
15646WAT     H247181   3.806   8.777   1.998
15647WAT      O47182   7.468   5.306   7.110
15647WAT     H147183   7.487   5.394   7.065
15647WAT     H247184   7.544   5.243   7.093
15648WAT      O47185   4.707   9.141   7.592
15648WAT     H147186   4.713   9.199   7.673
15648WAT     H247187   4.612   9.112   7.579
15649WAT      O47188   7.298   8.047   5.905
15649WAT     H147189   7.273   8.023   5.811
15649WAT     H247190   7.279   8.144   5.920
15650WAT      O47191   4.127   0.213   5.873
15650WAT     H147192   4.104   0.277   5.801
15650WAT     H247193   4.196   0.148   5.840
15651WAT      O47194   5.426   5.617   1.042
15651WAT     H147195   5.463   5.684   0.977
15651WAT     H247196   5.328   5.609   1.029
15652WAT      O47197   6.848   4.111   5.668
15652WAT     H147198   6.749   4.112   5.657
15652WAT     H247199   6.878   4.018   5.689
15653WAT      O47200   3.335   8.717   0.546
15653WAT     H147201   3.292   8.643   0.493
15653WAT     H247202   3.275   8.797   0.544
15654WAT      O47203   8.840   3.708   2.133
15654WAT     H147204   8.888   3.635   2.083
15654WAT     H247205   8.887   3.724   2.220
15655WAT      O47206   4.326   5.461   9.450
15655WAT     H147207   4.264   5.484   9.524
15655WAT     H247208   4.420   5.486   9.476
15656WAT      O47209   8.612   7.174   4.300
15656WAT     H147210   8.647   7.107   4.234
15656WAT     H247211   8.523   7.208   4.269
15657WAT      O47212   6.475   5.500   9.312
15657WAT     H147213   6.403   5.435   9.336
15657WAT     H247214   6.555   5.450   9.278
15658WAT      O47215   8.258   3.454   2.301
15658WAT     H147216   8.250   3.400   2.385
15658WAT     H247217   8.290   3.546   2.324
15659WAT      O47218   2.975   3.334   8.635
15659WAT     H147219   2.958   3.388   8.718
15659WAT     H247220   3.073   3.327   8.618
15660WAT      O47221   2.063   3.716   6.407
15660WAT     H147222   2.000   3.642   6.382
15660WAT     H247223   2.157   3.685   6.395
15661WAT      O47224   8.329   4.070   9.876
15661WAT     H147225   8.233   4.097   9.879
15661WAT     H247226   8.370   4.085   9.966
15662WAT      O47227   0.480   6.509   5.400
15662WAT     H147228   0.439   6.432   5.351
15662WAT     H247229   0.518   6.478   5.487
15663WAT      O47230   4.563   7.474   0.161
15663WAT     H147231   4.521   7.560   0.132
15663WAT     H247232   4.500   7.399   0.142
15664WAT      O47233   5.300   8.949   4.257
15664WAT     H147234   5.275   8.881   4.189
15664WAT     H247235   5.373   9.007   4.221
15665WAT      O47236   3.482   0.822   0.134
15665WAT     H147237   3.498   0.736   0.182
15665WAT     H247238   3.452   0.802   0.040
15666WAT      O47239   5.966   7.399   2.634
15666WAT     H147240   6.031   7.359   2.570
15666WAT     H247241   5.921   7.477   2.591
15667WAT      O47242   4.407   8.430   7.366
15667WAT     H147243   4.452   8.405   7.280
15667WAT     H247244   4.317   8.387   7.369
15668WAT      O47245   2.253   3.491   5.810
15668WAT     H147246   2.318   3.538   5.750
15668WAT     H247247   2.208   3.558   5.869
15669WAT      O47248   8.361   5.312   9.461
15669WAT     H147249   8.439   5.265   9.504
15669WAT     H247250   8.302   5.350   9.532
15670WAT      O47251   1.550   3.839   7.795
15670WAT     H147252   1.508   3.788   7.870
15670WAT     H247253   1.599   3.775   7.735
15671WAT      O47254   8.923   1.388   5.880
15671WAT     H147255   8.937   1.293   5.907
15671WAT     H247256   8.963   1.449   5.948
15672WAT      O47257   7.371   4.713   3.266
15672WAT     H147258   7.329   4.771   3.196
15672WAT     H247259   7.419   4.770   3.333
15673WAT      O47260   5.239   1.358   5.949
15673WAT     H147261   5.289   1.311   5.876
15673WAT     H247262   5.151   1.312   5.963
15674WAT      O47263   4.134   7.272   7.883
15674WAT     H147264   4.087   7.201   7.829
15674WAT     H247265   4.198   7.321   7.824
15675WAT      O47266   1.519   5.338   0.603
15675WAT     H147267   1.588   5.378   0.663
15675WAT     H247268   1.543   5.356   0.508
15676WAT      O47269   0.730   0.923   6.286
15676WAT     H147270   0.742   1.004   6.344
15676WAT     H247271   0.634   0.915   6.259
15677WAT      O47272   0.820   0.658   6.867
15677WAT     H147273   0.820   0.691   6.773
15677WAT     H247274   0.779   0.727   6.927
15678WAT      O47275   4.745   2.447   7.220
15678WAT     H147276   4.650   2.427   7.198
15678WAT     H247277   4.749   2.516   7.292
15679WAT      O47278   1.781   0.105   0.526
15679WAT     H147279   1.781   0.204   0.515
15679WAT     H247280   1.696   0.075   0.568
15680WAT      O47281   4.165   6.974   3.423
15680WAT     H147282   4.180   7.042   3.352
15680WAT     H247283   4.112   6.897   3.386
15681WAT      O47284   8.854   9.428   8.429
15681WAT     H147285   8.789   9.429   8.353
15681WAT     H247286   8.813   9.379   8.506
15682WAT      O47287   4.815   4.475   6.047
15682WAT     H147288   4.854   4.474   5.955
15682WAT     H247289   4.820   4.568   6.084
15683WAT      O47290   8.936   2.384   4.623
15683WAT     H147291   8.922   2.422   4.532
15683WAT     H247292   9.020   2.421   4.662
15684WAT      O47293   3.734   6.740   0.144
15684WAT     H147294   3.796   6.819   0.143
15684WAT     H247295   3.748   6.685   0.062
15685WAT      O47296   5.567   8.360   1.898
15685WAT     H147297   5.610   8.368   1.808
15685WAT     H247298   5.470   8.339   1.887
15686WAT      O47299   2.235   5.990   1.143
15686WAT     H147300   2.274   5.903   1.111
15686WAT     H247301   2.136   5.990   1.127
15687WAT      O47302   2.394   9.290   9.185
15687WAT     H147303   2.484   9.290   9.227
15687WAT     H247304   2.401   9.324   9.091
15688WAT      O47305   9.374   4.902   5.876
15688WAT     H147306   9.409   4.861   5.960
15688WAT     H247307   9.297   4.848   5.842
15689WAT      O47308   9.189   9.719   5.998
15689WAT     H147309   9.130   9.796   6.023
15689WAT     H247310   9.160   9.637   6.049
15690WAT      O47311   4.853   2.988   4.817
15690WAT     H147312   4.900   3.073   4.794
15690WAT     H247313   4.914   2.929   4.870
15691WAT      O47314   9.873   8.242   4.156
15691WAT     H147315   9.930   8.175   4.204
15691WAT     H247316   9.921   8.330   4.153
15692WAT      O47317   2.238   2.223   6.417
15692WAT     H147318   2.279   2.298   6.367
15692WAT     H247319   2.149   2.252   6.454
15693WAT      O47320   2.563   3.911   7.472
15693WAT     H147321   2.660   3.925   7.450
15693WAT     H247322   2.533   3.982   7.536
15694WAT      O47323   3.406   2.516   1.903
15694WAT     H147324   3.385   2.525   1.805
15694WAT     H247325   3.453   2.429   1.918
15695WAT      O47326   6.589   9.474   0.595
15695WAT     H147327   6.592   9.547   0.664
15695WAT     H247328   6.587   9.385   0.641
15696WAT      O47329   5.518   9.633   9.183
15696WAT     H147330   5.447   9.639   9.253
15696WAT     H247331   5.604   9.669   9.219
15697WAT      O47332   7.034   8.621   3.947
15697WAT     H147333   7.080   8.532   3.943
15697WAT     H247334   7.102   8.693   3.961
15698WAT      O47335   4.508   9.561   2.177
15698WAT     H147336   4.537   9.505   2.101
15698WAT     H247337   4.530   9.515   2.263
15699WAT      O47338   3.552   8.856   0.470
15699WAT     H147339   3.614   8.853   0.549
15699WAT     H247340   3.459   8.833   0.499
15700WAT      O47341   6.189   4.459   1.991
15700WAT     H147342   6.158   4.418   1.905
15700WAT     H247343   6.114   4.460   2.057
15701WAT      O47344   6.132   4.491   7.547
15701WAT     H147345   6.191   4.440   7.484
15701WAT     H247346   6.084   4.426   7.607
15702WAT      O47347   8.589   0.133   0.107
15702WAT     H147348   8.496   0.120   0.141
15702WAT     H247349   8.630   0.044   0.084
15703WAT      O47350   2.712   9.478   7.955
15703WAT     H147351   2.714   9.380   7.939
15703WAT     H247352   2.617   9.508   7.964
15704WAT      O47353   5.553   9.657   2.964
15704WAT     H147354   5.610   9.676   2.884
15704WAT     H247355   5.611   9.637   3.043
15705WAT      O47356   6.330   6.164   9.799
15705WAT     H147357   6.327   6.189   9.702
15705WAT     H247358   6.272   6.084   9.815
15706WAT      O47359   9.731   9.605   6.547
15706WAT     H147360   9.745   9.586   6.450
15706WAT     H247361   9.753   9.524   6.601
15707WAT      O47362   7.893   5.146   3.869
15707WAT     H147363   7.966   5.196   3.822
15707WAT     H247364   7.842   5.091   3.803
15708WAT      O47365   3.308   6.963   4.047
15708WAT     H147366   3.344   6.870   4.053
15708WAT     H247367   3.366   7.019   3.988
15709WAT      O47368   7.269   8.982   5.562
15709WAT     H147369   7.250   8.965   5.465
15709WAT     H247370   7.197   8.940   5.618
15710WAT      O47371   5.256   8.056   5.168
15710WAT     H147372   5.266   7.993   5.245
15710WAT     H247373   5.342   8.106   5.154
15711WAT      O47374   5.843   2.741   3.559
15711WAT     H147375   5.799   2.735   3.649
15711WAT     H247376   5.838   2.835   3.526
15712WAT      O47377   1.263   7.740   8.694
15712WAT     H147378   1.348   7.772   8.735
15712WAT     H247379   1.232   7.658   8.742
15713WAT      O47380   9.264   7.898   3.547
15713WAT     H147381   9.267   7.900   3.447
15713WAT     H247382   9.168   7.898   3.577
15714WAT      O47383   6.306   1.937   2.609
15714WAT     H147384   6.255   1.988   2.679
15714WAT     H247385   6.345   1.855   2.650
15715WAT      O47386   9.353   3.023   5.806
15715WAT     H147387   9.270   2.973   5.831
15715WAT     H247388   9.406   3.043   5.889
15716WAT      O47389   0.292   7.846   3.803
15716WAT     H147390   0.370   7.842   3.866
15716WAT     H247391   0.296   7.932   3.752
15717WAT      O47392   8.464   8.854   4.683
15717WAT     H147393   8.533   8.889   4.746
15717WAT     H247394   8.449   8.757   4.699
15718WAT      O47395   8.838   6.499   2.410
15718WAT     H147396   8.884   6.432   2.469
15718WAT     H247397   8.785   6.562   2.467
15719WAT      O47398   8.075   7.271   8.806
15719WAT     H147399   8.170   7.282   8.835
15719WAT     H247400   8.072   7.226   8.717
15720WAT      O47401   3.286   2.045   4.922
15720WAT     H147402   3.379   2.071   4.949
15720WAT     H247403   3.225   2.052   5.002
15721WAT      O47404   3.290   2.997   3.917
15721WAT     H147405   3.276   2.904   3.882
15721WAT     H247406   3.331   2.992   4.008
15722WAT      O47407   9.574   3.862   3.196
15722WAT     H147408   9.542   3.833   3.286
15722WAT     H247409   9.552   3.791   3.129
15723WAT      O47410   4.816   0.622   4.560
15723WAT     H147411   4.770   0.710   4.574
15723WAT     H247412   4.844   0.585   4.649
15724WAT      O47413   0.802   8.013   7.162
15724WAT     H147414   0.850   7.930   7.192
15724WAT     H247415   0.750   7.993   7.079
15725WAT      O47416   4.822   2.367   1.158
15725WAT     H147417   4.791   2.382   1.252
15725WAT     H247418   4.919   2.390   1.151
15726WAT      O47419   4.803   5.747   4.911
15726WAT     H147420   4.795   5.845   4.892
15726WAT     H247421   4.863   5.733   4.990
15727WAT      O47422   1.732   4.522   7.105
15727WAT     H147423   1.820   4.508   7.061
15727WAT     H247424   1.746   4.540   7.202
15728WAT      O47425   7.405   6.172   6.766
15728WAT     H147426   7.309   6.178   6.792
15728WAT     H247427   7.453   6.109   6.826
15729WAT      O47428   9.232   3.790   8.559
15729WAT     H147429   9.230   3.875   8.613
15729WAT     H247430   9.267   3.716   8.616
15730WAT      O47431   2.658   0.668   2.863
15730WAT     H147432   2.617   0.581   2.891
15730WAT     H247433   2.628   0.690   2.770
15731WAT      O47434   4.290   1.577   9.745
15731WAT     H147435   4.341   1.508   9.696
15731WAT     H247436   4.302   1.666   9.701
15732WAT      O47437   8.147   0.762   5.347
15732WAT     H147438   8.172   0.677   5.300
15732WAT     H247439   8.208   0.836   5.318
15733WAT      O47440   8.905   8.775   0.073
15733WAT     H147441   8.945   8.742  -0.012
15733WAT     H247442   8.965   8.751   0.149
15734WAT      O47443   4.510   5.528   6.228
15734WAT     H147444   4.606   5.511   6.250
15734WAT     H247445   4.469   5.586   6.299
15735WAT      O47446   9.046   9.239   3.385
15735WAT     H147447   9.116   9.168   3.393
15735WAT     H247448   9.031   9.260   3.288
15736WAT      O47449   2.578   8.716   5.190
15736WAT     H147450   2.547   8.808   5.215
15736WAT     H247451   2.623   8.674   5.268
15737WAT      O47452   1.674   5.910   7.219
15737WAT     H147453   1.658   5.992   7.165
15737WAT     H247454   1.682   5.831   7.158
15738WAT      O47455   2.324   3.968   6.652
15738WAT     H147456   2.297   4.040   6.716
15738WAT     H247457   2.270   3.886   6.670
15739WAT      O47458   2.109   8.068   8.924
15739WAT     H147459   2.030   8.021   8.885
15739WAT     H247460   2.146   8.133   8.857
15740WAT      O47461   6.030   8.488   3.743
15740WAT     H147462   6.053   8.393   3.722
15740WAT     H247463   6.060   8.510   3.836
15741WAT      O47464   8.402   8.158   2.415
15741WAT     H147465   8.329   8.183   2.478
15741WAT     H247466   8.481   8.218   2.431
15742WAT      O47467   3.643   5.147   6.604
15742WAT     H147468   3.601   5.120   6.517
15742WAT     H247469   3.576   5.142   6.677
15743WAT      O47470   0.566   3.402   4.539
15743WAT     H147471   0.566   3.455   4.454
15743WAT     H247472   0.627   3.445   4.605
15744WAT      O47473   4.326   0.436   6.092
15744WAT     H147474   4.297   0.473   6.180
15744WAT     H247475   4.299   0.340   6.085
15745WAT      O47476   9.373   2.399   0.613
15745WAT     H147477   9.422   2.366   0.532
15745WAT     H247478   9.381   2.499   0.618
15746WAT      O47479   7.491   6.255   0.532
15746WAT     H147480   7.426   6.182   0.513
15746WAT     H247481   7.561   6.222   0.596
15747WAT      O47482   0.052   4.997   6.293
15747WAT     H147483  -0.009   5.062   6.248
15747WAT     H247484   0.147   5.025   6.279
15748WAT      O47485   4.975   9.787   4.286
15748WAT     H147486   4.889   9.812   4.241
15748WAT     H247487   5.047   9.851   4.258
15749WAT      O47488   2.844   7.987   8.054
15749WAT     H147489   2.856   7.891   8.027
15749WAT     H247490   2.868   8.047   7.977
15750WAT      O47491   8.038   3.448   0.808
15750WAT     H147492   8.117   3.465   0.866
15750WAT     H247493   8.009   3.533   0.765
15751WAT      O47494   0.083   0.010   3.627
15751WAT     H147495   0.143   0.075   3.674
15751WAT     H247496  -0.012   0.027   3.654
15752WAT      O47497   6.384   8.971   0.891
15752WAT     H147498   6.388   8.876   0.921
15752WAT     H247499   6.348   8.976   0.798
15753WAT      O47500   9.709   1.826   8.448
15753WAT     H147501   9.766   1.907   8.431
15753WAT     H247502   9.616   1.844   8.417
15754WAT      O47503   4.589   7.699   5.797
15754WAT     H147504   4.584   7.694   5.897
15754WAT     H247505   4.579   7.608   5.759
15755WAT      O47506   0.035   9.273   8.833
15755WAT     H147507   0.083   9.344   8.781
15755WAT     H247508   0.101   9.206   8.867
15756WAT      O47509   3.244   5.504   9.673
15756WAT     H147510   3.312   5.433   9.693
15756WAT     H247511   3.278   5.592   9.705
15757WAT      O47512   8.072   2.369   7.586
15757WAT     H147513   8.108   2.462   7.597
15757WAT     H247514   8.000   2.370   7.517
15758WAT      O47515   9.240   0.185   2.103
15758WAT     H147516   9.260   0.108   2.163
15758WAT     H247517   9.162   0.162   2.044
15759WAT      O47518   1.515   0.896   1.763
15759WAT     H147519   1.423   0.920   1.795
15759WAT     H247520   1.516   0.801   1.731
15760WAT      O47521   1.688   1.802   5.617
15760WAT     H147522   1.733   1.713   5.614
15760WAT     H247523   1.647   1.814   5.708
15761WAT      O47524   7.996   7.740   3.494
15761WAT     H147525   7.948   7.818   3.455
15761WAT     H247526   8.094   7.749   3.477
15762WAT      O47527   8.305   5.431   6.314
15762WAT     H147528   8.297   5.380   6.228
15762WAT     H247529   8.218   5.476   6.334
15763WAT      O47530   7.113   7.787   6.810
15763WAT     H147531   7.147   7.730   6.735
15763WAT     H247532   7.033   7.839   6.779
15764WAT      O47533   1.131   7.412   5.455
15764WAT     H147534   1.177   7.424   5.543
15764WAT     H247535   1.072   7.331   5.459
15765WAT      O47536   3.783   6.387   7.247
15765WAT     H147537   3.853   6.425   7.307
15765WAT     H247538   3.795   6.424   7.154
15766WAT      O47539   6.787   5.649   5.465
15766WAT     H147540   6.853   5.720   5.493
15766WAT     H247541   6.728   5.627   5.542
15767WAT      O47542   4.428   8.725   6.500
15767WAT     H147543   4.513   8.744   6.549
15767WAT     H247544   4.431   8.767   6.410
15768WAT      O47545   4.618   0.065   3.444
15768WAT     H147546   4.678   0.138   3.477
15768WAT     H247547   4.580   0.091   3.355
15769WAT      O47548   0.291   1.311   1.869
15769WAT     H147549   0.381   1.331   1.907
15769WAT     H247550   0.273   1.212   1.877
15770WAT      O47551   4.723   7.975   8.674
15770WAT     H147552   4.635   8.020   8.658
15770WAT     H247553   4.795   8.022   8.622
15771WAT      O47554   6.466   9.611   4.393
15771WAT     H147555   6.450   9.514   4.411
15771WAT     H247556   6.379   9.659   4.387
15772WAT      O47557   4.008   6.796   1.897
15772WAT     H147558   3.985   6.882   1.853
15772WAT     H247559   4.101   6.769   1.873
15773WAT      O47560   6.354   3.540   9.592
15773WAT     H147561   6.267   3.526   9.545
15773WAT     H247562   6.339   3.599   9.672
15774WAT      O47563   0.110   0.498   1.268
15774WAT     H147564   0.156   0.411   1.286
15774WAT     H247565   0.021   0.481   1.225
15775WAT      O47566   7.913   6.068   3.880
15775WAT     H147567   7.920   6.159   3.838
15775WAT     H247568   7.990   6.053   3.941
15776WAT      O47569   5.832   2.582   5.679
15776WAT     H147570   5.775   2.661   5.703
15776WAT     H247571   5.894   2.607   5.605
15777WAT      O47572   2.971   5.865   0.611
15777WAT     H147573   2.896   5.904   0.664
15777WAT     H247574   3.025   5.805   0.669
15778WAT      O47575   1.819   6.770   4.243
15778WAT     H147576   1.884   6.799   4.173
15778WAT     H247577   1.821   6.835   4.319
15779WAT      O47578   1.574   5.395   7.953
15779WAT     H147579   1.656   5.402   7.897
15779WAT     H247580   1.537   5.302   7.948
15780WAT      O47581   9.214   6.997   2.832
15780WAT     H147582   9.227   6.926   2.764
15780WAT     H247583   9.124   6.988   2.874
15781WAT      O47584   4.674   1.024   5.772
15781WAT     H147585   4.712   1.051   5.684
15781WAT     H247586   4.743   0.975   5.825
15782WAT      O47587   3.096   7.366   9.028
15782WAT     H147588   3.172   7.425   9.000
15782WAT     H247589   3.016   7.386   8.972
15783WAT      O47590   4.044   7.875   0.103
15783WAT     H147591   4.098   7.802   0.063
15783WAT     H247592   4.018   7.851   0.196
15784WAT      O47593   4.277   9.270   9.464
15784WAT     H147594   4.278   9.315   9.553
15784WAT     H247595   4.365   9.283   9.419
15785WAT      O47596   2.541   5.573   2.062
15785WAT     H147597   2.587   5.488   2.086
15785WAT     H247598   2.444   5.556   2.045
15786WAT      O47599   0.124   8.878   1.169
15786WAT     H147600   0.079   8.967   1.180
15786WAT     H247601   0.125   8.831   1.257
15787WAT      O47602   7.439   2.773   8.361
15787WAT     H147603   7.422   2.872   8.354
15787WAT     H247604   7.515   2.748   8.301
15788WAT      O47605   7.749   3.079   1.881
15788WAT     H147606   7.791   2.990   1.863
15788WAT     H247607   7.683   3.069   1.956
15789WAT      O47608   6.532   6.338   3.928
15789WAT     H147609   6.593   6.410   3.895
15789WAT     H247610   6.537   6.334   4.028
15790WAT      O47611   8.961   0.027   3.926
15790WAT     H147612   9.003  -0.042   3.986
15790WAT     H247613   8.925  -0.017   3.844
15791WAT      O47614   6.064   5.861   1.888
15791WAT     H147615   6.130   5.895   1.821
15791WAT     H247616   5.971   5.877   1.854
15792WAT      O47617   7.101   2.982   4.744
15792WAT     H147618   7.194   2.989   4.708
15792WAT     H247619   7.103   2.995   4.843
15793WAT      O47620   8.005   7.981   0.872
15793WAT     H147621   8.004   7.896   0.818
15793WAT     H247622   8.047   8.054   0.818
15794WAT      O47623   4.413   0.696   9.621
15794WAT     H147624   4.318   0.664   9.618
15794WAT     H247625   4.465   0.638   9.683
15795WAT      O47626   7.018   0.645   6.949
15795WAT     H147627   6.978   0.607   7.032
15795WAT     H247628   7.067   0.573   6.900
15796WAT      O47629   0.451   4.093   5.349
15796WAT     H147630   0.402   4.114   5.265
15796WAT     H247631   0.440   4.169   5.414
15797WAT      O47632   9.658   2.119   3.840
15797WAT     H147633   9.610   2.119   3.752
15797WAT     H247634   9.631   2.200   3.893
15798WAT      O47635   1.857   1.018   3.068
15798WAT     H147636   1.850   1.050   3.163
15798WAT     H247637   1.887   0.922   3.067
15799WAT      O47638   9.030   8.536   4.794
15799WAT     H147639   9.097   8.480   4.842
15799WAT     H247640   8.939   8.521   4.833
15800WAT      O47641   3.775   8.829   0.675
15800WAT     H147642   3.798   8.923   0.651
15800WAT     H247643   3.791   8.815   0.773
15801WAT      O47644   3.639   3.574   9.311
15801WAT     H147645   3.558   3.578   9.253
15801WAT     H247646   3.616   3.607   9.403
15802WAT      O47647   8.401   5.098   6.672
15802WAT     H147648   8.346   5.119   6.591
15802WAT     H247649   8.351   5.033   6.730
15803WAT      O47650   2.249   0.442   1.675
15803WAT     H147651   2.283   0.358   1.633
15803WAT     H247652   2.234   0.426   1.773
15804WAT      O47653   2.727   2.243   4.076
15804WAT     H147654   2.662   2.171   4.099
15804WAT     H247655   2.720   2.318   4.142
15805WAT      O47656   3.933   5.123   3.940
15805WAT     H147657   3.936   5.207   3.886
15805WAT     H247658   3.861   5.130   4.008
15806WAT      O47659   8.067   8.356   9.597
15806WAT     H147660   8.068   8.373   9.499
15806WAT     H247661   8.129   8.280   9.619
15807WAT      O47662   4.456   2.658   3.687
15807WAT     H147663   4.364   2.668   3.726
15807WAT     H247664   4.518   2.625   3.758
15808WAT      O47665   6.427   4.549   4.361
15808WAT     H147666   6.411   4.594   4.449
15808WAT     H247667   6.346   4.560   4.303
15809WAT      O47668   6.442   1.175   3.567
15809WAT     H147669   6.393   1.100   3.612
15809WAT     H247670   6.380   1.251   3.551
15810WAT      O47671   0.419   7.406   4.402
15810WAT     H147672   0.386   7.357   4.483
15810WAT     H247673   0.476   7.483   4.430
15811WAT      O47674   0.646   8.180   2.225
15811WAT     H147675   0.660   8.275   2.198
15811WAT     H247676   0.700   8.121   2.164
15812WAT      O47677   2.475   4.583   0.140
15812WAT     H147678   2.466   4.587   0.240
15812WAT     H247679   2.476   4.488   0.110
15813WAT      O47680   1.848   8.375   1.973
15813WAT     H147681   1.942   8.397   1.949
15813WAT     H247682   1.834   8.276   1.968
15814WAT      O47683   4.367   2.155   0.434
15814WAT     H147684   4.386   2.227   0.366
15814WAT     H247685   4.453   2.126   0.476
15815WAT      O47686   7.588   6.070   0.765
15815WAT     H147687   7.600   6.005   0.690
15815WAT     H247688   7.491   6.080   0.787
15816WAT      O47689   3.956   3.955   4.102
15816WAT     H147690   4.052   3.927   4.107
15816WAT     H247691   3.898   3.878   4.129
15817WAT      O47692   8.780   4.416   4.289
15817WAT     H147693   8.841   4.362   4.230
15817WAT     H247694   8.788   4.384   4.383
15818WAT      O47695   9.241   8.827   7.674
15818WAT     H147696   9.245   8.846   7.575
15818WAT     H247697   9.251   8.912   7.725
15819WAT      O47698   7.331   8.631   7.988
15819WAT     H147699   7.399   8.687   8.035
15819WAT     H247700   7.244   8.637   8.037
15820WAT      O47701   1.959   6.829   5.208
15820WAT     H147702   1.990   6.751   5.153
15820WAT     H247703   1.866   6.854   5.183
15821WAT      O47704   2.004   0.563   6.247
15821WAT     H147705   1.963   0.472   6.261
15821WAT     H247706   1.933   0.633   6.257
15822WAT      O47707   7.587   9.239   1.750
15822WAT     H147708   7.547   9.196   1.830
15822WAT     H247709   7.687   9.231   1.754
15823WAT      O47710   3.715   5.450   4.359
15823WAT     H147711   3.619   5.462   4.332
15823WAT     H247712   3.767   5.532   4.337
15824WAT      O47713   3.632   0.591   6.411
15824WAT     H147714   3.583   0.504   6.414
15824WAT     H247715   3.633   0.632   6.502
15825WAT      O47716   3.488   6.753   4.140
15825WAT     H147717   3.564   6.698   4.176
15825WAT     H247718   3.494   6.846   4.175
15826WAT      O47719   7.339   2.969   0.249
15826WAT     H147720   7.287   2.967   0.164
15826WAT     H247721   7.287   2.924   0.322
15827WAT      O47722   3.279   9.684   2.103
15827WAT     H147723   3.279   9.770   2.051
15827WAT     H247724   3.331   9.697   2.187
15828WAT      O47725   0.875   0.395   3.224
15828WAT     H147726   0.940   0.319   3.222
15828WAT     H247727   0.788   0.365   3.185
15829WAT      O47728   0.917   4.892   8.968
15829WAT     H147729   0.945   4.986   8.982
15829WAT     H247730   0.823   4.889   8.934
15830WAT      O47731   4.037   8.221   3.010
15830WAT     H147732   4.049   8.217   2.911
15830WAT     H247733   3.944   8.252   3.032
15831WAT      O47734   1.423   2.734   8.812
15831WAT     H147735   1.326   2.719   8.792
15831WAT     H247736   1.472   2.647   8.805
15832WAT      O47737   8.760   9.352   6.047
15832WAT     H147738   8.782   9.421   6.116
15832WAT     H247739   8.733   9.398   5.962
15833WAT      O47740   6.973   8.644   4.204
15833WAT     H147741   6.968   8.612   4.109
15833WAT     H247742   6.988   8.743   4.204
15834WAT      O47743   9.133   8.748   4.662
15834WAT     H147744   9.063   8.761   4.591
15834WAT     H247745   9.107   8.671   4.719
15835WAT      O47746   4.593   4.793   1.436
15835WAT     H147747   4.547   4.758   1.355
15835WAT     H247748   4.530   4.792   1.514
15836WAT      O47749   2.210   7.431   3.157
15836WAT     H147750   2.279   7.492   3.117
15836WAT     H247751   2.181   7.364   3.089
15837WAT      O47752   9.869   4.389   3.115
15837WAT     H147753   9.828   4.319   3.174
15837WAT     H247754   9.962   4.407   3.145
15838WAT      O47755   3.886   3.655   9.662
15838WAT     H147756   3.824   3.628   9.736
15838WAT     H247757   3.848   3.733   9.613
15839WAT      O47758   6.256   6.253   4.162
15839WAT     H147759   6.329   6.302   4.209
15839WAT     H247760   6.168   6.294   4.187
15840WAT      O47761   3.773   6.858   8.363
15840WAT     H147762   3.749   6.952   8.339
15840WAT     H247763   3.699   6.797   8.334
15841WAT      O47764   0.660   4.041   7.103
15841WAT     H147765   0.736   4.048   7.039
15841WAT     H247766   0.579   4.007   7.054
15842WAT      O47767   0.059   7.916   2.362
15842WAT     H147768   0.107   7.862   2.293
15842WAT     H247769   0.061   7.868   2.450
15843WAT      O47770   1.713   4.124   0.318
15843WAT     H147771   1.669   4.034   0.317
15843WAT     H247772   1.778   4.128   0.394
15844WAT      O47773   2.830   1.690   1.924
15844WAT     H147774   2.741   1.675   1.879
15844WAT     H247775   2.816   1.724   2.016
15845WAT      O47776   4.320   7.614   4.819
15845WAT     H147777   4.246   7.669   4.780
15845WAT     H247778   4.408   7.654   4.793
15846WAT      O47779   3.572   0.814   6.696
15846WAT     H147780   3.633   0.736   6.680
15846WAT     H247781   3.535   0.809   6.788
15847WAT      O47782   6.467   6.738   3.947
15847WAT     H147783   6.470   6.677   4.026
15847WAT     H247784   6.373   6.767   3.930
15848WAT      O47785   4.942   8.408   2.378
15848WAT     H147786   4.946   8.507   2.361
15848WAT     H247787   4.942   8.359   2.291
15849WAT      O47788   1.385   2.052   2.149
15849WAT     H147789   1.301   2.083   2.105
15849WAT     H247790   1.365   2.028   2.244
15850WAT      O47791   4.050   8.872   7.609
15850WAT     H147792   4.017   8.780   7.626
15850WAT     H247793   4.149   8.871   7.598
15851WAT      O47794   4.705   6.841   1.318
15851WAT     H147795   4.711   6.774   1.392
15851WAT     H247796   4.790   6.841   1.266
15852WAT      O47797   5.099   1.023   2.419
15852WAT     H147798   5.002   1.025   2.397
15852WAT     H247799   5.113   0.975   2.506
15853WAT      O47800   5.099   4.218   6.597
15853WAT     H147801   5.171   4.241   6.661
15853WAT     H247802   5.130   4.146   6.535
15854WAT      O47803   6.375   6.784   4.895
15854WAT     H147804   6.435   6.849   4.849
15854WAT     H247805   6.354   6.708   4.833
15855WAT      O47806   3.126   6.254   1.997
15855WAT     H147807   3.147   6.158   2.017
15855WAT     H247808   3.058   6.287   2.062
15856WAT      O47809   5.472   3.314   2.973
15856WAT     H147810   5.408   3.378   2.931
15856WAT     H247811   5.423   3.233   3.004
15857WAT      O47812   6.997   3.456   3.827
15857WAT     H147813   6.926   3.410   3.774
15857WAT     H247814   7.041   3.526   3.771
15858WAT      O47815   4.891   4.846   7.168
15858WAT     H147816   4.967   4.901   7.135
15858WAT     H247817   4.917   4.750   7.169
15859WAT      O47818   1.382   7.244   7.074
15859WAT     H147819   1.430   7.312   7.018
15859WAT     H247820   1.448   7.188   7.123
15860WAT      O47821   0.298   5.325   6.318
15860WAT     H147822   0.397   5.321   6.304
15860WAT     H247823   0.259   5.390   6.253
15861WAT      O47824   7.390   1.776   1.549
15861WAT     H147825   7.357   1.866   1.521
15861WAT     H247826   7.316   1.725   1.593
15862WAT      O47827   6.012   1.895   9.322
15862WAT     H147828   6.024   1.922   9.418
15862WAT     H247829   6.081   1.826   9.299
15863WAT      O47830   4.743   3.512   3.822
15863WAT     H147831   4.729   3.414   3.838
15863WAT     H247832   4.671   3.547   3.762
15864WAT      O47833   9.009   0.772   7.511
15864WAT     H147834   9.048   0.858   7.542
15864WAT     H247835   9.079   0.719   7.462
15865WAT      O47836   9.379   7.482   0.887
15865WAT     H147837   9.458   7.421   0.873
15865WAT     H247838   9.351   7.521   0.800
15866WAT      O47839   6.277   9.737   3.631
15866WAT     H147840   6.243   9.671   3.698
15866WAT     H247841   6.201   9.784   3.588
15867WAT      O47842   5.693   3.753   5.456
15867WAT     H147843   5.683   3.746   5.357
15867WAT     H247844   5.604   3.775   5.497
15868WAT      O47845   4.528   2.287   1.461
15868WAT     H147846   4.479   2.299   1.375
15868WAT     H247847   4.479   2.336   1.533
15869WAT      O47848   0.217   5.195   9.780
15869WAT     H147849   0.295   5.173   9.838
15869WAT     H247850   0.207   5.124   9.710
15870WAT      O47851   4.016   8.084   3.422
15870WAT     H147852   4.094   8.144   3.406
15870WAT     H247853   4.046   7.989   3.423
15871WAT      O47854   1.474   4.035   7.615
15871WAT     H147855   1.549   4.041   7.550
15871WAT     H247856   1.493   3.963   7.682
15872WAT      O47857   4.975   9.755   5.745
15872WAT     H147858   4.960   9.676   5.803
15872WAT     H247859   4.901   9.763   5.678
15873WAT      O47860   5.653   4.411   2.189
15873WAT     H147861   5.709   4.332   2.213
15873WAT     H247862   5.711   4.491   2.176
15874WAT      O47863   1.282   4.274   3.625
15874WAT     H147864   1.204   4.322   3.586
15874WAT     H247865   1.367   4.321   3.598
15875WAT      O47866   1.475   4.607   5.367
15875WAT     H147867   1.398   4.598   5.304
15875WAT     H247868   1.561   4.603   5.315
15876WAT      O47869   9.189   6.530   1.595
15876WAT     H147870   9.263   6.594   1.571
15876WAT     H247871   9.223   6.436   1.589
15877WAT      O47872   0.069   1.485   7.380
15877WAT     H147873   0.009   1.445   7.449
15877WAT     H247874   0.041   1.452   7.289
15878WAT      O47875   3.232   9.150   8.707
15878WAT     H147876   3.157   9.173   8.768
15878WAT     H247877   3.236   9.218   8.633
15879WAT      O47878   2.141   0.996   8.666
15879WAT     H147879   2.181   0.942   8.592
15879WAT     H247880   2.208   1.004   8.741
15880WAT      O47881   5.922   1.508   1.146
15880WAT     H147882   5.945   1.555   1.231
15880WAT     H247883   5.883   1.573   1.081
15881WAT      O47884   3.965   7.369   4.886
15881WAT     H147885   3.912   7.364   4.801
15881WAT     H247886   4.062   7.361   4.865
15882WAT      O47887   9.086   2.045   5.261
15882WAT     H147888   9.168   2.101   5.275
15882WAT     H247889   9.056   2.053   5.166
15883WAT      O47890   4.127   8.540   0.408
15883WAT     H147891   4.210   8.484   0.409
15883WAT     H247892   4.049   8.482   0.385
15884WAT      O47893   5.784   2.165   2.963
15884WAT     H147894   5.840   2.082   2.963
15884WAT     H247895   5.730   2.169   3.047
15885WAT      O47896   5.223   5.497   1.706
15885WAT     H147897   5.183   5.537   1.789
15885WAT     H247898   5.322   5.506   1.710
15886WAT      O47899   6.067   6.123   7.928
15886WAT     H147900   6.166   6.141   7.923
15886WAT     H247901   6.019   6.181   7.863
15887WAT      O47902   8.245   9.309   9.533
15887WAT     H147903   8.303   9.344   9.460
15887WAT     H247904   8.207   9.220   9.506
15888WAT      O47905   8.966   2.177   7.857
15888WAT     H147906   9.062   2.184   7.885
15888WAT     H247907   8.961   2.169   7.757
15889WAT      O47908   6.915   2.040   8.633
15889WAT     H147909   6.843   1.971   8.636
15889WAT     H247910   6.978   2.020   8.559
15890WAT      O47911   4.904   4.302   3.137
15890WAT     H147912   4.999   4.327   3.119
15890WAT     H247913   4.873   4.237   3.068
15891WAT      O47914   5.711   5.409   0.093
15891WAT     H147915   5.613   5.390   0.083
15891WAT     H247916   5.723   5.496   0.142
15892WAT      O47917   9.194   6.472   4.931
15892WAT     H147918   9.251   6.531   4.873
15892WAT     H247919   9.100   6.505   4.930
15893WAT      O47920   1.942   3.937   8.983
15893WAT     H147921   1.939   4.032   8.950
15893WAT     H247922   2.037   3.907   8.990
15894WAT      O47923   2.437   7.600   0.549
15894WAT     H147924   2.370   7.603   0.474
15894WAT     H247925   2.529   7.605   0.511
15895WAT      O47926   5.534   2.982   3.682
15895WAT     H147927   5.596   2.904   3.690
15895WAT     H247928   5.440   2.950   3.671
15896WAT      O47929   8.093   0.895   6.005
15896WAT     H147930   8.088   0.800   5.976
15896WAT     H247931   8.001   0.932   6.014
15897WAT      O47932   5.048   6.534   8.277
15897WAT     H147933   5.048   6.473   8.356
15897WAT     H247934   5.074   6.626   8.305
15898WAT      O47935   5.358   4.738   0.447
15898WAT     H147936   5.338   4.720   0.350
15898WAT     H247937   5.358   4.652   0.497
15899WAT      O47938   3.526   2.547   4.818
15899WAT     H147939   3.517   2.645   4.834
15899WAT     H247940   3.442   2.512   4.776
15900WAT      O47941   6.465   0.555   3.932
15900WAT     H147942   6.398   0.482   3.916
15900WAT     H247943   6.557   0.516   3.937
15901WAT      O47944   8.303   1.024   1.435
15901WAT     H147945   8.316   1.116   1.399
15901WAT     H247946   8.366   0.961   1.390
15902WAT      O47947   8.596   4.643   1.039
15902WAT     H147948   8.553   4.653   1.128
15902WAT     H247949   8.538   4.684   0.969
15903WAT      O47950   8.099   8.381   5.694
15903WAT     H147951   8.021   8.338   5.648
15903WAT     H247952   8.066   8.448   5.761
15904WAT      O47953   8.997   5.494   2.462
15904WAT     H147954   8.942   5.473   2.381
15904WAT     H247955   9.082   5.442   2.460
15905WAT      O47956   2.787   3.665   7.663
15905WAT     H147957   2.777   3.751   7.713
15905WAT     H247958   2.860   3.674   7.596
15906WAT      O47959   6.875   7.743   5.955
15906WAT     H147960   6.785   7.781   5.933
15906WAT     H247961   6.937   7.756   5.878
15907WAT      O47962   7.829   2.490   8.998
15907WAT     H147963   7.881   2.514   8.916
15907WAT     H247964   7.831   2.566   9.062
15908WAT      O47965   0.745   5.576   4.308
15908WAT     H147966   0.784   5.524   4.383
15908WAT     H247967   0.792   5.664   4.300
15909WAT      O47968   8.456   0.577   7.761
15909WAT     H147969   8.402   0.659   7.777
15909WAT     H247970   8.423   0.504   7.821
15910WAT      O47971   1.582   1.519   1.333
15910WAT     H147972   1.580   1.527   1.233
15910WAT     H247973   1.606   1.608   1.373
15911WAT      O47974   7.322   5.120   7.273
15911WAT     H147975   7.373   5.177   7.208
15911WAT     H247976   7.225   5.119   7.247
15912WAT      O47977   4.922   3.152   5.479
15912WAT     H147978   4.840   3.191   5.520
15912WAT     H247979   4.910   3.143   5.381
15913WAT      O47980   5.348   3.248   5.235
15913WAT     H147981   5.439   3.286   5.256
15913WAT     H247982   5.282   3.284   5.301
15914WAT      O47983   1.408   7.823   4.845
15914WAT     H147984   1.453   7.879   4.915
15914WAT     H247985   1.341   7.880   4.796
15915WAT      O47986   3.317   7.497   4.773
15915WAT     H147987   3.309   7.490   4.872
15915WAT     H247988   3.227   7.515   4.733
15916WAT      O47989   9.587   7.803   7.700
15916WAT     H147990   9.490   7.824   7.719
15916WAT     H247991   9.601   7.797   7.602
15917WAT      O47992   1.699   3.909   1.697
15917WAT     H147993   1.677   3.915   1.600
15917WAT     H247994   1.648   3.834   1.738
15918WAT      O47995   5.108   3.122   1.770
15918WAT     H147996   5.177   3.049   1.769
15918WAT     H247997   5.100   3.162   1.679
15919WAT      O47998   0.293   2.638   0.859
15919WAT     H147999   0.314   2.629   0.762
15919WAT     H248000   0.323   2.728   0.892
15920WAT      O48001   4.512   4.641   5.520
15920WAT     H148002   4.453   4.720   5.533
15920WAT     H248003   4.597   4.654   5.571
15921WAT      O48004   9.810   4.041   7.053
15921WAT     H148005   9.726   4.087   7.080
15921WAT     H248006   9.814   3.950   7.093
15922WAT      O48007   6.014   8.000   7.803
15922WAT     H148008   6.094   7.942   7.817
15922WAT     H248009   5.965   8.010   7.889
15923WAT      O48010   3.347   4.335   5.114
15923WAT     H148011   3.387   4.415   5.159
15923WAT     H248012   3.382   4.330   5.020
15924WAT      O48013   1.727   8.294   6.087
15924WAT     H148014   1.680   8.304   5.999
15924WAT     H248015   1.822   8.269   6.071
15925WAT      O48016   1.531   5.203   1.650
15925WAT     H148017   1.512   5.275   1.583
15925WAT     H248018   1.630   5.191   1.658
15926WAT      O48019   7.181   1.898   9.402
15926WAT     H148020   7.259   1.844   9.433
15926WAT     H248021   7.115   1.837   9.357
15927WAT      O48022   7.495   9.437   9.239
15927WAT     H148023   7.593   9.459   9.241
15927WAT     H248024   7.466   9.426   9.144
15928WAT      O48025   8.984   6.768   9.259
15928WAT     H148026   8.884   6.765   9.268
15928WAT     H248027   9.022   6.682   9.294
15929WAT      O48028   7.576   5.451   3.451
15929WAT     H148029   7.568   5.551   3.461
15929WAT     H248030   7.624   5.414   3.531
15930WAT      O48031   8.169   4.460   7.753
15930WAT     H148032   8.265   4.472   7.728
15930WAT     H248033   8.163   4.390   7.824
15931WAT      O48034   0.739   3.823   0.986
15931WAT     H148035   0.762   3.727   0.972
15931WAT     H248036   0.729   3.840   1.084
15932WAT      O48037   1.571   7.136   5.568
15932WAT     H148038   1.642   7.181   5.514
15932WAT     H248039   1.611   7.097   5.650
15933WAT      O48040   6.374   5.491   2.224
15933WAT     H148041   6.343   5.467   2.132
15933WAT     H248042   6.340   5.582   2.248
15934WAT      O48043   4.202   9.305   5.803
15934WAT     H148044   4.226   9.389   5.756
15934WAT     H248045   4.237   9.226   5.752
15935WAT      O48046   4.333   2.612   6.743
15935WAT     H148047   4.393   2.537   6.771
15935WAT     H248048   4.294   2.591   6.653
15936WAT      O48049   5.350   0.032   0.064
15936WAT     H148050   5.435   0.073   0.099
15936WAT     H248051   5.299   0.101   0.013
15937WAT      O48052   1.567   8.407   5.126
15937WAT     H148053   1.638   8.451   5.071
15937WAT     H248054   1.522   8.336   5.072
15938WAT      O48055   5.838   5.067   8.629
15938WAT     H148056   5.783   5.138   8.672
15938WAT     H248057   5.899   5.108   8.561
15939WAT      O48058   9.484   8.006   1.191
15939WAT     H148059   9.411   8.013   1.123
15939WAT     H248060   9.564   8.057   1.160
15940WAT      O48061   3.580   8.849   5.766
15940WAT     H148062   3.603   8.929   5.710
15940WAT     H248063   3.650   8.836   5.836
15941WAT      O48064   0.459   1.492   2.013
15941WAT     H148065   0.387   1.561   2.005
15941WAT     H248066   0.486   1.483   2.109
15942WAT      O48067   8.615   9.444   5.827
15942WAT     H148068   8.558   9.526   5.828
15942WAT     H248069   8.691   9.457   5.763
15943WAT      O48070   7.440   9.177   1.500
15943WAT     H148071   7.507   9.203   1.569
15943WAT     H248072   7.481   9.114   1.434
15944WAT      O48073   2.510   2.518   2.390
15944WAT     H148074   2.423   2.566   2.391
15944WAT     H248075   2.516   2.459   2.471
15945WAT      O48076   1.416   6.920   5.237
15945WAT     H148077   1.417   7.020   5.238
15945WAT     H248078   1.334   6.887   5.190
15946WAT      O48079   3.555   3.898   7.898
15946WAT     H148080   3.564   3.868   7.803
15946WAT     H248081   3.592   3.990   7.907
15947WAT      O48082   7.103   3.664   3.667
15947WAT     H148083   7.194   3.697   3.693
15947WAT     H248084   7.041   3.742   3.658
15948WAT      O48085   8.124   8.626   0.923
15948WAT     H148086   8.172   8.549   0.964
15948WAT     H248087   8.089   8.686   0.995
15949WAT      O48088   2.968   2.140   4.740
15949WAT     H148089   3.040   2.132   4.671
15949WAT     H248090   2.886   2.092   4.710
15950WAT      O48091   5.370   7.159   0.407
15950WAT     H148092   5.348   7.190   0.315
15950WAT     H248093   5.422   7.074   0.402
15951WAT      O48094   7.292   8.872   3.340
15951WAT     H148095   7.273   8.966   3.369
15951WAT     H248096   7.360   8.831   3.400
15952WAT      O48097   4.590   3.712   5.752
15952WAT     H148098   4.593   3.736   5.655
15952WAT     H248099   4.679   3.677   5.781
15953WAT      O48100   2.199   0.838   8.468
15953WAT     H148101   2.296   0.844   8.445
15953WAT     H248102   2.152   0.783   8.399
15954WAT      O48103   7.762   6.624   8.042
15954WAT     H148104   7.716   6.539   8.016
15954WAT     H248105   7.703   6.677   8.102
15955WAT      O48106   4.999   7.821   7.945
15955WAT     H148107   5.088   7.775   7.950
15955WAT     H248108   4.940   7.772   7.880
15956WAT      O48109   9.827   0.140   6.017
15956WAT     H148110   9.774   0.160   5.935
15956WAT     H248111   9.785   0.064   6.067
15957WAT      O48112   0.963   6.656   0.566
15957WAT     H148113   0.901   6.600   0.511
15957WAT     H248114   1.042   6.682   0.510
15958WAT      O48115   8.062   2.735   9.661
15958WAT     H148116   8.069   2.798   9.739
15958WAT     H248117   7.990   2.767   9.599
15959WAT      O48118   9.185   6.008   0.026
15959WAT     H148119   9.134   6.056  -0.046
15959WAT     H248120   9.268   6.060   0.047
15960WAT      O48121   7.615   4.870   9.788
15960WAT     H148122   7.528   4.821   9.797
15960WAT     H248123   7.683   4.827   9.848
15961WAT      O48124   7.712   4.005   6.979
15961WAT     H148125   7.775   4.032   7.051
15961WAT     H248126   7.726   3.908   6.957
15962WAT      O48127   3.443   1.958   3.103
15962WAT     H148128   3.530   2.007   3.105
15962WAT     H248129   3.383   1.999   3.034
15963WAT      O48130   3.270   5.649   4.450
15963WAT     H148131   3.195   5.603   4.403
15963WAT     H248132   3.274   5.617   4.545
15964WAT      O48133   2.128   7.759   3.478
15964WAT     H148134   2.062   7.832   3.461
15964WAT     H248135   2.082   7.670   3.472
15965WAT      O48136   5.820   1.784   9.643
15965WAT     H148137   5.800   1.874   9.684
15965WAT     H248138   5.821   1.715   9.715
15966WAT      O48139   5.942   6.277   0.633
15966WAT     H148140   5.889   6.310   0.555
15966WAT     H248141   5.881   6.262   0.711
15967WAT      O48142   0.923   3.120   5.716
15967WAT     H148143   1.005   3.064   5.728
15967WAT     H248144   0.843   3.060   5.716
15968WAT      O48145   0.341   4.125   8.512
15968WAT     H148146   0.335   4.174   8.425
15968WAT     H248147   0.250   4.090   8.536
15969WAT      O48148   2.033   2.828   3.226
15969WAT     H148149   2.107   2.784   3.176
15969WAT     H248150   1.958   2.847   3.163
15970WAT      O48151   5.358   1.492   9.744
15970WAT     H148152   5.351   1.585   9.708
15970WAT     H248153   5.276   1.469   9.796
15971WAT      O48154   6.628   8.199   0.069
15971WAT     H148155   6.529   8.199   0.060
15971WAT     H248156   6.653   8.184   0.165
15972WAT      O48157   9.862   7.889   0.219
15972WAT     H148158   9.957   7.898   0.191
15972WAT     H248159   9.813   7.831   0.154
15973WAT      O48160   8.996   6.249   7.126
15973WAT     H148161   8.905   6.236   7.088
15973WAT     H248162   9.015   6.347   7.134
15974WAT      O48163   8.613   1.448   7.472
15974WAT     H148164   8.552   1.442   7.551
15974WAT     H248165   8.580   1.387   7.400
15975WAT      O48166   1.766   3.212   4.301
15975WAT     H148167   1.757   3.275   4.378
15975WAT     H248168   1.681   3.213   4.248
15976WAT      O48169   6.821   2.619   3.260
15976WAT     H148170   6.745   2.594   3.319
15976WAT     H248171   6.907   2.586   3.300
15977WAT      O48172   0.052   1.031   4.403
15977WAT     H148173   0.028   1.114   4.352
15977WAT     H248174   0.061   0.954   4.340
15978WAT      O48175   8.489   8.629   0.215
15978WAT     H148176   8.532   8.559   0.158
15978WAT     H248177   8.409   8.666   0.168
15979WAT      O48178   0.968   2.219   9.076
15979WAT     H148179   0.972   2.130   9.030
15979WAT     H248180   0.897   2.275   9.034
15980WAT      O48181   9.316   3.202   6.532
15980WAT     H148182   9.311   3.174   6.628
15980WAT     H248183   9.347   3.297   6.526
15981WAT      O48184   7.915   8.268   0.071
15981WAT     H148185   7.888   8.202   0.000
15981WAT     H248186   8.007   8.302   0.051
15982WAT      O48187   9.563   9.838   2.693
15982WAT     H148188   9.468   9.846   2.725
15982WAT     H248189   9.623   9.890   2.755
15983WAT      O48190   2.497   3.007   1.273
15983WAT     H148191   2.419   2.945   1.269
15983WAT     H248192   2.553   2.985   1.353
15984WAT      O48193   5.365   7.237   0.129
15984WAT     H148194   5.448   7.263   0.081
15984WAT     H248195   5.343   7.142   0.110
15985WAT      O48196   4.677   6.000   5.076
15985WAT     H148197   4.682   5.953   5.164
15985WAT     H248198   4.664   6.098   5.091
15986WAT      O48199   2.794   4.770   6.234
15986WAT     H148200   2.885   4.792   6.268
15986WAT     H248201   2.780   4.671   6.237
15987WAT      O48202   7.171   5.481   3.864
15987WAT     H148203   7.085   5.488   3.812
15987WAT     H248204   7.239   5.432   3.809
15988WAT      O48205   8.391   0.402   8.144
15988WAT     H148206   8.488   0.376   8.142
15988WAT     H248207   8.378   0.478   8.207
15989WAT      O48208   6.413   2.816   0.476
15989WAT     H148209   6.314   2.828   0.476
15989WAT     H248210   6.456   2.894   0.522
15990WAT      O48211   3.406   0.741   4.926
15990WAT     H148212   3.395   0.791   5.012
15990WAT     H248213   3.337   0.669   4.921
15991WAT      O48214   9.714   6.329   4.630
15991WAT     H148215   9.656   6.258   4.591
15991WAT     H248216   9.659   6.409   4.652
15992WAT      O48217   9.808   8.255   0.140
15992WAT     H148218   9.738   8.248   0.211
15992WAT     H248219   9.898   8.241   0.181
15993WAT      O48220   4.231   2.577   2.767
15993WAT     H148221   4.168   2.587   2.844
15993WAT     H248222   4.271   2.666   2.745
15994WAT      O48223   7.601   4.105   5.951
15994WAT     H148224   7.631   4.042   6.022
15994WAT     H248225   7.675   4.119   5.885
15995WAT      O48226   9.738   3.217   8.636
15995WAT     H148227   9.751   3.246   8.541
15995WAT     H248228   9.732   3.118   8.640
15996WAT      O48229   5.844   1.072   0.241
15996WAT     H148230   5.871   1.077   0.337
15996WAT     H248231   5.751   1.036   0.234
15997WAT      O48232   1.244   6.305   3.102
15997WAT     H148233   1.239   6.400   3.133
15997WAT     H248234   1.154   6.263   3.110
15998WAT      O48235   0.098   8.869   8.237
15998WAT     H148236   0.068   8.827   8.152
15998WAT     H248237   0.197   8.886   8.234
15999WAT      O48238   3.204   2.245   9.442
15999WAT     H148239   3.219   2.187   9.522
15999WAT     H248240   3.134   2.314   9.463
16000WAT      O48241   2.293   4.101   2.363
16000WAT     H148242   2.275   4.182   2.308
16000WAT     H248243   2.331   4.128   2.451
16001WAT      O48244   0.703   4.611   7.630
16001WAT     H148245   0.674   4.677   7.561
16001WAT     H248246   0.782   4.646   7.679
16002WAT      O48247   9.066   8.044   3.170
16002WAT     H148248   9.047   8.070   3.075
16002WAT     H248249   8.992   7.985   3.204
16003WAT      O48250   5.327   9.104   3.524
16003WAT     H148251   5.239   9.127   3.565
16003WAT     H248252   5.351   9.174   3.456
16004WAT      O48253   9.193   4.506   9.444
16004WAT     H148254   9.105   4.497   9.397
16004WAT     H248255   9.181   4.555   9.530
16005WAT      O48256   7.886   1.321   8.039
16005WAT     H148257   7.824   1.357   7.970
16005WAT     H248258   7.960   1.387   8.056
16006WAT      O48259   6.075   1.174   8.565
16006WAT     H148260   6.051   1.271   8.567
16006WAT     H248261   5.993   1.119   8.549
16007WAT      O48262   9.796   9.601   6.970
16007WAT     H148263   9.855   9.633   6.896
16007WAT     H248264   9.852   9.563   7.043
16008WAT      O48265   9.078   4.889   9.506
16008WAT     H148266   9.156   4.836   9.540
16008WAT     H248267   9.090   4.985   9.532
16009WAT      O48268   1.558   7.901   4.294
16009WAT     H148269   1.539   7.814   4.340
16009WAT     H248270   1.645   7.938   4.328
16010WAT      O48271   6.248   1.568   1.154
16010WAT     H148272   6.323   1.575   1.221
16010WAT     H248273   6.162   1.593   1.198
16011WAT      O48274   9.479   0.889   5.650
16011WAT     H148275   9.424   0.932   5.721
16011WAT     H248276   9.420   0.853   5.578
16012WAT      O48277   2.387   1.458   1.330
16012WAT     H148278   2.343   1.504   1.408
16012WAT     H248279   2.486   1.454   1.346
16013WAT      O48280   0.260   0.145   0.067
16013WAT     H148281   0.167   0.163   0.099
16013WAT     H248282   0.324   0.160   0.142
16014WAT      O48283   6.033   0.063   0.017
16014WAT     H148284   5.994   0.154   0.003
16014WAT     H248285   6.020   0.036   0.113
16015WAT      O48286   5.384   3.048   2.606
16015WAT     H148287   5.317   3.102   2.555
16015WAT     H248288   5.473   3.054   2.560
16016WAT      O48289   6.928   1.973   0.392
16016WAT     H148290   6.872   1.992   0.473
16016WAT     H248291   7.025   1.980   0.417
16017WAT      O48292   6.395   5.264   3.940
16017WAT     H148293   6.373   5.239   4.034
16017WAT     H248294   6.354   5.198   3.878
16018WAT      O48295   2.715   1.735   3.677
16018WAT     H148296   2.654   1.705   3.751
16018WAT     H248297   2.675   1.710   3.589
16019WAT      O48298   9.360   0.448   7.669
16019WAT     H148299   9.420   0.460   7.748
16019WAT     H248300   9.410   0.470   7.585
16020WAT      O48301   0.886   0.263   6.287
16020WAT     H148302   0.867   0.360   6.302
16020WAT     H248303   0.936   0.226   6.365
16021WAT      O48304   9.114   9.617   9.605
16021WAT     H148305   9.142   9.709   9.632
16021WAT     H248306   9.155   9.550   9.666
16022WAT      O48307   7.815   6.159   5.853
16022WAT     H148308   7.906   6.136   5.818
16022WAT     H248309   7.781   6.240   5.805
16023WAT      O48310   9.836   5.166   9.529
16023WAT     H148311   9.793   5.248   9.565
16023WAT     H248312   9.817   5.089   9.589
16024WAT      O48313   6.739   7.356   0.494
16024WAT     H148314   6.707   7.451   0.500
16024WAT     H248315   6.736   7.326   0.398
16025WAT      O48316   5.189   3.094   7.996
16025WAT     H148317   5.208   3.013   8.052
16025WAT     H248318   5.256   3.165   8.018
16026WAT      O48319   7.015   0.362   8.003
16026WAT     H148320   7.039   0.372   8.100
16026WAT     H248321   7.098   0.367   7.947
16027WAT      O48322   1.453   5.697   0.031
16027WAT     H148323   1.543   5.675   0.069
16027WAT     H248324   1.383   5.682   0.101
16028WAT      O48325   3.071   6.387   0.851
16028WAT     H148326   2.992   6.330   0.827
16028WAT     H248327   3.039   6.468   0.901
16029WAT      O48328   5.410   1.024   5.004
16029WAT     H148329   5.377   1.082   4.930
16029WAT     H248330   5.356   0.940   5.008
16030WAT      O48331   5.202   0.410   2.715
16030WAT     H148332   5.251   0.323   2.724
16030WAT     H248333   5.139   0.420   2.792
16031WAT      O48334   8.413   3.263   5.235
16031WAT     H148335   8.359   3.247   5.318
16031WAT     H248336   8.399   3.357   5.203
16032WAT      O48337   5.790   5.898   5.205
16032WAT     H148338   5.879   5.928   5.241
16032WAT     H248339   5.802   5.862   5.113
16033WAT      O48340   9.467   8.969   8.242
16033WAT     H148341   9.559   9.004   8.259
16033WAT     H248342   9.471   8.891   8.179
16034WAT      O48343   6.559   5.034   9.055
16034WAT     H148344   6.472   5.070   9.091
16034WAT     H248345   6.596   5.099   8.989
16035WAT      O48346   4.517   6.397   4.673
16035WAT     H148347   4.422   6.367   4.677
16035WAT     H248348   4.531   6.474   4.736
16036WAT      O48349   6.534   4.944   3.882
16036WAT     H148350   6.540   4.891   3.967
16036WAT     H248351   6.448   4.995   3.881
16037WAT      O48352   1.184   9.061   7.488
16037WAT     H148353   1.193   9.145   7.542
16037WAT     H248354   1.162   9.084   7.393
16038WAT      O48355   5.576   5.460   8.772
16038WAT     H148356   5.542   5.504   8.689
16038WAT     H248357   5.601   5.530   8.840
16039WAT      O48358   8.476   0.291   9.804
16039WAT     H148359   8.513   0.292   9.711
16039WAT     H248360   8.523   0.221   9.858
16040WAT      O48361   7.544   5.886   6.955
16040WAT     H148362   7.587   5.970   6.921
16040WAT     H248363   7.612   5.813   6.960
16041WAT      O48364   2.621   1.059   2.628
16041WAT     H148365   2.712   1.036   2.663
16041WAT     H248366   2.614   1.157   2.616
16042WAT      O48367   6.325   0.959   3.719
16042WAT     H148368   6.416   0.943   3.756
16042WAT     H248369   6.269   0.877   3.731
16043WAT      O48370   0.132   1.813   4.003
16043WAT     H148371   0.148   1.822   4.101
16043WAT     H248372   0.040   1.845   3.981
16044WAT      O48373   2.962   4.924   8.197
16044WAT     H148374   2.924   4.967   8.115
16044WAT     H248375   2.901   4.943   8.274
16045WAT      O48376   7.502   7.823   0.038
16045WAT     H148377   7.595   7.813   0.001
16045WAT     H248378   7.506   7.826   0.137
16046WAT      O48379   3.951   2.974   0.233
16046WAT     H148380   3.923   2.945   0.325
16046WAT     H248381   4.046   3.005   0.236
16047WAT      O48382   1.445   6.528   3.818
16047WAT     H148383   1.537   6.529   3.780
16047WAT     H248384   1.451   6.536   3.918
16048WAT      O48385   9.164   5.551   4.989
16048WAT     H148386   9.103   5.476   4.962
16048WAT     H248387   9.255   5.513   5.011
16049WAT      O48388   1.054   6.389   8.670
16049WAT     H148389   1.076   6.441   8.752
16049WAT     H248390   0.960   6.409   8.642
16050WAT      O48391   0.782   4.631   6.073
16050WAT     H148392   0.831   4.680   6.001
16050WAT     H248393   0.840   4.626   6.155
16051WAT      O48394   5.527   3.137   7.743
16051WAT     H148395   5.528   3.231   7.777
16051WAT     H248396   5.547   3.074   7.819
16052WAT      O48397   0.033   8.840   5.362
16052WAT     H148398   0.072   8.870   5.450
16052WAT     H248399   0.098   8.859   5.289
16053WAT      O48400   0.099   7.758   2.890
16053WAT     H148401   0.032   7.701   2.938
16053WAT     H248402   0.104   7.848   2.935
16054WAT      O48403   8.444   5.942   6.724
16054WAT     H148404   8.496   6.007   6.668
16054WAT     H248405   8.505   5.900   6.792
16055WAT      O48406   7.848   1.334   4.921
16055WAT     H148407   7.820   1.379   5.006
16055WAT     H248408   7.791   1.366   4.846
16056WAT      O48409   2.469   0.176   5.269
16056WAT     H148410   2.517   0.130   5.195
16056WAT     H248411   2.535   0.207   5.338
16057WAT      O48412   9.049   3.118   8.043
16057WAT     H148413   9.107   3.123   7.961
16057WAT     H248414   8.977   3.187   8.036
16058WAT      O48415   0.859   6.315   0.265
16058WAT     H148416   0.856   6.362   0.177
16058WAT     H248417   0.952   6.281   0.281
16059WAT      O48418   6.604   4.065   6.425
16059WAT     H148419   6.524   4.095   6.373
16059WAT     H248420   6.687   4.104   6.385
16060WAT      O48421   1.799   8.313   8.741
16060WAT     H148422   1.851   8.254   8.679
16060WAT     H248423   1.717   8.265   8.771
16061WAT      O48424   4.268   4.587   5.901
16061WAT     H148425   4.312   4.674   5.878
16061WAT     H248426   4.181   4.579   5.852
16062WAT      O48427   1.329   2.411   2.630
16062WAT     H148428   1.283   2.431   2.544
16062WAT     H248429   1.366   2.496   2.669
16063WAT      O48430   3.017   0.950   5.618
16063WAT     H148431   3.113   0.974   5.612
16063WAT     H248432   2.983   0.922   5.528
16064WAT      O48433   4.377   5.532   4.442
16064WAT     H148434   4.413   5.505   4.353
16064WAT     H248435   4.334   5.622   4.435
16065WAT      O48436   7.427   5.761   8.693
16065WAT     H148437   7.502   5.785   8.753
16065WAT     H248438   7.340   5.790   8.734
16066WAT      O48439   2.153   8.827   4.817
16066WAT     H148440   2.173   8.903   4.756
16066WAT     H248441   2.088   8.857   4.888
16067WAT      O48442   9.408   6.943   3.925
16067WAT     H148443   9.448   7.006   3.992
16067WAT     H248444   9.410   6.850   3.960
16068WAT      O48445   3.668   7.131   8.303
16068WAT     H148446   3.581   7.126   8.255
16068WAT     H248447   3.718   7.213   8.274
16069WAT      O48448   9.258   6.222   5.716
16069WAT     H148449   9.313   6.175   5.785
16069WAT     H248450   9.286   6.192   5.625
16070WAT      O48451   6.865   7.985   3.086
16070WAT     H148452   6.899   7.920   3.018
16070WAT     H248453   6.804   7.937   3.149
16071WAT      O48454   9.681   8.366   2.175
16071WAT     H148455   9.642   8.342   2.086
16071WAT     H248456   9.667   8.290   2.239
16072WAT      O48457   7.559   2.362   2.815
16072WAT     H148458   7.468   2.320   2.820
16072WAT     H248459   7.587   2.368   2.720
16073WAT      O48460   9.065   8.721   5.319
16073WAT     H148461   9.122   8.715   5.237
16073WAT     H248462   9.023   8.632   5.337
16074WAT      O48463   9.628   9.823   3.445
16074WAT     H148464   9.653   9.856   3.536
16074WAT     H248465   9.583   9.734   3.452
16075WAT      O48466   6.101   9.611   8.084
16075WAT     H148467   6.115   9.554   8.002
16075WAT     H248468   6.112   9.554   8.166
16076WAT      O48469   1.706   3.399   4.796
16076WAT     H148470   1.624   3.344   4.816
16076WAT     H248471   1.765   3.402   4.876
16077WAT      O48472   4.511   2.095   4.063
16077WAT     H148473   4.577   2.045   4.120
16077WAT     H248474   4.499   2.188   4.100
16078WAT      O48475   0.414   8.904   7.734
16078WAT     H148476   0.437   8.996   7.765
16078WAT     H248477   0.440   8.893   7.638
16079WAT      O48478   7.815   9.557   1.652
16079WAT     H148479   7.717   9.536   1.651
16079WAT     H248480   7.829   9.645   1.698
16080WAT      O48481   3.350   1.674   5.879
16080WAT     H148482   3.287   1.727   5.822
16080WAT     H248483   3.306   1.653   5.967
16081WAT      O48484   2.168   1.536   9.225
16081WAT     H148485   2.154   1.437   9.228
16081WAT     H248486   2.120   1.579   9.301
16082WAT      O48487   2.001   9.044   5.440
16082WAT     H148488   1.917   9.098   5.440
16082WAT     H248489   2.029   9.028   5.345
16083WAT      O48490   9.058   7.950   6.421
16083WAT     H148491   9.047   7.997   6.508
16083WAT     H248492   9.142   7.895   6.424
16084WAT      O48493   2.152   0.872   0.120
16084WAT     H148494   2.238   0.821   0.121
16084WAT     H248495   2.169   0.967   0.147
16085WAT      O48496   4.759   3.591   7.172
16085WAT     H148497   4.837   3.617   7.230
16085WAT     H248498   4.790   3.526   7.103
16086WAT      O48499   5.009   4.485   8.295
16086WAT     H148500   5.085   4.515   8.238
16086WAT     H248501   4.937   4.554   8.293
16087WAT      O48502   1.275   9.635   5.942
16087WAT     H148503   1.238   9.703   6.005
16087WAT     H248504   1.243   9.656   5.849
16088WAT      O48505   7.081   6.531   9.337
16088WAT     H148506   7.152   6.534   9.408
16088WAT     H248507   7.085   6.616   9.284
16089WAT      O48508   2.781   8.783   8.023
16089WAT     H148509   2.746   8.733   7.944
16089WAT     H248510   2.837   8.860   7.993
16090WAT      O48511   0.268   6.790   1.220
16090WAT     H148512   0.262   6.873   1.275
16090WAT     H248513   0.253   6.710   1.278
16091WAT      O48514   4.916   0.332   6.719
16091WAT     H148515   4.993   0.395   6.712
16091WAT     H248516   4.855   0.344   6.641
16092WAT      O48517   8.218   1.531   6.955
16092WAT     H148518   8.183   1.509   6.864
16092WAT     H248519   8.315   1.507   6.960
16093WAT      O48520   8.127   8.610   3.263
16093WAT     H148521   8.052   8.545   3.269
16093WAT     H248522   8.185   8.586   3.184
16094WAT      O48523   8.610   7.802   2.175
16094WAT     H148524   8.514   7.787   2.152
16094WAT     H248525   8.619   7.824   2.272
16095WAT      O48526   5.314   2.654   6.525
16095WAT     H148527   5.245   2.581   6.519
16095WAT     H248528   5.324   2.684   6.619
16096WAT      O48529   6.677   6.102   4.455
16096WAT     H148530   6.719   6.015   4.428
16096WAT     H248531   6.675   6.164   4.376
16097WAT      O48532   7.269   3.096   8.556
16097WAT     H148533   7.348   3.105   8.616
16097WAT     H248534   7.217   3.013   8.581
16098WAT      O48535   2.849   3.528   8.138
16098WAT     H148536   2.795   3.467   8.079
16098WAT     H248537   2.828   3.507   8.234
16099WAT      O48538   5.210   0.064   8.764
16099WAT     H148539   5.283   0.028   8.821
16099WAT     H248540   5.122   0.050   8.809
16100WAT      O48541   0.074   6.987   0.860
16100WAT     H148542   0.084   7.082   0.890
16100WAT     H248543   0.119   6.927   0.927
16101WAT      O48544   3.828   1.827   9.782
16101WAT     H148545   3.742   1.859   9.741
16101WAT     H248546   3.880   1.777   9.714
16102WAT      O48547   9.446   4.726   4.458
16102WAT     H148548   9.354   4.726   4.418
16102WAT     H248549   9.440   4.750   4.554
16103WAT      O48550   1.177   2.454   2.387
16103WAT     H148551   1.112   2.512   2.437
16103WAT     H248552   1.135   2.366   2.368
16104WAT      O48553   0.023   1.246   2.291
16104WAT     H148554  -0.031   1.322   2.256
16104WAT     H248555   0.013   1.167   2.231
16105WAT      O48556   5.653   1.667   7.892
16105WAT     H148557   5.691   1.698   7.804
16105WAT     H248558   5.631   1.569   7.886
16106WAT      O48559   4.983   0.568   1.010
16106WAT     H148560   4.945   0.477   1.000
16106WAT     H248561   5.076   0.570   0.972
16107WAT      O48562   9.128   3.768   7.766
16107WAT     H148563   9.039   3.777   7.722
16107WAT     H248564   9.200   3.767   7.697
16108WAT      O48565   2.802   1.156   6.645
16108WAT     H148566   2.847   1.081   6.596
16108WAT     H248567   2.828   1.243   6.604
16109WAT      O48568   7.618   9.676   5.113
16109WAT     H148569   7.617   9.753   5.049
16109WAT     H248570   7.617   9.590   5.061
16110WAT      O48571   6.118   5.187   0.105
16110WAT     H148572   6.175   5.145   0.177
16110WAT     H248573   6.030   5.213   0.144
16111WAT      O48574   6.014   5.557   0.269
16111WAT     H148575   6.025   5.578   0.366
16111WAT     H248576   5.922   5.585   0.240
16112WAT      O48577   9.376   5.773   2.774
16112WAT     H148578   9.416   5.692   2.731
16112WAT     H248579   9.351   5.839   2.703
16113WAT      O48580   7.395   0.136   0.643
16113WAT     H148581   7.441   0.050   0.664
16113WAT     H248582   7.323   0.152   0.711
16114WAT      O48583   0.609   0.998   6.559
16114WAT     H148584   0.581   1.094   6.558
16114WAT     H248585   0.685   0.986   6.623
16115WAT      O48586   8.890   7.334   5.241
16115WAT     H148587   8.926   7.419   5.203
16115WAT     H248588   8.826   7.293   5.177
16116WAT      O48589   5.096   3.259   1.535
16116WAT     H148590   5.125   3.355   1.530
16116WAT     H248591   5.072   3.227   1.444
16117WAT      O48592   7.255   2.294   8.061
16117WAT     H148593   7.251   2.250   8.151
16117WAT     H248594   7.347   2.332   8.047
16118WAT      O48595   1.648   0.490   3.189
16118WAT     H148596   1.633   0.464   3.094
16118WAT     H248597   1.739   0.530   3.199
16119WAT      O48598   2.656   8.634   3.706
16119WAT     H148599   2.662   8.603   3.801
16119WAT     H248600   2.571   8.602   3.665
16120WAT      O48601   5.183   8.359   4.808
16120WAT     H148602   5.220   8.275   4.848
16120WAT     H248603   5.086   8.345   4.786
16121WAT      O48604   8.466   4.887   4.776
16121WAT     H148605   8.562   4.909   4.761
16121WAT     H248606   8.452   4.858   4.871
16122WAT      O48607   9.174   1.405   2.995
16122WAT     H148608   9.270   1.405   3.025
16122WAT     H248609   9.137   1.498   3.004
16123WAT      O48610   6.401   2.097   6.255
16123WAT     H148611   6.404   2.146   6.342
16123WAT     H248612   6.490   2.056   6.237
16124WAT      O48613   5.798   3.192   2.610
16124WAT     H148614   5.789   3.279   2.658
16124WAT     H248615   5.889   3.185   2.569
16125WAT      O48616   6.865   5.029   7.252
16125WAT     H148617   6.836   5.090   7.326
16125WAT     H248618   6.891   4.940   7.291
16126WAT      O48619   7.971   4.115   4.334
16126WAT     H148620   7.890   4.071   4.296
16126WAT     H248621   7.985   4.204   4.290
16127WAT      O48622   8.620   4.286   0.974
16127WAT     H148623   8.648   4.366   0.921
16127WAT     H248624   8.586   4.215   0.913
16128WAT      O48625   2.702   3.440   1.419
16128WAT     H148626   2.618   3.416   1.370
16128WAT     H248627   2.752   3.357   1.442
16129WAT      O48628   1.376   2.456   2.203
16129WAT     H148629   1.295   2.460   2.260
16129WAT     H248630   1.451   2.415   2.254
16130WAT      O48631   1.879   3.330   8.372
16130WAT     H148632   1.839   3.350   8.461
16130WAT     H248633   1.854   3.402   8.307
16131WAT      O48634   6.301   0.069   9.301
16131WAT     H148635   6.292   0.045   9.398
16131WAT     H248636   6.213   0.100   9.266
16132WAT      O48637   8.119   7.427   7.439
16132WAT     H148638   8.071   7.407   7.354
16132WAT     H248639   8.217   7.414   7.426
16133WAT      O48640   6.819   6.173   3.551
16133WAT     H148641   6.796   6.249   3.490
16133WAT     H248642   6.846   6.094   3.497
16134WAT      O48643   7.549   2.693   5.991
16134WAT     H148644   7.585   2.786   5.986
16134WAT     H248645   7.625   2.628   5.984
16135WAT      O48646   9.793   6.560   5.320
16135WAT     H148647   9.822   6.637   5.378
16135WAT     H248648   9.810   6.582   5.224
16136WAT      O48649   8.283   3.346   6.223
16136WAT     H148650   8.319   3.418   6.282
16136WAT     H248651   8.194   3.374   6.187
16137WAT      O48652   6.588   5.083   1.941
16137WAT     H148653   6.620   5.177   1.942
16137WAT     H248654   6.574   5.051   2.035
16138WAT      O48655   8.831   1.901   4.266
16138WAT     H148656   8.910   1.962   4.268
16138WAT     H248657   8.774   1.923   4.187
16139WAT      O48658   1.543   0.222   6.838
16139WAT     H148659   1.470   0.186   6.896
16139WAT     H248660   1.621   0.246   6.895
16140WAT      O48661   8.602   5.939   5.100
16140WAT     H148662   8.540   6.011   5.132
16140WAT     H248663   8.567   5.850   5.129
16141WAT      O48664   8.558   7.053   0.558
16141WAT     H148665   8.471   7.021   0.521
16141WAT     H248666   8.625   7.061   0.484
16142WAT      O48667   6.918   9.555   9.502
16142WAT     H148668   6.843   9.495   9.529
16142WAT     H248669   6.892   9.608   9.421
16143WAT      O48670   0.660   4.759   2.870
16143WAT     H148671   0.582   4.696   2.876
16143WAT     H248672   0.691   4.765   2.775
16144WAT      O48673   7.067   0.341   1.830
16144WAT     H148674   7.099   0.289   1.908
16144WAT     H248675   7.074   0.439   1.850
16145WAT      O48676   8.473   5.694   0.597
16145WAT     H148677   8.440   5.602   0.616
16145WAT     H248678   8.399   5.760   0.614
16146WAT      O48679   7.804   8.978   8.804
16146WAT     H148680   7.717   8.945   8.841
16146WAT     H248681   7.847   8.905   8.751
16147WAT      O48682   8.491   5.154   7.818
16147WAT     H148683   8.479   5.119   7.911
16147WAT     H248684   8.480   5.253   7.819
16148WAT      O48685   0.341   0.007   6.294
16148WAT     H148686   0.320  -0.058   6.367
16148WAT     H248687   0.300  -0.023   6.208
16149WAT      O48688   6.570   5.584   4.068
16149WAT     H148689   6.499   5.538   4.014
16149WAT     H248690   6.541   5.590   4.163
16150WAT      O48691   2.932   9.030   6.204
16150WAT     H148692   2.976   9.043   6.293
16150WAT     H248693   3.000   9.000   6.137
16151WAT      O48694   7.915   5.010   5.802
16151WAT     H148695   7.820   5.031   5.777
16151WAT     H248696   7.968   5.095   5.804
16152WAT      O48697   6.795   8.982   2.750
16152WAT     H148698   6.796   9.051   2.678
16152WAT     H248699   6.724   9.004   2.816
16153WAT      O48700   5.672   0.393   5.303
16153WAT     H148701   5.768   0.418   5.290
16153WAT     H248702   5.630   0.454   5.371
16154WAT      O48703   3.729   1.217   5.392
16154WAT     H148704   3.810   1.165   5.364
16154WAT     H248705   3.743   1.314   5.373
16155WAT      O48706   9.320   2.586   4.909
16155WAT     H148707   9.366   2.519   4.968
16155WAT     H248708   9.275   2.655   4.965
16156WAT      O48709   4.203   1.173   1.389
16156WAT     H148710   4.253   1.191   1.474
16156WAT     H248711   4.253   1.105   1.335
16157WAT      O48712   3.732   7.811   7.216
16157WAT     H148713   3.637   7.787   7.194
16157WAT     H248714   3.771   7.742   7.276
16158WAT      O48715   4.624   5.035   9.859
16158WAT     H148716   4.591   5.053   9.952
16158WAT     H248717   4.719   5.066   9.852
16159WAT      O48718   3.615   7.941   7.958
16159WAT     H148719   3.713   7.922   7.964
16159WAT     H248720   3.597   8.035   7.986
16160WAT      O48721   9.759   7.865   4.385
16160WAT     H148722   9.702   7.895   4.308
16160WAT     H248723   9.784   7.945   4.440
16161WAT      O48724   0.730   9.626   8.931
16161WAT     H148725   0.749   9.528   8.937
16161WAT     H248726   0.631   9.641   8.927
16162WAT      O48727   4.528   5.236   5.648
16162WAT     H148728   4.483   5.267   5.732
16162WAT     H248729   4.485   5.281   5.570
16163WAT      O48730   0.400   0.114   8.071
16163WAT     H148731   0.492   0.134   8.039
16163WAT     H248732   0.384   0.015   8.070
16164WAT      O48733   8.525   2.373   0.380
16164WAT     H148734   8.429   2.383   0.406
16164WAT     H248735   8.570   2.462   0.387
16165WAT      O48736   8.556   6.832   8.262
16165WAT     H148737   8.635   6.893   8.263
16165WAT     H248738   8.574   6.752   8.319
16166WAT      O48739   6.978   1.461   7.406
16166WAT     H148740   6.933   1.372   7.394
16166WAT     H248741   6.910   1.533   7.411
16167WAT      O48742   1.914   7.796   5.044
16167WAT     H148743   1.872   7.723   4.990
16167WAT     H248744   1.874   7.884   5.017
16168WAT      O48745   7.001   9.478   6.807
16168WAT     H148746   7.067   9.552   6.821
16168WAT     H248747   6.919   9.514   6.765
16169WAT      O48748   9.013   4.124   1.349
16169WAT     H148749   8.945   4.158   1.283
16169WAT     H248750   8.992   4.162   1.440
16170WAT      O48751   7.576   1.522   4.948
16170WAT     H148752   7.477   1.521   4.963
16170WAT     H248753   7.595   1.508   4.851
16171WAT      O48754   2.978   9.174   4.552
16171WAT     H148755   2.945   9.133   4.467
16171WAT     H248756   3.072   9.206   4.538
16172WAT      O48757   4.204   6.021   7.268
16172WAT     H148758   4.119   6.034   7.319
16172WAT     H248759   4.281   6.059   7.319
16173WAT      O48760   0.049   2.544   6.050
16173WAT     H148761  -0.039   2.587   6.029
16173WAT     H248762   0.123   2.598   6.008
16174WAT      O48763   7.044   7.536   3.805
16174WAT     H148764   6.975   7.566   3.872
16174WAT     H248765   7.109   7.610   3.789
16175WAT      O48766   6.431   7.933   0.036
16175WAT     H148767   6.485   7.924  -0.047
16175WAT     H248768   6.338   7.960   0.013
16176WAT      O48769   0.432   1.043   5.503
16176WAT     H148770   0.346   1.089   5.481
16176WAT     H248771   0.456   0.981   5.429
16177WAT      O48772   3.380   0.084   0.240
16177WAT     H148773   3.384   0.165   0.182
16177WAT     H248774   3.472   0.058   0.267
16178WAT      O48775   0.207   7.185   9.262
16178WAT     H148776   0.181   7.089   9.252
16178WAT     H248777   0.130   7.243   9.234
16179WAT      O48778   8.965   4.167   2.658
16179WAT     H148779   8.905   4.168   2.578
16179WAT     H248780   8.923   4.220   2.732
16180WAT      O48781   4.885   6.442   5.952
16180WAT     H148782   4.927   6.351   5.950
16180WAT     H248783   4.829   6.452   6.034
16181WAT      O48784   0.033   9.236   7.709
16181WAT     H148785  -0.003   9.170   7.643
16181WAT     H248786   0.082   9.309   7.661
16182WAT      O48787   2.792   6.017   5.169
16182WAT     H148788   2.817   6.056   5.080
16182WAT     H248789   2.693   6.010   5.176
16183WAT      O48790   0.134   0.465   5.842
16183WAT     H148791   0.146   0.404   5.921
16183WAT     H248792   0.148   0.560   5.871
16184WAT      O48793   6.230   1.357   1.004
16184WAT     H148794   6.261   1.440   1.049
16184WAT     H248795   6.149   1.377   0.949
16185WAT      O48796   2.444   8.106   5.761
16185WAT     H148797   2.398   8.176   5.706
16185WAT     H248798   2.419   8.119   5.857
16186WAT      O48799   3.732   5.824   3.044
16186WAT     H148800   3.825   5.792   3.058
16186WAT     H248801   3.684   5.762   2.982
16187WAT      O48802   8.510   3.425   3.247
16187WAT     H148803   8.609   3.427   3.262
16187WAT     H248804   8.482   3.333   3.222
16188WAT      O48805   0.407   4.603   9.110
16188WAT     H148806   0.355   4.671   9.162
16188WAT     H248807   0.485   4.646   9.067
16189WAT      O48808   5.789   9.508   4.998
16189WAT     H148809   5.888   9.502   5.009
16189WAT     H248810   5.745   9.429   5.041
16190WAT      O48811   7.170   7.583   7.515
16190WAT     H148812   7.208   7.668   7.479
16190WAT     H248813   7.070   7.590   7.519
16191WAT      O48814   6.074   2.428   5.341
16191WAT     H148815   5.979   2.454   5.358
16191WAT     H248816   6.096   2.442   5.245
16192WAT      O48817   9.116   4.713   0.059
16192WAT     H148818   9.196   4.715   0.118
16192WAT     H248819   9.086   4.807   0.040
16193WAT      O48820   5.888   4.266   2.156
16193WAT     H148821   5.914   4.359   2.180
16193WAT     H248822   5.962   4.203   2.181
16194WAT      O48823   0.021   9.269   5.528
16194WAT     H148824  -0.026   9.278   5.440
16194WAT     H248825  -0.042   9.232   5.596
16195WAT      O48826   1.514   0.756   8.675
16195WAT     H148827   1.533   0.843   8.721
16195WAT     H248828   1.507   0.773   8.576
16196WAT      O48829   0.648   4.478   1.388
16196WAT     H148830   0.592   4.405   1.426
16196WAT     H248831   0.735   4.483   1.438
16197WAT      O48832   3.337   3.286   6.534
16197WAT     H148833   3.354   3.353   6.462
16197WAT     H248834   3.313   3.198   6.493
16198WAT      O48835   3.757   6.107   2.292
16198WAT     H148836   3.658   6.104   2.301
16198WAT     H248837   3.782   6.104   2.196
16199WAT      O48838   9.789   2.865   2.477
16199WAT     H148839   9.798   2.909   2.566
16199WAT     H248840   9.787   2.766   2.490
16200WAT      O48841   9.055   2.997   6.761
16200WAT     H148842   9.003   3.066   6.711
16200WAT     H248843   9.022   2.991   6.855
16201WAT      O48844   2.952   4.576   3.272
16201WAT     H148845   3.031   4.520   3.250
16201WAT     H248846   2.983   4.663   3.313
16202WAT      O48847   2.656   2.037   7.291
16202WAT     H148848   2.733   1.979   7.317
16202WAT     H248849   2.573   1.981   7.287
16203WAT      O48850   0.157   8.584   6.203
16203WAT     H148851   0.227   8.546   6.142
16203WAT     H248852   0.155   8.683   6.194
16204WAT      O48853   8.830   5.446   2.672
16204WAT     H148854   8.896   5.483   2.606
16204WAT     H248855   8.862   5.356   2.703
16205WAT      O48856   7.132   1.430   4.815
16205WAT     H148857   7.089   1.357   4.762
16205WAT     H248858   7.143   1.511   4.758
16206WAT      O48859   6.283   2.128   6.771
16206WAT     H148860   6.215   2.055   6.780
16206WAT     H248861   6.310   2.136   6.675
16207WAT      O48862   1.641   8.770   0.121
16207WAT     H148863   1.620   8.816   0.035
16207WAT     H248864   1.608   8.825   0.198
16208WAT      O48865   9.402   3.779   8.322
16208WAT     H148866   9.386   3.726   8.239
16208WAT     H248867   9.328   3.762   8.387
16209WAT      O48868   3.602   3.671   3.854
16209WAT     H148869   3.700   3.668   3.873
16209WAT     H248870   3.570   3.580   3.828
16210WAT      O48871   8.350   0.809   7.839
16210WAT     H148872   8.429   0.840   7.893
16210WAT     H248873   8.301   0.888   7.804
16211WAT      O48874   4.531   8.652   8.029
16211WAT     H148875   4.475   8.615   7.955
16211WAT     H248876   4.589   8.726   7.994
16212WAT      O48877   6.872   2.309   4.684
16212WAT     H148878   6.879   2.225   4.738
16212WAT     H248879   6.949   2.369   4.705
16213WAT      O48880   8.252   5.750   2.434
16213WAT     H148881   8.296   5.828   2.479
16213WAT     H248882   8.318   5.676   2.422
16214WAT      O48883   1.874   3.135   2.171
16214WAT     H148884   1.891   3.232   2.156
16214WAT     H248885   1.808   3.101   2.103
16215WAT      O48886   2.345   6.486   8.829
16215WAT     H148887   2.308   6.531   8.747
16215WAT     H248888   2.323   6.389   8.827
16216WAT      O48889   5.196   1.287   0.971
16216WAT     H148890   5.118   1.348   0.957
16216WAT     H248891   5.258   1.327   1.039
16217WAT      O48892   7.960   8.371   8.885
16217WAT     H148893   8.025   8.319   8.940
16217WAT     H248894   7.916   8.310   8.819
16218WAT      O48895   7.194   2.008   1.931
16218WAT     H148896   7.113   2.020   1.874
16218WAT     H248897   7.275   2.044   1.883
16219WAT      O48898   5.089   1.299   8.959
16219WAT     H148899   5.117   1.236   9.032
16219WAT     H248900   4.991   1.291   8.944
16220WAT      O48901   5.112   7.285   1.256
16220WAT     H148902   5.087   7.193   1.285
16220WAT     H248903   5.187   7.319   1.313
16221WAT      O48904   5.290   6.151   5.900
16221WAT     H148905   5.365   6.097   5.941
16221WAT     H248906   5.245   6.204   5.971
16222WAT      O48907   3.745   8.749   2.918
16222WAT     H148908   3.800   8.833   2.918
16222WAT     H248909   3.649   8.773   2.934
16223WAT      O48910   3.580   0.059   2.024
16223WAT     H148911   3.652   0.128   2.036
16223WAT     H248912   3.496   0.092   2.066
16224WAT      O48913   5.494   6.208   4.168
16224WAT     H148914   5.407   6.172   4.201
16224WAT     H248915   5.561   6.134   4.167
16225WAT      O48916   3.505   1.653   8.665
16225WAT     H148917   3.484   1.742   8.705
16225WAT     H248918   3.513   1.585   8.738
16226WAT      O48919   9.358   2.530   5.519
16226WAT     H148920   9.395   2.511   5.610
16226WAT     H248921   9.426   2.578   5.464
16227WAT      O48922   6.994   3.996   3.979
16227WAT     H148923   6.975   3.898   3.972
16227WAT     H248924   7.023   4.030   3.889
16228WAT      O48925   2.755   4.813   5.365
16228WAT     H148926   2.748   4.713   5.373
16228WAT     H248927   2.841   4.844   5.405
16229WAT      O48928   2.992   9.415   7.473
16229WAT     H148929   2.975   9.512   7.492
16229WAT     H248930   3.007   9.402   7.375
16230WAT      O48931   0.573   1.889   1.372
16230WAT     H148932   0.639   1.897   1.447
16230WAT     H248933   0.519   1.806   1.384
16231WAT      O48934   6.942   5.179   5.934
16231WAT     H148935   6.955   5.195   5.836
16231WAT     H248936   7.017   5.122   5.968
16232WAT      O48937   0.030   9.753   0.870
16232WAT     H148938   0.085   9.722   0.793
16232WAT     H248939   0.005   9.675   0.927
16233WAT      O48940   2.122   7.608   6.329
16233WAT     H148941   2.112   7.650   6.420
16233WAT     H248942   2.054   7.647   6.267
16234WAT      O48943   5.199   6.871   9.760
16234WAT     H148944   5.231   6.931   9.687
16234WAT     H248945   5.118   6.821   9.730
16235WAT      O48946   2.645   9.357   5.080
16235WAT     H148947   2.613   9.264   5.098
16235WAT     H248948   2.671   9.400   5.166
16236WAT      O48949   8.438   3.313   4.400
16236WAT     H148950   8.479   3.404   4.396
16236WAT     H248951   8.402   3.297   4.492
16237WAT      O48952   3.946   3.983   6.496
16237WAT     H148953   3.968   3.962   6.401
16237WAT     H248954   3.996   3.920   6.556
16238WAT      O48955   5.223   6.921   7.321
16238WAT     H148956   5.242   6.932   7.224
16238WAT     H248957   5.141   6.972   7.345
16239WAT      O48958   9.847   5.171   1.846
16239WAT     H148959   9.865   5.164   1.748
16239WAT     H248960   9.766   5.116   1.869
16240WAT      O48961   4.646   2.616   0.130
16240WAT     H148962   4.681   2.571   0.212
16240WAT     H248963   4.567   2.566   0.096
16241WAT      O48964   5.292   1.684   0.066
16241WAT     H148965   5.306   1.591   0.101
16241WAT     H248966   5.377   1.735   0.072
16242WAT      O48967   9.461   1.048   6.946
16242WAT     H148968   9.561   1.038   6.946
16242WAT     H248969   9.432   1.090   7.032
16243WAT      O48970   2.921   5.530   6.831
16243WAT     H148971   2.944   5.591   6.755
16243WAT     H248972   2.822   5.529   6.844
16244WAT      O48973   4.031   8.876   4.219
16244WAT     H148974   4.041   8.837   4.127
16244WAT     H248975   4.120   8.909   4.251
16245WAT      O48976   4.427   0.262   1.829
16245WAT     H148977   4.341   0.226   1.791
16245WAT     H248978   4.410   0.300   1.919
16246WAT      O48979   1.540   7.275   8.839
16246WAT     H148980   1.593   7.293   8.922
16246WAT     H248981   1.596   7.225   8.773
16247WAT      O48982   5.530   5.375   5.696
16247WAT     H148983   5.603   5.443   5.694
16247WAT     H248984   5.471   5.386   5.616
16248WAT      O48985   8.616   8.700   4.283
16248WAT     H148986   8.712   8.715   4.305
16248WAT     H248987   8.598   8.601   4.277
16249WAT      O48988   8.118   4.309   2.110
16249WAT     H148989   8.041   4.371   2.127
16249WAT     H248990   8.123   4.288   2.013
16250WAT      O48991   5.552   7.625   8.229
16250WAT     H148992   5.550   7.537   8.183
16250WAT     H248993   5.489   7.623   8.307
16251WAT      O48994   8.225   2.671   8.165
16251WAT     H148995   8.257   2.761   8.195
16251WAT     H248996   8.207   2.673   8.067
16252WAT      O48997   0.924   2.488   9.778
16252WAT     H148998   0.866   2.557   9.735
16252WAT     H248999   0.875   2.400   9.781
16253WAT      O49000   3.774   5.379   5.256
16253WAT     H149001   3.700   5.446   5.254
16253WAT     H249002   3.827   5.391   5.339
16254WAT      O49003   9.646   7.811   6.747
16254WAT     H149004   9.721   7.780   6.805
16254WAT     H249005   9.602   7.890   6.789
16255WAT      O49006   8.707   4.486   1.382
16255WAT     H149007   8.624   4.534   1.354
16255WAT     H249008   8.762   4.465   1.302
16256WAT      O49009   7.640   1.176   1.346
16256WAT     H149010   7.594   1.122   1.417
16256WAT     H249011   7.597   1.158   1.257
16257WAT      O49012   6.985   0.693   9.096
16257WAT     H149013   6.901   0.651   9.129
16257WAT     H249014   6.964   0.759   9.025
16258WAT      O49015   3.410   8.728   6.758
16258WAT     H149016   3.484   8.750   6.822
16258WAT     H249017   3.449   8.696   6.672
16259WAT      O49018   4.460   1.869   5.379
16259WAT     H149019   4.367   1.905   5.382
16259WAT     H249020   4.495   1.860   5.472
16260WAT      O49021   3.058   4.242   3.736
16260WAT     H149022   2.964   4.218   3.712
16260WAT     H249023   3.094   4.307   3.668
16261WAT      O49024   7.336   6.647   3.645
16261WAT     H149025   7.404   6.598   3.591
16261WAT     H249026   7.274   6.582   3.689
16262WAT      O49027   6.248   2.778   2.425
16262WAT     H149028   6.149   2.764   2.426
16262WAT     H249029   6.277   2.810   2.334
16263WAT      O49030   2.983   1.955   9.262
16263WAT     H149031   2.969   2.045   9.304
16263WAT     H249032   3.002   1.966   9.164
16264WAT      O49033   5.012   1.557   9.770
16264WAT     H149034   5.048   1.595   9.685
16264WAT     H249035   4.912   1.564   9.770
16265WAT      O49036   3.846   4.332   3.566
16265WAT     H149037   3.905   4.253   3.550
16265WAT     H249038   3.857   4.364   3.660
16266WAT      O49039   8.007   0.729   7.468
16266WAT     H149040   7.941   0.803   7.451
16266WAT     H249041   8.015   0.671   7.387
16267WAT      O49042   7.951   9.150   3.531
16267WAT     H149043   7.905   9.229   3.490
16267WAT     H249044   8.047   9.150   3.503
16268WAT      O49045   7.901   8.107   9.698
16268WAT     H149046   7.838   8.116   9.620
16268WAT     H249047   7.992   8.136   9.670
16269WAT      O49048   4.036   9.192   2.388
16269WAT     H149049   3.971   9.213   2.314
16269WAT     H249050   4.117   9.147   2.350
16270WAT      O49051   8.363   0.496   7.464
16270WAT     H149052   8.397   0.404   7.486
16270WAT     H249053   8.437   0.562   7.476
16271WAT      O49054   4.468   5.081   7.242
16271WAT     H149055   4.519   5.003   7.279
16271WAT     H249056   4.433   5.058   7.151
16272WAT      O49057   4.712   5.404   1.044
16272WAT     H149058   4.777   5.354   1.101
16272WAT     H249059   4.633   5.345   1.024
16273WAT      O49060   5.373   8.581   4.312
16273WAT     H149061   5.376   8.494   4.362
16273WAT     H249062   5.278   8.610   4.301
16274WAT      O49063   6.745   0.927   7.520
16274WAT     H149064   6.814   1.000   7.527
16274WAT     H249065   6.677   0.952   7.451
16275WAT      O49066   5.730   1.572   4.001
16275WAT     H149067   5.713   1.500   3.934
16275WAT     H249068   5.744   1.531   4.091
16276WAT      O49069   0.494   1.952   5.100
16276WAT     H149070   0.522   2.037   5.056
16276WAT     H249071   0.397   1.934   5.082
16277WAT      O49072   0.866   0.108   6.883
16277WAT     H149073   0.850   0.205   6.864
16277WAT     H249074   0.945   0.099   6.943
16278WAT      O49075   4.091   1.421   1.308
16278WAT     H149076   4.169   1.440   1.248
16278WAT     H249077   4.107   1.336   1.357
16279WAT      O49078   4.086   2.757   4.513
16279WAT     H149079   4.083   2.673   4.459
16279WAT     H249080   4.137   2.741   4.597
16280WAT      O49081   0.447   2.536   6.787
16280WAT     H149082   0.517   2.606   6.801
16280WAT     H249083   0.369   2.576   6.739
16281WAT      O49084   7.081   0.188   5.811
16281WAT     H149085   7.021   0.268   5.804
16281WAT     H249086   7.026   0.105   5.811
16282WAT      O49087   5.592   7.094   7.052
16282WAT     H149088   5.519   7.088   6.985
16282WAT     H249089   5.670   7.039   7.021
16283WAT      O49090   5.866   2.788   3.976
16283WAT     H149091   5.817   2.734   4.044
16283WAT     H249092   5.964   2.774   3.987
16284WAT      O49093   7.093   8.171   4.595
16284WAT     H149094   7.145   8.245   4.553
16284WAT     H249095   7.149   8.124   4.664
16285WAT      O49096   1.964   7.868   9.783
16285WAT     H149097   2.062   7.851   9.789
16285WAT     H249098   1.937   7.877   9.688
16286WAT      O49099   7.017   0.269   6.127
16286WAT     H149100   7.066   0.338   6.181
16286WAT     H249101   7.083   0.219   6.070
16287WAT      O49102   0.832   6.949   8.993
16287WAT     H149103   0.890   7.030   8.995
16287WAT     H249104   0.841   6.899   9.079
16288WAT      O49105   4.783   9.141   1.133
16288WAT     H149106   4.770   9.138   1.232
16288WAT     H249107   4.878   9.117   1.111
16289WAT      O49108   7.385   2.315   2.492
16289WAT     H149109   7.319   2.355   2.555
16289WAT     H249110   7.339   2.290   2.407
16290WAT      O49111   2.114   7.689   2.397
16290WAT     H149112   2.043   7.620   2.413
16290WAT     H249113   2.079   7.779   2.421
16291WAT      O49114   6.235   7.969   7.394
16291WAT     H149115   6.228   8.060   7.352
16291WAT     H249116   6.145   7.927   7.400
16292WAT      O49117   4.643   6.895   0.690
16292WAT     H149118   4.655   6.968   0.624
16292WAT     H249119   4.661   6.930   0.782
16293WAT      O49120   4.289   6.085   6.470
16293WAT     H149121   4.242   6.140   6.401
16293WAT     H249122   4.372   6.046   6.431
16294WAT      O49123   5.365   4.726   9.822
16294WAT     H149124   5.338   4.779   9.742
16294WAT     H249125   5.395   4.635   9.793
16295WAT      O49126   6.341   4.272   4.666
16295WAT     H149127   6.436   4.301   4.660
16295WAT     H249128   6.288   4.340   4.716
16296WAT      O49129   1.918   3.708   1.627
16296WAT     H149130   1.894   3.738   1.719
16296WAT     H249131   2.015   3.726   1.610
16297WAT      O49132   0.983   2.910   8.143
16297WAT     H149133   0.981   2.818   8.183
16297WAT     H249134   0.921   2.914   8.065
16298WAT      O49135   1.378   8.350   3.430
16298WAT     H149136   1.287   8.324   3.398
16298WAT     H249137   1.375   8.443   3.468
16299WAT      O49138   7.843   7.184   3.868
16299WAT     H149139   7.844   7.136   3.780
16299WAT     H249140   7.825   7.118   3.941
16300WAT      O49141   8.038   7.542   5.234
16300WAT     H149142   7.990   7.616   5.281
16300WAT     H249143   7.982   7.459   5.236
16301WAT      O49144   8.165   0.851   7.155
16301WAT     H149145   8.231   0.791   7.199
16301WAT     H249146   8.076   0.841   7.200
16302WAT      O49147   9.273   7.976   2.326
16302WAT     H149148   9.282   8.031   2.243
16302WAT     H249149   9.176   7.964   2.347
16303WAT      O49150   8.388   5.186   8.261
16303WAT     H149151   8.381   5.131   8.178
16303WAT     H249152   8.363   5.131   8.340
16304WAT      O49153   3.973   5.183   6.373
16304WAT     H149154   4.047   5.243   6.343
16304WAT     H249155   3.915   5.231   6.439
16305WAT      O49156   8.993   5.194   7.889
16305WAT     H149157   8.978   5.265   7.958
16305WAT     H249158   9.071   5.137   7.916
16306WAT      O49159   7.863   1.194   6.176
16306WAT     H149160   7.915   1.122   6.221
16306WAT     H249161   7.802   1.237   6.242
16307WAT      O49162   3.650   3.405   2.843
16307WAT     H149163   3.576   3.342   2.865
16307WAT     H249164   3.645   3.486   2.902
16308WAT      O49165   0.966   9.160   3.680
16308WAT     H149166   1.015   9.075   3.703
16308WAT     H249167   0.878   9.161   3.728
16309WAT      O49168   9.681   6.937   0.355
16309WAT     H149169   9.735   7.011   0.315
16309WAT     H249170   9.657   6.960   0.450
16310WAT      O49171   0.607   6.888   8.632
16310WAT     H149172   0.706   6.878   8.631
16310WAT     H249173   0.571   6.853   8.719
16311WAT      O49174   8.695   6.056   7.629
16311WAT     H149175   8.689   6.143   7.677
16311WAT     H249176   8.790   6.038   7.604
16312WAT      O49177   0.796   4.969   3.470
16312WAT     H149178   0.791   5.027   3.388
16312WAT     H249179   0.891   4.943   3.487
16313WAT      O49180   3.230   6.395   7.787
16313WAT     H149181   3.168   6.455   7.737
16313WAT     H249182   3.199   6.384   7.881
16314WAT      O49183   6.207   8.040   5.822
16314WAT     H149184   6.284   8.031   5.885
16314WAT     H249185   6.121   8.020   5.870
16315WAT      O49186   2.146   8.317   5.418
16315WAT     H149187   2.093   8.246   5.465
16315WAT     H249188   2.093   8.401   5.413
16316WAT      O49189   5.642   2.821   7.611
16316WAT     H149190   5.675   2.862   7.696
16316WAT     H249191   5.676   2.874   7.533
16317WAT      O49192   3.519   6.532   5.640
16317WAT     H149193   3.445   6.493   5.695
16317WAT     H249194   3.547   6.465   5.570
16318WAT      O49195   7.363   0.830   0.699
16318WAT     H149196   7.453   0.871   0.718
16318WAT     H249197   7.367   0.732   0.716
16319WAT      O49198   0.836   1.219   8.423
16319WAT     H149199   0.884   1.219   8.510
16319WAT     H249200   0.890   1.171   8.354
16320WAT      O49201   9.347   3.689   4.065
16320WAT     H149202   9.378   3.732   3.980
16320WAT     H249203   9.308   3.759   4.126
16321WAT      O49204   9.585   5.482   6.676
16321WAT     H149205   9.526   5.561   6.694
16321WAT     H249206   9.661   5.482   6.741
16322WAT      O49207   3.871   5.368   8.455
16322WAT     H149208   3.934   5.439   8.426
16322WAT     H249209   3.812   5.403   8.528
16323WAT      O49210   4.750   8.803   3.403
16323WAT     H149211   4.698   8.717   3.397
16323WAT     H249212   4.840   8.784   3.440
16324WAT      O49213   6.047   6.392   3.235
16324WAT     H149214   6.064   6.434   3.146
16324WAT     H249215   6.078   6.453   3.308
16325WAT      O49216   8.104   8.154   7.461
16325WAT     H149217   8.031   8.217   7.437
16325WAT     H249218   8.097   8.071   7.405
16326WAT      O49219   0.570   0.011   4.408
16326WAT     H149220   0.502   0.083   4.414
16326WAT     H249221   0.655   0.041   4.453
16327WAT      O49222   6.574   9.661   2.199
16327WAT     H149223   6.661   9.700   2.168
16327WAT     H249224   6.501   9.687   2.135
16328WAT      O49225   0.705   5.332   3.876
16328WAT     H149226   0.648   5.414   3.864
16328WAT     H249227   0.739   5.329   3.970
16329WAT      O49228   0.881   0.257   3.554
16329WAT     H149229   0.830   0.326   3.503
16329WAT     H249230   0.851   0.166   3.527
16330WAT      O49231   6.126   8.907   8.853
16330WAT     H149232   6.101   8.879   8.945
16330WAT     H249233   6.201   8.973   8.857
16331WAT      O49234   6.650   3.978   8.433
16331WAT     H149235   6.644   4.077   8.443
16331WAT     H249236   6.638   3.954   8.336
16332WAT      O49237   8.279   3.547   3.841
16332WAT     H149238   8.295   3.504   3.930
16332WAT     H249239   8.335   3.503   3.772
16333WAT      O49240   0.050   5.128   8.214
16333WAT     H149241   0.086   5.202   8.271
16333WAT     H249242   0.100   5.044   8.234
16334WAT      O49243   5.653   6.981   7.603
16334WAT     H149244   5.749   7.007   7.588
16334WAT     H249245   5.594   7.040   7.547
16335WAT      O49246   3.537   4.844   9.840
16335WAT     H149247   3.509   4.918   9.780
16335WAT     H249248   3.455   4.798   9.876
16336WAT      O49249   1.109   7.409   7.692
16336WAT     H149250   1.194   7.384   7.738
16336WAT     H249251   1.089   7.341   7.621
16337WAT      O49252   6.089   6.100   2.727
16337WAT     H149253   6.130   6.148   2.650
16337WAT     H249254   6.009   6.150   2.759
16338WAT      O49255   7.625   9.349   1.379
16338WAT     H149256   7.648   9.444   1.358
16338WAT     H249257   7.526   9.338   1.383
16339WAT      O49258   3.503   0.183   2.771
16339WAT     H149259   3.582   0.146   2.723
16339WAT     H249260   3.482   0.274   2.735
16340WAT      O49261   5.776   2.509   5.123
16340WAT     H149262   5.874   2.507   5.099
16340WAT     H249263   5.734   2.591   5.085
16341WAT      O49264   2.626   6.721   9.700
16341WAT     H149265   2.665   6.709   9.609
16341WAT     H249266   2.571   6.804   9.703
16342WAT      O49267   2.342   3.165   3.057
16342WAT     H149268   2.291   3.251   3.046
16342WAT     H249269   2.352   3.122   2.967
16343WAT      O49270   9.103   9.500   6.198
16343WAT     H149271   9.108   9.407   6.162
16343WAT     H249272   9.007   9.526   6.209
16344WAT      O49273   4.753   8.215   6.476
16344WAT     H149274   4.765   8.245   6.571
16344WAT     H249275   4.812   8.136   6.458
16345WAT      O49276   1.390   3.879   3.836
16345WAT     H149277   1.410   3.782   3.843
16345WAT     H249278   1.331   3.895   3.757
16346WAT      O49279   0.685   8.417   6.952
16346WAT     H149280   0.645   8.433   7.042
16346WAT     H249281   0.767   8.473   6.941
16347WAT      O49282   9.640   3.103   4.004
16347WAT     H149283   9.698   3.089   4.084
16347WAT     H249284   9.653   3.196   3.969
16348WAT      O49285   1.474   4.580   7.025
16348WAT     H149286   1.557   4.547   7.068
16348WAT     H249287   1.424   4.639   7.088
16349WAT      O49288   4.262   0.114   0.350
16349WAT     H149289   4.246   0.199   0.299
16349WAT     H249290   4.337   0.063   0.308
16350WAT      O49291   2.929   0.095   9.649
16350WAT     H149292   2.950   0.091   9.552
16350WAT     H249293   2.908   0.190   9.674
16351WAT      O49294   6.097   2.785   5.800
16351WAT     H149295   6.093   2.744   5.891
16351WAT     H249296   6.100   2.712   5.731
16352WAT      O49297   8.645   4.439   1.952
16352WAT     H149298   8.637   4.346   1.914
16352WAT     H249299   8.708   4.437   2.030
16353WAT      O49300   3.297   1.092   1.156
16353WAT     H149301   3.363   1.144   1.210
16353WAT     H249302   3.282   1.137   1.068
16354WAT      O49303   9.275   6.059   1.406
16354WAT     H149304   9.228   5.991   1.462
16354WAT     H249305   9.243   6.053   1.312
16355WAT      O49306   2.798   8.862   9.137
16355WAT     H149307   2.786   8.882   9.234
16355WAT     H249308   2.713   8.883   9.088
16356WAT      O49309   8.483   1.908   1.602
16356WAT     H149310   8.535   1.955   1.673
16356WAT     H249311   8.480   1.964   1.519
16357WAT      O49312   7.036   4.790   4.930
16357WAT     H149313   7.031   4.691   4.947
16357WAT     H249314   6.997   4.839   5.008
16358WAT      O49315   6.437   6.550   7.944
16358WAT     H149316   6.465   6.543   8.039
16358WAT     H249317   6.339   6.531   7.936
16359WAT      O49318   3.765   4.489   4.618
16359WAT     H149319   3.762   4.396   4.657
16359WAT     H249320   3.854   4.503   4.575
16360WAT      O49321   7.336   4.453   7.447
16360WAT     H149322   7.340   4.431   7.545
16360WAT     H249323   7.255   4.411   7.407
16361WAT      O49324   7.563   4.850   2.947
16361WAT     H149325   7.541   4.790   2.870
16361WAT     H249326   7.480   4.870   2.999
16362WAT      O49327   0.727   6.629   3.653
16362WAT     H149328   0.635   6.658   3.681
16362WAT     H249329   0.745   6.664   3.561
16363WAT      O49330   3.779   5.528   3.430
16363WAT     H149331   3.711   5.567   3.493
16363WAT     H249332   3.855   5.592   3.420
16364WAT      O49333   2.112   6.942   8.484
16364WAT     H149334   2.064   6.999   8.550
16364WAT     H249335   2.207   6.930   8.513
16365WAT      O49336   6.915   7.923   8.834
16365WAT     H149337   6.947   7.968   8.751
16365WAT     H249338   6.901   7.826   8.816
16366WAT      O49339   4.808   8.685   6.247
16366WAT     H149340   4.891   8.724   6.207
16366WAT     H249341   4.831   8.599   6.293
16367WAT      O49342   1.105   1.945   1.511
16367WAT     H149343   1.152   1.889   1.442
16367WAT     H249344   1.010   1.914   1.520
16368WAT      O49345   3.596   4.562   3.662
16368WAT     H149346   3.612   4.651   3.618
16368WAT     H249347   3.577   4.493   3.592
16369WAT      O49348   1.974   4.300   2.399
16369WAT     H149349   2.025   4.349   2.469
16369WAT     H249350   1.879   4.331   2.399
16370WAT      O49351   4.126   8.798   6.075
16370WAT     H149352   4.100   8.857   6.152
16370WAT     H249353   4.086   8.835   5.991
16371WAT      O49354   8.842   4.798   1.101
16371WAT     H149355   8.892   4.769   1.019
16371WAT     H249356   8.746   4.770   1.094
16372WAT      O49357   3.321   7.335   5.817
16372WAT     H149358   3.271   7.422   5.817
16372WAT     H249359   3.354   7.316   5.909
16373WAT      O49360   0.215   7.409   6.264
16373WAT     H149361   0.192   7.499   6.227
16373WAT     H249362   0.147   7.342   6.236
16374WAT      O49363   3.223   9.495   8.867
16374WAT     H149364   3.260   9.498   8.774
16374WAT     H249365   3.256   9.412   8.913
16375WAT      O49366   7.000   0.188   7.042
16375WAT     H149367   7.077   0.201   6.980
16375WAT     H249368   6.964   0.095   7.031
16376WAT      O49369   8.371   7.124   3.469
16376WAT     H149370   8.420   7.128   3.556
16376WAT     H249371   8.431   7.088   3.398
16377WAT      O49372   4.733   3.556   8.700
16377WAT     H149373   4.669   3.523   8.631
16377WAT     H249374   4.719   3.654   8.714
16378WAT      O49375   4.128   1.456   0.493
16378WAT     H149376   4.205   1.505   0.452
16378WAT     H249377   4.042   1.491   0.456
16379WAT      O49378   7.034   2.622   9.555
16379WAT     H149379   6.999   2.556   9.488
16379WAT     H249380   6.961   2.686   9.579
16380WAT      O49381   7.147   9.432   9.565
16380WAT     H149382   7.062   9.485   9.559
16380WAT     H249383   7.124   9.337   9.589
16381WAT      O49384   5.276   2.845   1.095
16381WAT     H149385   5.339   2.794   1.037
16381WAT     H249386   5.188   2.797   1.098
16382WAT      O49387   8.706   6.364   1.527
16382WAT     H149388   8.681   6.347   1.432
16382WAT     H249389   8.625   6.355   1.585
16383WAT      O49390   8.911   6.137   2.217
16383WAT     H149391   8.909   6.069   2.144
16383WAT     H249392   8.881   6.226   2.182
16384WAT      O49393   8.515   6.920   9.122
16384WAT     H149394   8.449   6.854   9.085
16384WAT     H249395   8.468   6.982   9.185
16385WAT      O49396   6.238   3.514   3.248
16385WAT     H149397   6.221   3.553   3.339
16385WAT     H249398   6.151   3.489   3.206
16386WAT      O49399   2.489   7.248   1.623
16386WAT     H149400   2.507   7.332   1.674
16386WAT     H249401   2.548   7.175   1.657
16387WAT      O49402   8.901   6.465   9.565
16387WAT     H149403   8.937   6.430   9.479
16387WAT     H249404   8.977   6.487   9.626
16388WAT      O49405   3.976   6.969   6.499
16388WAT     H149406   3.998   6.891   6.440
16388WAT     H249407   3.946   7.046   6.443
16389WAT      O49408   6.976   9.420   2.682
16389WAT     H149409   6.884   9.456   2.698
16389WAT     H249410   7.026   9.416   2.769
16390WAT      O49411   0.012   3.274   5.170
16390WAT     H149412   0.074   3.223   5.229
16390WAT     H249413  -0.078   3.232   5.172
16391WAT      O49414   8.413   6.402   0.290
16391WAT     H149415   8.362   6.318   0.308
16391WAT     H249416   8.479   6.386   0.217
16392WAT      O49417   9.106   1.527   6.345
16392WAT     H149418   9.068   1.604   6.396
16392WAT     H249419   9.073   1.530   6.250
16393WAT      O49420   4.161   0.952   1.531
16393WAT     H149421   4.136   1.031   1.475
16393WAT     H249422   4.238   0.904   1.489
16394WAT      O49423   2.881   6.547   0.235
16394WAT     H149424   2.888   6.643   0.209
16394WAT     H249425   2.853   6.493   0.156
16395WAT      O49426   2.174   7.469   7.464
16395WAT     H149427   2.237   7.420   7.524
16395WAT     H249428   2.099   7.509   7.517
16396WAT      O49429   7.709   3.532   0.084
16396WAT     H149430   7.686   3.626   0.059
16396WAT     H249431   7.625   3.481   0.102
16397WAT      O49432   3.974   6.424   3.151
16397WAT     H149433   3.993   6.520   3.167
16397WAT     H249434   3.939   6.383   3.236
16398WAT      O49435   9.333   6.129   7.504
16398WAT     H149436   9.278   6.204   7.469
16398WAT     H249437   9.406   6.165   7.562
16399WAT      O49438   0.408   5.613   9.506
16399WAT     H149439   0.454   5.675   9.442
16399WAT     H249440   0.404   5.656   9.596
16400WAT      O49441   0.707   6.445   0.885
16400WAT     H149442   0.698   6.534   0.930
16400WAT     H249443   0.722   6.374   0.954
16401WAT      O49444   0.724   5.166   9.493
16401WAT     H149445   0.681   5.251   9.523
16401WAT     H249446   0.713   5.096   9.564
16402WAT      O49447   3.215   6.828   2.333
16402WAT     H149448   3.139   6.772   2.299
16402WAT     H249449   3.294   6.769   2.351
16403WAT      O49450   0.753   0.859   3.727
16403WAT     H149451   0.678   0.796   3.709
16403WAT     H249452   0.780   0.904   3.642
16404WAT      O49453   9.378   0.872   9.508
16404WAT     H149454   9.470   0.850   9.474
16404WAT     H249455   9.311   0.811   9.465
16405WAT      O49456   4.199   3.693   6.860
16405WAT     H149457   4.132   3.702   6.934
16405WAT     H249458   4.280   3.747   6.882
16406WAT      O49459   3.084   6.770   9.198
16406WAT     H149460   3.005   6.810   9.244
16406WAT     H249461   3.166   6.781   9.254
16407WAT      O49462   5.363   4.668   0.891
16407WAT     H149463   5.292   4.630   0.831
16407WAT     H249464   5.453   4.649   0.852
16408WAT      O49465   0.930   7.943   1.559
16408WAT     H149466   0.855   7.877   1.563
16408WAT     H249467   0.893   8.036   1.560
16409WAT      O49468   8.585   0.123   6.554
16409WAT     H149469   8.497   0.090   6.587
16409WAT     H249470   8.649   0.133   6.631
16410WAT      O49471   7.469   0.857   1.149
16410WAT     H149472   7.482   0.952   1.122
16410WAT     H249473   7.415   0.853   1.233
16411WAT      O49474   4.687   2.691   5.643
16411WAT     H149475   4.779   2.660   5.666
16411WAT     H249476   4.688   2.789   5.628
16412WAT      O49477   6.008   3.610   0.288
16412WAT     H149478   6.086   3.666   0.262
16412WAT     H249479   5.980   3.553   0.210
16413WAT      O49480   5.643   7.392   1.423
16413WAT     H149481   5.677   7.316   1.368
16413WAT     H249482   5.684   7.388   1.514
16414WAT      O49483   5.718   8.212   3.590
16414WAT     H149484   5.704   8.179   3.683
16414WAT     H249485   5.735   8.311   3.592
16415WAT      O49486   5.687   9.268   3.675
16415WAT     H149487   5.676   9.179   3.630
16415WAT     H249488   5.762   9.264   3.740
16416WAT      O49489   2.380   1.432   9.019
16416WAT     H149490   2.287   1.437   8.983
16416WAT     H249491   2.413   1.524   9.038
16417WAT      O49492   6.678   6.861   1.029
16417WAT     H149493   6.698   6.862   1.127
16417WAT     H249494   6.759   6.830   0.979
16418WAT      O49495   4.938   2.820   3.624
16418WAT     H149496   4.917   2.839   3.528
16418WAT     H249497   4.931   2.721   3.641
16419WAT      O49498   5.862   1.884   3.657
16419WAT     H149499   5.935   1.840   3.605
16419WAT     H249500   5.862   1.850   3.751
16420WAT      O49501   4.851   2.378   3.483
16420WAT     H149502   4.900   2.345   3.402
16420WAT     H249503   4.776   2.315   3.504
16421WAT      O49504   4.568   7.032   5.771
16421WAT     H149505   4.586   7.084   5.854
16421WAT     H249506   4.496   6.965   5.788
16422WAT      O49507   2.365   3.168   1.105
16422WAT     H149508   2.420   3.100   1.154
16422WAT     H249509   2.383   3.161   1.007
16423WAT      O49510   9.329   8.657   1.449
16423WAT     H149511   9.260   8.592   1.479
16423WAT     H249512   9.391   8.677   1.525
16424WAT      O49513   2.266   9.102   4.312
16424WAT     H149514   2.311   9.102   4.402
16424WAT     H249515   2.170   9.128   4.323
16425WAT      O49516   7.406   9.674   3.009
16425WAT     H149517   7.444   9.685   2.917
16425WAT     H249518   7.394   9.577   3.028
16426WAT      O49519   5.440   4.822   2.254
16426WAT     H149520   5.490   4.815   2.168
16426WAT     H249521   5.494   4.781   2.328
16427WAT      O49522   8.788   0.949   8.464
16427WAT     H149523   8.762   0.905   8.549
16427WAT     H249524   8.851   1.024   8.483
16428WAT      O49525   6.061   3.173   0.882
16428WAT     H149526   6.123   3.102   0.847
16428WAT     H249527   6.098   3.210   0.967
16429WAT      O49528   5.371   4.975   8.612
16429WAT     H149529   5.400   5.006   8.702
16429WAT     H249530   5.392   5.046   8.544
16430WAT      O49531   1.887   2.482   0.012
16430WAT     H149532   1.830   2.564   0.010
16430WAT     H249533   1.862   2.426   0.091
16431WAT      O49534   8.628   3.151   6.730
16431WAT     H149535   8.648   3.053   6.742
16431WAT     H249536   8.595   3.188   6.816
16432WAT      O49537   0.239   2.119   4.013
16432WAT     H149538   0.206   2.043   3.956
16432WAT     H249539   0.176   2.196   4.006
16433WAT      O49540   9.348   1.691   3.082
16433WAT     H149541   9.361   1.648   2.993
16433WAT     H249542   9.255   1.672   3.114
16434WAT      O49543   9.849   6.852   5.764
16434WAT     H149544   9.872   6.834   5.668
16434WAT     H249545   9.768   6.800   5.789
16435WAT      O49546   4.523   1.020   7.782
16435WAT     H149547   4.489   0.970   7.862
16435WAT     H249548   4.488   1.114   7.785
16436WAT      O49549   8.908   2.588   1.401
16436WAT     H149550   9.002   2.614   1.380
16436WAT     H249551   8.902   2.489   1.411
16437WAT      O49552   9.700   0.729   6.903
16437WAT     H149553   9.628   0.785   6.945
16437WAT     H249554   9.673   0.706   6.809
16438WAT      O49555   6.822   2.720   8.497
16438WAT     H149556   6.742   2.672   8.532
16438WAT     H249557   6.900   2.657   8.496
16439WAT      O49558   6.964   1.723   9.290
16439WAT     H149559   7.004   1.700   9.202
16439WAT     H249560   6.946   1.639   9.342
16440WAT      O49561   9.466   1.751   0.040
16440WAT     H149562   9.564   1.769   0.035
16440WAT     H249563   9.417   1.836   0.058
16441WAT      O49564   9.250   2.326   8.133
16441WAT     H149565   9.225   2.329   8.230
16441WAT     H249566   9.311   2.403   8.111
16442WAT      O49567   8.035   6.863   6.172
16442WAT     H149568   7.948   6.900   6.141
16442WAT     H249569   8.073   6.922   6.243
16443WAT      O49570   6.670   1.865   7.821
16443WAT     H149571   6.724   1.879   7.903
16443WAT     H249572   6.573   1.883   7.841
16444WAT      O49573   0.621   2.993   8.869
16444WAT     H149574   0.526   3.021   8.855
16444WAT     H249575   0.681   3.073   8.859
16445WAT      O49576   8.581   0.683   9.392
16445WAT     H149577   8.670   0.638   9.405
16445WAT     H249578   8.517   0.620   9.349
16446WAT      O49579   5.988   6.347   4.176
16446WAT     H149580   5.924   6.344   4.253
16446WAT     H249581   5.967   6.273   4.113
16447WAT      O49582   7.256   7.635   5.915
16447WAT     H149583   7.213   7.710   5.862
16447WAT     H249584   7.235   7.647   6.012
16448WAT      O49585   2.057   4.473   0.333
16448WAT     H149586   2.110   4.545   0.378
16448WAT     H249587   1.972   4.459   0.382
16449WAT      O49588   9.149   8.047   1.767
16449WAT     H149589   9.078   8.077   1.831
16449WAT     H249590   9.229   8.016   1.818
16450WAT      O49591   8.599   2.329   8.716
16450WAT     H149592   8.698   2.340   8.716
16450WAT     H249593   8.568   2.298   8.806
16451WAT      O49594   7.293   8.663   7.208
16451WAT     H149595   7.258   8.588   7.265
16451WAT     H249596   7.309   8.629   7.116
16452WAT      O49597   5.455   4.898   1.012
16452WAT     H149598   5.384   4.943   1.066
16452WAT     H249599   5.421   4.808   0.982
16453WAT      O49600   3.809   7.365   8.229
16453WAT     H149601   3.901   7.398   8.212
16453WAT     H249602   3.780   7.392   8.321
16454WAT      O49603   6.863   1.893   5.767
16454WAT     H149604   6.896   1.963   5.703
16454WAT     H249605   6.897   1.914   5.859
16455WAT      O49606   9.760   9.271   0.346
16455WAT     H149607   9.707   9.211   0.286
16455WAT     H249608   9.849   9.289   0.305
16456WAT      O49609   4.082   8.496   2.707
16456WAT     H149610   3.991   8.534   2.692
16456WAT     H249611   4.151   8.566   2.692
16457WAT      O49612   7.602   0.797   1.455
16457WAT     H149613   7.677   0.845   1.409
16457WAT     H249614   7.534   0.770   1.387
16458WAT      O49615   8.180   8.994   1.966
16458WAT     H149616   8.156   9.085   1.934
16458WAT     H249617   8.229   8.945   1.894
16459WAT      O49618   1.230   9.250   5.415
16459WAT     H149619   1.250   9.270   5.319
16459WAT     H249620   1.209   9.153   5.425
16460WAT      O49621   6.661   5.374   7.066
16460WAT     H149622   6.747   5.374   7.118
16460WAT     H249623   6.656   5.458   7.012
16461WAT      O49624   2.800   9.576   2.370
16461WAT     H149625   2.747   9.618   2.296
16461WAT     H249626   2.873   9.521   2.331
16462WAT      O49627   3.321   5.517   2.163
16462WAT     H149628   3.224   5.534   2.144
16462WAT     H249629   3.356   5.588   2.224
16463WAT      O49630   0.605   1.167   4.539
16463WAT     H149631   0.670   1.173   4.464
16463WAT     H249632   0.523   1.118   4.509
16464WAT      O49633   0.183   6.170   1.433
16464WAT     H149634   0.083   6.175   1.431
16464WAT     H249635   0.211   6.088   1.482
16465WAT      O49636   6.127   2.530   0.935
16465WAT     H149637   6.109   2.624   0.906
16465WAT     H249638   6.089   2.516   1.027
16466WAT      O49639   5.900   8.785   9.421
16466WAT     H149640   5.878   8.876   9.457
16466WAT     H249641   5.945   8.731   9.492
16467WAT      O49642   7.348   3.182   1.682
16467WAT     H149643   7.435   3.139   1.704
16467WAT     H249644   7.290   3.184   1.764
16468WAT      O49645   4.502   1.401   4.322
16468WAT     H149646   4.515   1.312   4.278
16468WAT     H249647   4.406   1.427   4.319
16469WAT      O49648   0.578   2.579   4.809
16469WAT     H149649   0.489   2.600   4.849
16469WAT     H249650   0.572   2.497   4.753
16470WAT      O49651   3.857   1.809   6.020
16470WAT     H149652   3.912   1.735   6.058
16470WAT     H249653   3.784   1.770   5.964
16471WAT      O49654   8.398   9.756   3.548
16471WAT     H149655   8.442   9.720   3.630
16471WAT     H249656   8.393   9.684   3.478
16472WAT      O49657   7.666   1.228   5.980
16472WAT     H149658   7.701   1.184   6.062
16472WAT     H249659   7.742   1.253   5.920
16473WAT      O49660   8.042   9.081   7.395
16473WAT     H149661   8.140   9.061   7.390
16473WAT     H249662   8.015   9.140   7.318
16474WAT      O49663   8.965   2.342   5.587
16474WAT     H149664   9.044   2.404   5.588
16474WAT     H249665   8.884   2.392   5.556
16475WAT      O49666   6.704   6.985   9.048
16475WAT     H149667   6.626   7.026   9.096
16475WAT     H249668   6.677   6.896   9.011
16476WAT      O49669   0.098   0.752   8.193
16476WAT     H149670   0.070   0.659   8.218
16476WAT     H249671   0.193   0.751   8.161
16477WAT      O49672   5.975   0.543   7.092
16477WAT     H149673   5.889   0.565   7.046
16477WAT     H249674   6.007   0.622   7.144
16478WAT      O49675   0.021   3.933   0.871
16478WAT     H149676   0.102   3.883   0.902
16478WAT     H249677  -0.053   3.869   0.852
16479WAT      O49678   2.425   0.570   3.154
16479WAT     H149679   2.475   0.656   3.157
16479WAT     H249680   2.468   0.508   3.088
16480WAT      O49681   3.523   3.291   3.215
16480WAT     H149682   3.543   3.217   3.279
16480WAT     H249683   3.572   3.274   3.129
16481WAT      O49684   7.019   4.787   7.311
16481WAT     H149685   7.118   4.790   7.320
16481WAT     H249686   6.977   4.780   7.402
16482WAT      O49687   1.474   1.025   2.365
16482WAT     H149688   1.512   1.049   2.455
16482WAT     H249689   1.433   1.105   2.323
16483WAT      O49690   6.284   7.589   4.012
16483WAT     H149691   6.293   7.643   4.096
16483WAT     H249692   6.296   7.492   4.033
16484WAT      O49693   3.807   2.161   7.570
16484WAT     H149694   3.895   2.195   7.537
16484WAT     H249695   3.804   2.168   7.670
16485WAT      O49696   8.900   4.261   7.326
16485WAT     H149697   8.832   4.204   7.280
16485WAT     H249698   8.893   4.355   7.291
16486WAT      O49699   3.115   8.010   0.471
16486WAT     H149700   3.043   7.996   0.404
16486WAT     H249701   3.074   8.022   0.562
16487WAT      O49702   0.930   5.275   3.721
16487WAT     H149703   0.985   5.343   3.671
16487WAT     H249704   0.843   5.316   3.749
16488WAT      O49705   6.305   1.481   0.164
16488WAT     H149706   6.363   1.552   0.124
16488WAT     H249707   6.238   1.523   0.225
16489WAT      O49708   3.346   3.120   0.085
16489WAT     H149709   3.248   3.101   0.096
16489WAT     H249710   3.378   3.081  -0.001
16490WAT      O49711   5.461   3.845   6.250
16490WAT     H149712   5.371   3.859   6.209
16490WAT     H249713   5.528   3.905   6.205
16491WAT      O49714   3.525   8.803   7.283
16491WAT     H149715   3.479   8.770   7.201
16491WAT     H249716   3.624   8.800   7.269
16492WAT      O49717   6.815   7.568   3.957
16492WAT     H149718   6.806   7.550   4.055
16492WAT     H249719   6.728   7.551   3.912
16493WAT      O49720   5.999   9.724   6.659
16493WAT     H149721   5.976   9.636   6.702
16493WAT     H249722   5.918   9.782   6.655
16494WAT      O49723   8.268   1.164   0.609
16494WAT     H149724   8.202   1.184   0.538
16494WAT     H249725   8.222   1.121   0.687
16495WAT      O49726   3.139   0.659   6.653
16495WAT     H149727   3.109   0.599   6.728
16495WAT     H249728   3.070   0.660   6.581
16496WAT      O49729   5.392   0.332   7.140
16496WAT     H149730   5.303   0.376   7.146
16496WAT     H249731   5.380   0.234   7.125
16497WAT      O49732   8.059   2.576   0.487
16497WAT     H149733   7.995   2.572   0.410
16497WAT     H249734   8.082   2.672   0.506
16498WAT      O49735   1.856   3.959   5.030
16498WAT     H149736   1.783   3.950   4.963
16498WAT     H249737   1.889   3.869   5.056
16499WAT      O49738   0.976   8.345   0.321
16499WAT     H149739   0.937   8.382   0.237
16499WAT     H249740   1.063   8.301   0.301
16500WAT      O49741   8.194   6.135   5.267
16500WAT     H149742   8.199   6.154   5.365
16500WAT     H249743   8.158   6.043   5.252
16501WAT      O49744   0.238   5.744   6.815
16501WAT     H149745   0.234   5.754   6.915
16501WAT     H249746   0.332   5.758   6.784
16502WAT      O49747   1.137   6.074   7.960
16502WAT     H149748   1.161   6.074   7.863
16502WAT     H249749   1.092   6.161   7.983
16503WAT      O49750   9.415   1.173   4.309
16503WAT     H149751   9.331   1.154   4.360
16503WAT     H249752   9.492   1.127   4.353
16504WAT      O49753   5.549   1.735   9.172
16504WAT     H149754   5.485   1.811   9.162
16504WAT     H249755   5.633   1.769   9.216
16505WAT      O49756   2.476   5.744   2.670
16505WAT     H149757   2.513   5.680   2.737
16505WAT     H249758   2.426   5.817   2.717
16506WAT      O49759   9.291   0.986   5.832
16506WAT     H149760   9.213   0.928   5.857
16506WAT     H249761   9.323   1.034   5.914
16507WAT      O49762   1.808   4.610   7.350
16507WAT     H149763   1.894   4.608   7.400
16507WAT     H249764   1.763   4.698   7.365
16508WAT      O49765   8.671   9.434   4.663
16508WAT     H149766   8.624   9.419   4.576
16508WAT     H249767   8.756   9.382   4.664
16509WAT      O49768   9.452   5.974   3.704
16509WAT     H149769   9.493   6.062   3.682
16509WAT     H249770   9.485   5.904   3.640
16510WAT      O49771   2.751   9.565   1.481
16510WAT     H149772   2.762   9.562   1.382
16510WAT     H249773   2.663   9.606   1.504
16511WAT      O49774   2.907   3.583   4.110
16511WAT     H149775   2.986   3.613   4.057
16511WAT     H249776   2.824   3.618   4.067
16512WAT      O49777   1.434   4.650   1.637
16512WAT     H149778   1.372   4.670   1.561
16512WAT     H249779   1.468   4.736   1.675
16513WAT      O49780   0.670   3.349   9.750
16513WAT     H149781   0.711   3.336   9.660
16513WAT     H249782   0.742   3.371   9.816
16514WAT      O49783   3.850   3.994   1.723
16514WAT     H149784   3.812   3.983   1.814
16514WAT     H249785   3.904   4.078   1.718
16515WAT      O49786   6.020   7.010   2.543
16515WAT     H149787   6.042   7.035   2.637
16515WAT     H249788   5.927   7.039   2.522
16516WAT      O49789   6.566   8.617   2.762
16516WAT     H149790   6.502   8.561   2.709
16516WAT     H249791   6.643   8.643   2.704
16517WAT      O49792   2.781   9.653   7.746
16517WAT     H149793   2.841   9.732   7.761
16517WAT     H249794   2.796   9.586   7.818
16518WAT      O49795   0.899   8.434   1.910
16518WAT     H149796   0.939   8.488   1.984
16518WAT     H249797   0.968   8.370   1.875
16519WAT      O49798   3.271   8.381   4.900
16519WAT     H149799   3.355   8.435   4.898
16519WAT     H249800   3.275   8.317   4.977
16520WAT      O49801   0.349   1.553   5.202
16520WAT     H149802   0.268   1.610   5.216
16520WAT     H249803   0.347   1.476   5.266
16521WAT      O49804   5.077   8.987   5.592
16521WAT     H149805   5.103   9.032   5.506
16521WAT     H249806   5.155   8.936   5.627
16522WAT      O49807   9.697   5.799   4.607
16522WAT     H149808   9.764   5.726   4.591
16522WAT     H249809   9.720   5.846   4.692
16523WAT      O49810   2.303   1.904   1.046
16523WAT     H149811   2.322   1.816   1.089
16523WAT     H249812   2.301   1.975   1.115
16524WAT      O49813   0.616   5.293   8.555
16524WAT     H149814   0.697   5.238   8.535
16524WAT     H249815   0.561   5.303   8.472
16525WAT      O49816   3.457   2.102   6.345
16525WAT     H149817   3.410   2.039   6.283
16525WAT     H249818   3.554   2.078   6.350
16526WAT      O49819   8.867   3.855   7.653
16526WAT     H149820   8.857   3.925   7.724
16526WAT     H249821   8.906   3.896   7.571
16527WAT      O49822   3.201   4.280   9.146
16527WAT     H149823   3.250   4.283   9.059
16527WAT     H249824   3.174   4.186   9.166
16528WAT      O49825   4.987   6.651   4.001
16528WAT     H149826   5.060   6.698   3.952
16528WAT     H249827   5.022   6.618   4.089
16529WAT      O49828   6.845   8.114   8.529
16529WAT     H149829   6.864   8.052   8.452
16529WAT     H249830   6.928   8.125   8.584
16530WAT      O49831   1.516   2.451   0.359
16530WAT     H149832   1.530   2.529   0.298
16530WAT     H249833   1.427   2.410   0.341
16531WAT      O49834   1.211   7.098   0.751
16531WAT     H149835   1.254   7.009   0.765
16531WAT     H249836   1.154   7.095   0.669
16532WAT      O49837   8.717   2.081   6.698
16532WAT     H149838   8.782   2.020   6.653
16532WAT     H249839   8.690   2.043   6.786
16533WAT      O49840   9.476   7.107   3.375
16533WAT     H149841   9.489   7.200   3.409
16533WAT     H249842   9.553   7.050   3.405
16534WAT      O49843   7.869   9.677   9.376
16534WAT     H149844   7.817   9.612   9.432
16534WAT     H249845   7.935   9.725   9.433
16535WAT      O49846   0.078   8.959   7.007
16535WAT     H149847   0.038   9.049   7.027
16535WAT     H249848   0.006   8.894   6.984
16536WAT      O49849   8.719   9.792   5.110
16536WAT     H149850   8.779   9.748   5.177
16536WAT     H249851   8.767   9.800   5.023
16537WAT      O49852   3.893   8.974   2.998
16537WAT     H149853   3.940   8.965   3.086
16537WAT     H249854   3.887   9.070   2.973
16538WAT      O49855   4.755   6.699   0.983
16538WAT     H149856   4.693   6.621   0.976
16538WAT     H249857   4.703   6.784   0.989
16539WAT      O49858   8.444   8.683   4.004
16539WAT     H149859   8.516   8.724   4.059
16539WAT     H249860   8.415   8.597   4.046
16540WAT      O49861   6.035   4.259   6.607
16540WAT     H149862   6.023   4.162   6.586
16540WAT     H249863   5.963   4.312   6.564
16541WAT      O49864   0.091   5.736   0.479
16541WAT     H149865   0.125   5.746   0.572
16541WAT     H249866   0.129   5.807   0.421
16542WAT      O49867   0.774   4.434   7.419
16542WAT     H149868   0.872   4.416   7.429
16542WAT     H249869   0.739   4.477   7.502
16543WAT      O49870   6.319   5.354   7.472
16543WAT     H149871   6.271   5.439   7.451
16543WAT     H249872   6.382   5.332   7.398
16544WAT      O49873   1.001   1.643   4.410
16544WAT     H149874   1.033   1.587   4.334
16544WAT     H249875   1.031   1.603   4.497
16545WAT      O49876   3.889   7.114   4.953
16545WAT     H149877   3.970   7.067   4.917
16545WAT     H249878   3.899   7.212   4.938
16546WAT      O49879   1.186   7.413   3.094
16546WAT     H149880   1.243   7.490   3.126
16546WAT     H249881   1.240   7.355   3.033
16547WAT      O49882   4.655   1.105   2.611
16547WAT     H149883   4.561   1.113   2.577
16547WAT     H249884   4.702   1.193   2.602
16548WAT      O49885   6.901   0.062   3.415
16548WAT     H149886   6.966   0.091   3.344
16548WAT     H249887   6.845  -0.014   3.379
16549WAT      O49888   4.061   6.659   6.589
16549WAT     H149889   4.041   6.697   6.499
16549WAT     H249890   4.022   6.566   6.595
16550WAT      O49891   9.024   7.453   8.743
16550WAT     H149892   8.970   7.536   8.751
16550WAT     H249893   8.983   7.381   8.801
16551WAT      O49894   9.790   2.910   7.607
16551WAT     H149895   9.801   2.956   7.695
16551WAT     H249896   9.878   2.873   7.577
16552WAT      O49897   2.132   4.418   2.603
16552WAT     H149898   2.144   4.517   2.599
16552WAT     H249899   2.095   4.393   2.692
16553WAT      O49900   3.879   7.724   4.854
16553WAT     H149901   3.837   7.735   4.944
16553WAT     H249902   3.809   7.730   4.784
16554WAT      O49903   0.806   3.945   3.498
16554WAT     H149904   0.719   3.987   3.524
16554WAT     H249905   0.840   3.888   3.573
16555WAT      O49906   4.207   2.083   2.773
16555WAT     H149907   4.277   2.144   2.811
16555WAT     H249908   4.252   2.004   2.732
16556WAT      O49909   3.700   6.029   6.124
16556WAT     H149910   3.759   6.059   6.049
16556WAT     H249911   3.737   5.945   6.164
16557WAT      O49912   4.372   7.591   7.460
16557WAT     H149913   4.425   7.555   7.384
16557WAT     H249914   4.320   7.516   7.502
16558WAT      O49915   5.547   6.012   4.653
16558WAT     H149916   5.626   6.072   4.671
16558WAT     H249917   5.550   5.980   4.558
16559WAT      O49918   1.650   7.619   1.015
16559WAT     H149919   1.624   7.611   1.112
16559WAT     H249920   1.616   7.539   0.965
16560WAT      O49921   5.858   5.259   5.526
16560WAT     H149922   5.816   5.333   5.473
16560WAT     H249923   5.911   5.201   5.464
16561WAT      O49924   3.362   5.287   3.961
16561WAT     H149925   3.461   5.294   3.960
16561WAT     H249926   3.323   5.371   3.999
16562WAT      O49927   5.621   4.222   0.690
16562WAT     H149928   5.670   4.143   0.726
16562WAT     H249929   5.580   4.199   0.602
16563WAT      O49930   3.956   6.500   9.162
16563WAT     H149931   4.048   6.459   9.164
16563WAT     H249932   3.923   6.511   9.256
16564WAT      O49933   0.589   5.654   1.548
16564WAT     H149934   0.570   5.561   1.580
16564WAT     H249935   0.577   5.718   1.624
16565WAT      O49936   6.199   9.659   4.462
16565WAT     H149937   6.228   9.601   4.538
16565WAT     H249938   6.120   9.616   4.417
16566WAT      O49939   2.048   0.360   3.580
16566WAT     H149940   2.063   0.458   3.567
16566WAT     H249941   2.136   0.312   3.578
16567WAT      O49942   0.954   1.014   3.256
16567WAT     H149943   1.013   0.965   3.192
16567WAT     H249944   1.010   1.074   3.314
16568WAT      O49945   6.748   5.826   5.019
16568WAT     H149946   6.777   5.921   5.006
16568WAT     H249947   6.702   5.816   5.107
16569WAT      O49948   5.280   4.525   7.367
16569WAT     H149949   5.261   4.428   7.386
16569WAT     H249950   5.379   4.537   7.354
16570WAT      O49951   2.922   4.984   2.140
16570WAT     H149952   2.946   4.887   2.149
16570WAT     H249953   2.976   5.038   2.205
16571WAT      O49954   7.529   6.441   6.247
16571WAT     H149955   7.620   6.457   6.284
16571WAT     H249956   7.460   6.465   6.315
16572WAT      O49957   1.662   4.068   4.344
16572WAT     H149958   1.660   4.015   4.429
16572WAT     H249959   1.574   4.058   4.297
16573WAT      O49960   1.071   5.729   7.872
16573WAT     H149961   1.101   5.787   7.948
16573WAT     H249962   1.066   5.634   7.902
16574WAT      O49963   8.153   7.840   4.419
16574WAT     H149964   8.151   7.834   4.518
16574WAT     H249965   8.101   7.921   4.389
16575WAT      O49966   3.347   4.815   6.792
16575WAT     H149967   3.366   4.794   6.696
16575WAT     H249968   3.393   4.900   6.818
16576WAT      O49969   4.830   7.033   2.381
16576WAT     H149970   4.881   6.947   2.393
16576WAT     H249971   4.866   7.101   2.444
16577WAT      O49972   6.442   6.802   5.227
16577WAT     H149973   6.457   6.710   5.263
16577WAT     H249974   6.346   6.813   5.200
16578WAT      O49975   1.505   1.938   1.497
16578WAT     H149976   1.567   1.997   1.446
16578WAT     H249977   1.497   1.971   1.591
16579WAT      O49978   1.111   5.460   8.869
16579WAT     H149979   1.083   5.549   8.833
16579WAT     H249980   1.143   5.402   8.794
16580WAT      O49981   2.016   1.608   4.148
16580WAT     H149982   1.996   1.681   4.083
16580WAT     H249983   1.991   1.520   4.108
16581WAT      O49984   3.289   4.796   7.371
16581WAT     H149985   3.211   4.852   7.344
16581WAT     H249986   3.373   4.839   7.338
16582WAT      O49987   9.070   8.429   9.836
16582WAT     H149988   8.971   8.426   9.831
16582WAT     H249989   9.107   8.337   9.828
16583WAT      O49990   0.500   6.684   0.026
16583WAT     H149991   0.557   6.757   0.065
16583WAT     H249992   0.463   6.715  -0.061
16584WAT      O49993   1.201   8.548   9.251
16584WAT     H149994   1.268   8.594   9.309
16584WAT     H249995   1.249   8.495   9.180
16585WAT      O49996   5.237   8.170   9.198
16585WAT     H149997   5.150   8.149   9.243
16585WAT     H249998   5.228   8.155   9.099
16586WAT      O49999   2.273   8.690   2.316
16586WAT     H150000   2.336   8.612   2.314
16586WAT     H250001   2.316   8.766   2.363
16587WAT      O50002   9.717   1.320   5.251
16587WAT     H150003   9.794   1.320   5.188
16587WAT     H250004   9.702   1.228   5.287
16588WAT      O50005   6.870   9.275   5.619
16588WAT     H150006   6.962   9.308   5.597
16588WAT     H250007   6.806   9.352   5.617
16589WAT      O50008   6.142   3.663   7.705
16589WAT     H150009   6.163   3.755   7.672
16589WAT     H250010   6.183   3.649   7.795
16590WAT      O50011   6.462   5.784   1.205
16590WAT     H150012   6.384   5.792   1.267
16590WAT     H250013   6.444   5.837   1.122
16591WAT      O50014   0.320   7.903   4.105
16591WAT     H150015   0.231   7.860   4.117
16591WAT     H250016   0.389   7.850   4.155
16592WAT      O50017   2.635   5.071   8.913
16592WAT     H150018   2.585   5.157   8.918
16592WAT     H250019   2.615   5.026   8.825
16593WAT      O50020   6.702   1.260   3.108
16593WAT     H150021   6.651   1.211   3.179
16593WAT     H250022   6.709   1.356   3.133
16594WAT      O50023   4.967   1.629   2.023
16594WAT     H150024   4.900   1.699   1.997
16594WAT     H250025   4.995   1.578   1.941
16595WAT      O50026   0.775   6.469   4.760
16595WAT     H150027   0.766   6.393   4.825
16595WAT     H250028   0.822   6.545   4.805
16596WAT      O50029   8.585   0.292   1.283
16596WAT     H150030   8.572   0.204   1.238
16596WAT     H250031   8.594   0.278   1.382
16597WAT      O50032   7.093   6.813   7.445
16597WAT     H150033   7.117   6.725   7.402
16597WAT     H250034   7.006   6.804   7.493
16598WAT      O50035   4.051   7.279   9.154
16598WAT     H150036   4.010   7.259   9.243
16598WAT     H250037   4.108   7.361   9.161
16599WAT      O50038   6.511   3.847   8.784
16599WAT     H150039   6.592   3.827   8.729
16599WAT     H250040   6.439   3.884   8.725
16600WAT      O50041   0.527   8.548   2.026
16600WAT     H150042   0.474   8.568   1.943
16600WAT     H250043   0.477   8.484   2.084
16601WAT      O50044   9.101   6.629   4.401
16601WAT     H150045   9.136   6.550   4.352
16601WAT     H250046   9.175   6.695   4.415
16602WAT      O50047   7.796   9.076   4.772
16602WAT     H150048   7.837   9.099   4.860
16602WAT     H250049   7.858   9.102   4.698
16603WAT      O50050   8.951   8.596   6.388
16603WAT     H150051   8.855   8.575   6.368
16603WAT     H250052   8.960   8.627   6.482
16604WAT      O50053   7.683   1.484   4.666
16604WAT     H150054   7.630   1.403   4.691
16604WAT     H250055   7.625   1.548   4.617
16605WAT      O50056   7.558   2.397   6.610
16605WAT     H150057   7.501   2.338   6.667
16605WAT     H250058   7.605   2.341   6.542
16606WAT      O50059   8.206   1.713   8.805
16606WAT     H150060   8.211   1.779   8.879
16606WAT     H250061   8.164   1.756   8.725
16607WAT      O50062   2.752   6.204   4.292
16607WAT     H150063   2.767   6.119   4.242
16607WAT     H250064   2.667   6.198   4.343
16608WAT      O50065   2.426   4.118   9.677
16608WAT     H150066   2.407   4.062   9.596
16608WAT     H250067   2.491   4.190   9.653
16609WAT      O50068   4.167   6.540   4.558
16609WAT     H150069   4.068   6.545   4.572
16609WAT     H250070   4.206   6.632   4.567
16610WAT      O50071   4.268   5.766   7.193
16610WAT     H150072   4.311   5.716   7.268
16610WAT     H250073   4.257   5.862   7.219
16611WAT      O50074   3.446   7.113   8.112
16611WAT     H150075   3.437   7.117   8.013
16611WAT     H250076   3.389   7.184   8.154
16612WAT      O50077   1.440   2.357   1.204
16612WAT     H150078   1.380   2.399   1.136
16612WAT     H250079   1.533   2.393   1.195
16613WAT      O50080   1.756   3.799   6.140
16613WAT     H150081   1.818   3.724   6.117
16613WAT     H250082   1.777   3.878   6.083
16614WAT      O50083   0.327   7.199   0.011
16614WAT     H150084   0.329   7.138  -0.068
16614WAT     H250085   0.387   7.162   0.082
16615WAT      O50086   0.789   4.171   9.597
16615WAT     H150087   0.767   4.097   9.533
16615WAT     H250088   0.844   4.135   9.672
16616WAT      O50089   6.656   9.808   7.956
16616WAT     H150090   6.569   9.820   8.005
16616WAT     H250091   6.686   9.713   7.966
16617WAT      O50092   8.887   8.491   8.509
16617WAT     H150093   8.849   8.480   8.417
16617WAT     H250094   8.832   8.557   8.560
16618WAT      O50095   4.221   5.913   1.076
16618WAT     H150096   4.207   5.922   0.977
16618WAT     H250097   4.140   5.947   1.125
16619WAT      O50098   3.280   0.328   5.977
16619WAT     H150099   3.250   0.308   6.070
16619WAT     H250100   3.201   0.357   5.922
16620WAT      O50101   3.628   3.419   0.369
16620WAT     H150102   3.645   3.321   0.377
16620WAT     H250103   3.709   3.464   0.330
16621WAT      O50104   1.633   1.359   3.131
16621WAT     H150105   1.714   1.360   3.190
16621WAT     H250106   1.569   1.429   3.162
16622WAT      O50107   8.573   2.613   2.125
16622WAT     H150108   8.491   2.604   2.069
16622WAT     H250109   8.562   2.692   2.186
16623WAT      O50110   9.341   8.152   6.532
16623WAT     H150111   9.265   8.210   6.503
16623WAT     H250112   9.425   8.181   6.486
16624WAT      O50113   5.827   3.810   3.727
16624WAT     H150114   5.756   3.870   3.692
16624WAT     H250115   5.896   3.795   3.656
16625WAT      O50116   4.615   4.203   6.527
16625WAT     H150117   4.649   4.197   6.433
16625WAT     H250118   4.594   4.298   6.549
16626WAT      O50119   2.707   1.256   8.993
16626WAT     H150120   2.733   1.352   9.003
16626WAT     H250121   2.653   1.245   8.909
16627WAT      O50122   7.458   0.158   1.149
16627WAT     H150123   7.488   0.069   1.115
16627WAT     H250124   7.521   0.190   1.219
16628WAT      O50125   2.673   4.322   1.819
16628WAT     H150126   2.609   4.302   1.894
16628WAT     H250127   2.766   4.314   1.853
16629WAT      O50128   5.292   6.893   1.981
16629WAT     H150129   5.222   6.964   1.981
16629WAT     H250130   5.319   6.873   1.887
16630WAT      O50131   0.058   7.245   0.922
16630WAT     H150132   0.133   7.312   0.912
16630WAT     H250133  -0.023   7.291   0.959
16631WAT      O50134   1.417   0.550   3.288
16631WAT     H150135   1.435   0.620   3.357
16631WAT     H250136   1.502   0.525   3.242
16632WAT      O50137   6.688   5.396   9.157
16632WAT     H150138   6.784   5.372   9.175
16632WAT     H250139   6.684   5.487   9.117
16633WAT      O50140   4.403   4.419   1.761
16633WAT     H150141   4.428   4.359   1.837
16633WAT     H250142   4.475   4.418   1.693
16634WAT      O50143   1.334   4.594   6.042
16634WAT     H150144   1.385   4.522   5.996
16634WAT     H250145   1.236   4.578   6.032
16635WAT      O50146   9.375   5.388   1.098
16635WAT     H150147   9.331   5.401   1.009
16635WAT     H250148   9.346   5.460   1.160
16636WAT      O50149   4.391   9.579   9.634
16636WAT     H150150   4.385   9.669   9.678
16636WAT     H250151   4.299   9.542   9.622
16637WAT      O50152   7.008   7.868   2.887
16637WAT     H150153   7.074   7.940   2.866
16637WAT     H250154   6.948   7.854   2.809
16638WAT      O50155   4.479   3.936   7.363
16638WAT     H150156   4.575   3.958   7.378
16638WAT     H250157   4.422   4.001   7.413
16639WAT      O50158   2.047   8.046   4.286
16639WAT     H150159   2.099   7.994   4.354
16639WAT     H250160   2.109   8.106   4.235
16640WAT      O50161   8.203   7.370   3.791
16640WAT     H150162   8.252   7.457   3.784
16640WAT     H250163   8.152   7.354   3.706
16641WAT      O50164   0.443   6.107   5.566
16641WAT     H150165   0.525   6.071   5.523
16641WAT     H250166   0.393   6.033   5.610
16642WAT      O50167   0.787   0.693   8.039
16642WAT     H150168   0.768   0.640   8.121
16642WAT     H250169   0.763   0.640   7.958
16643WAT      O50170   3.275   6.319   0.212
16643WAT     H150171   3.373   6.340   0.221
16643WAT     H250172   3.247   6.261   0.288
16644WAT      O50173   9.869   0.085   3.169
16644WAT     H150174   9.967   0.096   3.154
16644WAT     H250175   9.821   0.093   3.082
16645WAT      O50176   8.017   0.033   8.056
16645WAT     H150177   8.022  -0.043   8.121
16645WAT     H250178   8.085   0.019   7.984
16646WAT      O50179   4.881   4.602   1.286
16646WAT     H150180   4.820   4.524   1.272
16646WAT     H250181   4.918   4.631   1.199
16647WAT      O50182   6.131   6.600   3.402
16647WAT     H150183   6.069   6.605   3.480
16647WAT     H250184   6.222   6.573   3.434
16648WAT      O50185   4.599   2.494   2.495
16648WAT     H150186   4.616   2.410   2.443
16648WAT     H250187   4.574   2.471   2.589
16649WAT      O50188   4.438   8.747   7.354
16649WAT     H150189   4.378   8.749   7.274
16649WAT     H250190   4.502   8.670   7.347
16650WAT      O50191   5.974   5.108   5.346
16650WAT     H150192   6.021   5.024   5.373
16650WAT     H250193   5.964   5.110   5.246
16651WAT      O50194   0.641   0.388   7.016
16651WAT     H150195   0.720   0.366   6.958
16651WAT     H250196   0.557   0.376   6.962
16652WAT      O50197   9.665   6.080   6.551
16652WAT     H150198   9.600   6.009   6.525
16652WAT     H250199   9.674   6.146   6.476
16653WAT      O50200   7.969   2.206   1.999
16653WAT     H150201   8.047   2.151   2.031
16653WAT     H250202   7.992   2.248   1.911
16654WAT      O50203   5.450   0.275   6.127
16654WAT     H150204   5.351   0.280   6.138
16654WAT     H250205   5.477   0.321   6.042
16655WAT      O50206   2.013   4.991   2.027
16655WAT     H150207   2.046   5.084   2.012
16655WAT     H250208   2.008   4.972   2.125
16656WAT      O50209   8.660   4.315   2.432
16656WAT     H150210   8.731   4.247   2.417
16656WAT     H250211   8.570   4.275   2.414
16657WAT      O50212   7.573   1.152   5.047
16657WAT     H150213   7.635   1.153   5.126
16657WAT     H250214   7.492   1.207   5.068
16658WAT      O50215   3.510   3.084   3.603
16658WAT     H150216   3.440   3.128   3.659
16658WAT     H250217   3.515   2.987   3.626
16659WAT      O50218   4.589   2.063   1.873
16659WAT     H150219   4.617   2.086   1.779
16659WAT     H250220   4.661   2.088   1.937
16660WAT      O50221   3.890   3.556   7.502
16660WAT     H150222   3.866   3.603   7.587
16660WAT     H250223   3.853   3.463   7.505
16661WAT      O50224   1.634   4.504   5.100
16661WAT     H150225   1.697   4.455   5.039
16661WAT     H250226   1.543   4.504   5.060
16662WAT      O50227   5.202   2.840   0.766
16662WAT     H150228   5.221   2.938   0.774
16662WAT     H250229   5.276   2.796   0.715
16663WAT      O50230   2.952   7.717   7.562
16663WAT     H150231   3.036   7.759   7.597
16663WAT     H250232   2.956   7.618   7.576
16664WAT      O50233   4.892   5.885   5.697
16664WAT     H150234   4.973   5.928   5.738
16664WAT     H250235   4.848   5.827   5.765
16665WAT      O50236   8.463   4.926   0.566
16665WAT     H150237   8.417   4.885   0.487
16665WAT     H250238   8.398   4.983   0.617
16666WAT      O50239   9.500   7.207   7.441
16666WAT     H150240   9.445   7.287   7.419
16666WAT     H250241   9.585   7.209   7.389
16667WAT      O50242   4.299   3.974   2.266
16667WAT     H150243   4.290   4.072   2.252
16667WAT     H250244   4.382   3.955   2.319
16668WAT      O50245   1.560   4.776   8.681
16668WAT     H150246   1.562   4.777   8.581
16668WAT     H250247   1.646   4.813   8.716
16669WAT      O50248   5.875   3.585   8.021
16669WAT     H150249   5.818   3.664   8.044
16669WAT     H250250   5.863   3.562   7.925
16670WAT      O50251   3.184   1.606   3.691
16670WAT     H150252   3.187   1.514   3.652
16670WAT     H250253   3.209   1.673   3.621
16671WAT      O50254   2.184   1.163   4.826
16671WAT     H150255   2.126   1.183   4.905
16671WAT     H250256   2.149   1.211   4.746
16672WAT      O50257   4.259   7.582   3.038
16672WAT     H150258   4.262   7.678   3.067
16672WAT     H250259   4.317   7.527   3.099
16673WAT      O50260   0.441   6.236   4.223
16673WAT     H150261   0.506   6.275   4.288
16673WAT     H250262   0.490   6.181   4.155
16674WAT      O50263   1.178   5.589   6.848
16674WAT     H150264   1.228   5.644   6.781
16674WAT     H250265   1.145   5.505   6.805
16675WAT      O50266   0.486   5.813   4.008
16675WAT     H150267   0.387   5.819   3.992
16675WAT     H250268   0.531   5.893   3.970
16676WAT      O50269   2.491   6.230   5.663
16676WAT     H150270   2.460   6.319   5.631
16676WAT     H250271   2.419   6.188   5.719
16677WAT      O50272   2.256   7.598   6.995
16677WAT     H150273   2.254   7.515   7.051
16677WAT     H250274   2.227   7.676   7.050
16678WAT      O50275   3.405   9.235   9.596
16678WAT     H150276   3.452   9.265   9.513
16678WAT     H250277   3.467   9.245   9.675
16679WAT      O50278   6.972   2.137   3.733
16679WAT     H150279   6.897   2.198   3.709
16679WAT     H250280   7.011   2.098   3.649
16680WAT      O50281   4.009   5.133   8.515
16680WAT     H150282   3.973   5.225   8.499
16680WAT     H250283   3.936   5.066   8.505
16681WAT      O50284   5.571   8.979   2.728
16681WAT     H150285   5.625   8.906   2.769
16681WAT     H250286   5.555   9.051   2.796
16682WAT      O50287   8.299   6.200   6.179
16682WAT     H150288   8.238   6.206   6.100
16682WAT     H250289   8.278   6.273   6.244
16683WAT      O50290   7.068   7.610   6.126
16683WAT     H150291   7.049   7.610   6.224
16683WAT     H250292   7.000   7.666   6.078
16684WAT      O50293   6.203   9.554   7.046
16684WAT     H150294   6.196   9.613   7.126
16684WAT     H250295   6.172   9.604   6.965
16685WAT      O50296   0.171   6.304   5.053
16685WAT     H150297   0.086   6.296   5.105
16685WAT     H250298   0.238   6.355   5.106
16686WAT      O50299   0.262   2.011   3.105
16686WAT     H150300   0.172   2.002   3.148
16686WAT     H250301   0.329   1.960   3.159
16687WAT      O50302   9.650   9.707   5.920
16687WAT     H150303   9.563   9.737   5.879
16687WAT     H250304   9.726   9.732   5.860
16688WAT      O50305   2.828   6.853   7.154
16688WAT     H150306   2.783   6.772   7.116
16688WAT     H250307   2.902   6.881   7.093
16689WAT      O50308   4.293   0.215   4.345
16689WAT     H150309   4.218   0.155   4.318
16689WAT     H250310   4.377   0.162   4.353
16690WAT      O50311   1.926   1.955   2.771
16690WAT     H150312   1.862   1.971   2.846
16690WAT     H250313   1.880   1.903   2.699
16691WAT      O50314   4.136   6.570   7.957
16691WAT     H150315   4.142   6.669   7.968
16691WAT     H250316   4.162   6.545   7.863
16692WAT      O50317   8.511   3.432   2.239
16692WAT     H150318   8.540   3.357   2.179
16692WAT     H250319   8.412   3.426   2.253
16693WAT      O50320   2.868   2.213   0.368
16693WAT     H150321   2.962   2.216   0.401
16693WAT     H250322   2.805   2.229   0.443
16694WAT      O50323   1.562   8.965   8.744
16694WAT     H150324   1.562   9.006   8.835
16694WAT     H250325   1.471   8.977   8.703
16695WAT      O50326   9.788   3.124   1.584
16695WAT     H150327   9.730   3.200   1.617
16695WAT     H250328   9.749   3.037   1.615
16696WAT      O50329   1.357   5.991   7.253
16696WAT     H150330   1.334   5.922   7.185
16696WAT     H250331   1.386   6.075   7.206
16697WAT      O50332   0.360   0.984   1.030
16697WAT     H150333   0.284   0.923   1.056
16697WAT     H250334   0.435   0.930   0.993
16698WAT      O50335   2.534   3.900   2.743
16698WAT     H150336   2.535   3.839   2.822
16698WAT     H250337   2.554   3.848   2.660
16699WAT      O50338   8.580   0.922   3.340
16699WAT     H150339   8.506   0.897   3.277
16699WAT     H250340   8.545   0.921   3.434
16700WAT      O50341   5.059   9.476   4.631
16700WAT     H150342   4.991   9.507   4.698
16700WAT     H250343   5.142   9.448   4.678
16701WAT      O50344   1.235   7.941   1.608
16701WAT     H150345   1.140   7.955   1.579
16701WAT     H250346   1.295   8.002   1.557
16702WAT      O50347   9.020   2.933   4.128
16702WAT     H150348   9.010   2.876   4.046
16702WAT     H250349   8.930   2.959   4.162
16703WAT      O50350   5.039   0.447   2.156
16703WAT     H150351   5.110   0.485   2.098
16703WAT     H250352   5.019   0.511   2.231
16704WAT      O50353   2.158   9.251   4.601
16704WAT     H150354   2.230   9.278   4.665
16704WAT     H250355   2.166   9.305   4.517
16705WAT      O50356   8.505   3.752   3.922
16705WAT     H150357   8.447   3.710   3.852
16705WAT     H250358   8.450   3.813   3.979
16706WAT      O50359   4.866   9.052   0.331
16706WAT     H150360   4.917   9.138   0.335
16706WAT     H250361   4.774   9.071   0.297
16707WAT      O50362   8.878   5.643   9.333
16707WAT     H150363   8.968   5.640   9.288
16707WAT     H250364   8.858   5.736   9.361
16708WAT      O50365   7.343   7.971   5.424
16708WAT     H150366   7.348   7.871   5.432
16708WAT     H250367   7.433   8.008   5.404
16709WAT      O50368   0.008   3.924   4.671
16709WAT     H150369   0.073   3.863   4.717
16709WAT     H250370  -0.049   3.870   4.609
16710WAT      O50371   7.838   3.666   2.558
16710WAT     H150372   7.812   3.622   2.473
16710WAT     H250373   7.929   3.634   2.587
16711WAT      O50374   1.286   3.876   5.113
16711WAT     H150375   1.198   3.917   5.086
16711WAT     H250376   1.352   3.949   5.130
16712WAT      O50377   7.797   6.263   8.762
16712WAT     H150378   7.886   6.243   8.721
16712WAT     H250379   7.762   6.349   8.725
16713WAT      O50380   2.490   8.044   9.260
16713WAT     H150381   2.555   8.105   9.214
16713WAT     H250382   2.401   8.050   9.215
16714WAT      O50383   1.392   9.358   8.048
16714WAT     H150384   1.408   9.347   8.146
16714WAT     H250385   1.358   9.450   8.030
16715WAT      O50386   3.523   8.994   7.778
16715WAT     H150387   3.430   9.026   7.790
16715WAT     H250388   3.544   8.925   7.848
16716WAT      O50389   8.545   8.763   0.872
16716WAT     H150390   8.469   8.771   0.808
16716WAT     H250391   8.586   8.853   0.887
16717WAT      O50392   1.539   6.663   6.277
16717WAT     H150393   1.480   6.663   6.357
16717WAT     H250394   1.581   6.754   6.266
16718WAT      O50395   2.659   1.413   6.901
16718WAT     H150396   2.729   1.344   6.883
16718WAT     H250397   2.693   1.478   6.968
16719WAT      O50398   4.757   8.559   9.653
16719WAT     H150399   4.769   8.612   9.569
16719WAT     H250400   4.845   8.525   9.684
16720WAT      O50401   2.819   5.900   6.781
16720WAT     H150402   2.866   5.838   6.718
16720WAT     H250403   2.729   5.923   6.744
16721WAT      O50404   7.108   9.389   2.943
16721WAT     H150405   7.065   9.471   2.980
16721WAT     H250406   7.201   9.381   2.979
16722WAT      O50407   6.150   6.112   6.042
16722WAT     H150408   6.104   6.194   6.012
16722WAT     H250409   6.168   6.118   6.141
16723WAT      O50410   5.068   3.355   8.153
16723WAT     H150411   5.079   3.262   8.117
16723WAT     H250412   5.005   3.354   8.230
16724WAT      O50413   0.097   2.297   3.228
16724WAT     H150414   0.156   2.232   3.276
16724WAT     H250415   0.063   2.256   3.143
16725WAT      O50416   1.783   4.692   6.189
16725WAT     H150417   1.854   4.655   6.128
16725WAT     H250418   1.753   4.621   6.252
16726WAT      O50419   1.357   5.515   9.755
16726WAT     H150420   1.398   5.580   9.819
16726WAT     H250421   1.379   5.422   9.783
16727WAT      O50422   4.932   3.478   2.734
16727WAT     H150423   4.839   3.463   2.702
16727WAT     H250424   4.930   3.517   2.827
16728WAT      O50425   7.727   0.539   8.533
16728WAT     H150426   7.656   0.608   8.517
16728WAT     H250427   7.694   0.450   8.502
16729WAT      O50428   3.101   6.413   5.528
16729WAT     H150429   3.163   6.349   5.573
16729WAT     H250430   3.125   6.420   5.431
16730WAT      O50431   1.503   1.773   9.658
16730WAT     H150432   1.446   1.691   9.660
16730WAT     H250433   1.560   1.772   9.576
16731WAT      O50434   1.686   3.568   7.080
16731WAT     H150435   1.601   3.577   7.028
16731WAT     H250436   1.733   3.485   7.051
16732WAT      O50437   8.463   7.703   4.045
16732WAT     H150438   8.478   7.626   4.107
16732WAT     H250439   8.399   7.768   4.086
16733WAT      O50440   3.899   0.871   9.576
16733WAT     H150441   3.929   0.963   9.603
16733WAT     H250442   3.915   0.807   9.652
16734WAT      O50443   4.079   6.876   8.874
16734WAT     H150444   4.065   6.781   8.904
16734WAT     H250445   3.990   6.921   8.865
16735WAT      O50446   2.742   7.040   4.816
16735WAT     H150447   2.741   6.995   4.727
16735WAT     H250448   2.714   7.136   4.806
16736WAT      O50449   3.408   4.079   0.658
16736WAT     H150450   3.370   4.006   0.714
16736WAT     H250451   3.356   4.086   0.573
16737WAT      O50452   2.352   2.419   5.582
16737WAT     H150453   2.442   2.462   5.590
16737WAT     H250454   2.363   2.320   5.591
16738WAT      O50455   3.870   4.963   0.515
16738WAT     H150456   3.872   4.863   0.513
16738WAT     H250457   3.886   4.999   0.423
16739WAT      O50458   5.255   4.381   2.393
16739WAT     H150459   5.215   4.443   2.460
16739WAT     H250460   5.293   4.434   2.318
16740WAT      O50461   4.100   6.284   1.488
16740WAT     H150462   4.034   6.251   1.556
16740WAT     H250463   4.125   6.378   1.510
16741WAT      O50464   0.783   9.677   2.036
16741WAT     H150465   0.713   9.688   2.107
16741WAT     H250466   0.769   9.747   1.965
16742WAT      O50467   0.385   6.979   4.128
16742WAT     H150468   0.458   6.913   4.112
16742WAT     H250469   0.424   7.063   4.164
16743WAT      O50470   9.488   2.758   8.474
16743WAT     H150471   9.437   2.842   8.458
16743WAT     H250472   9.581   2.780   8.500
16744WAT      O50473   6.809   4.809   2.975
16744WAT     H150474   6.810   4.906   2.999
16744WAT     H250475   6.761   4.758   3.048
16745WAT      O50476   7.253   2.143   8.284
16745WAT     H150477   7.266   2.100   8.373
16745WAT     H250478   7.268   2.076   8.211
16746WAT      O50479   6.670   0.062   1.173
16746WAT     H150480   6.746   0.015   1.218
16746WAT     H250481   6.705   0.118   1.097
16747WAT      O50482   3.493   8.978   6.454
16747WAT     H150483   3.509   9.075   6.440
16747WAT     H250484   3.545   8.947   6.534
16748WAT      O50485   0.037   3.908   1.405
16748WAT     H150486   0.067   3.899   1.499
16748WAT     H250487   0.106   3.958   1.352
16749WAT      O50488   8.752   4.953   3.558
16749WAT     H150489   8.841   4.934   3.600
16749WAT     H250490   8.691   4.991   3.627
16750WAT      O50491   9.841   0.819   3.524
16750WAT     H150492   9.936   0.850   3.529
16750WAT     H250493   9.810   0.822   3.428
16751WAT      O50494   2.085   0.329   7.836
16751WAT     H150495   1.994   0.291   7.852
16751WAT     H250496   2.154   0.261   7.860
16752WAT      O50497   2.728   5.592   7.125
16752WAT     H150498   2.647   5.593   7.067
16752WAT     H250499   2.793   5.661   7.094
16753WAT      O50500   7.487   8.500   1.479
16753WAT     H150501   7.423   8.453   1.419
16753WAT     H250502   7.531   8.575   1.430
16754WAT      O50503   2.604   5.077   4.426
16754WAT     H150504   2.565   5.140   4.359
16754WAT     H250505   2.666   5.013   4.380
16755WAT      O50506   8.980   1.172   3.178
16755WAT     H150507   8.973   1.187   3.079
16755WAT     H250508   9.035   1.244   3.219
16756WAT      O50509   2.817   6.649   9.491
16756WAT     H150510   2.745   6.633   9.423
16756WAT     H250511   2.852   6.561   9.524
16757WAT      O50512   9.320   0.115   0.142
16757WAT     H150513   9.220   0.117   0.137
16757WAT     H250514   9.357   0.066   0.063
16758WAT      O50515   7.360   3.742   3.655
16758WAT     H150516   7.352   3.716   3.559
16758WAT     H250517   7.424   3.680   3.701
16759WAT      O50518   1.783   0.932   4.058
16759WAT     H150519   1.882   0.924   4.049
16759WAT     H250520   1.743   0.961   3.971
16760WAT      O50521   1.781   4.161   7.049
16760WAT     H150522   1.730   4.075   7.047
16760WAT     H250523   1.745   4.223   6.980
16761WAT      O50524   9.604   5.100   6.687
16761WAT     H150525   9.653   5.176   6.728
16761WAT     H250526   9.653   5.069   6.606
16762WAT      O50527   4.200   6.123   2.252
16762WAT     H150528   4.197   6.066   2.170
16762WAT     H250529   4.205   6.220   2.225
16763WAT      O50530   3.767   8.773   3.974
16763WAT     H150531   3.691   8.725   3.930
16763WAT     H250532   3.751   8.871   3.971
16764WAT      O50533   9.352   3.582   8.669
16764WAT     H150534   9.292   3.509   8.702
16764WAT     H250535   9.446   3.547   8.662
16765WAT      O50536   6.489   3.560   2.329
16765WAT     H150537   6.397   3.564   2.366
16765WAT     H250538   6.486   3.566   2.229
16766WAT      O50539   6.246   5.045   1.694
16766WAT     H150540   6.266   5.138   1.726
16766WAT     H250541   6.275   4.979   1.762
16767WAT      O50542   7.674   0.904   3.974
16767WAT     H150543   7.626   0.980   3.931
16767WAT     H250544   7.772   0.925   3.980
16768WAT      O50545   1.819   6.078   6.568
16768WAT     H150546   1.823   5.988   6.526
16768WAT     H250547   1.817   6.068   6.668
16769WAT      O50548   2.625   6.180   8.955
16769WAT     H150549   2.564   6.186   8.876
16769WAT     H250550   2.619   6.264   9.009
16770WAT      O50551   1.295   2.986   4.023
16770WAT     H150552   1.391   3.010   4.011
16770WAT     H250553   1.283   2.942   4.112
16771WAT      O50554   2.013   4.649   2.629
16771WAT     H150555   2.050   4.728   2.678
16771WAT     H250556   1.922   4.627   2.664
16772WAT      O50557   0.405   6.340   5.676
16772WAT     H150558   0.410   6.249   5.636
16772WAT     H250559   0.321   6.347   5.731
16773WAT      O50560   7.503   2.965   2.085
16773WAT     H150561   7.495   3.063   2.108
16773WAT     H250562   7.485   2.910   2.167
16774WAT      O50563   0.058   0.800   8.913
16774WAT     H150564   0.068   0.883   8.857
16774WAT     H250565   0.125   0.732   8.883
16775WAT      O50566   1.901   4.925   3.651
16775WAT     H150567   1.812   4.886   3.676
16775WAT     H250568   1.972   4.856   3.664
16776WAT      O50569   7.814   3.463   4.463
16776WAT     H150570   7.867   3.546   4.475
16776WAT     H250571   7.875   3.387   4.442
16777WAT      O50572   9.668   4.104   8.782
16777WAT     H150573   9.678   4.009   8.754
16777WAT     H250574   9.572   4.132   8.772
16778WAT      O50575   0.659   5.659   0.704
16778WAT     H150576   0.681   5.714   0.623
16778WAT     H250577   0.692   5.706   0.786
16779WAT      O50578   5.011   2.287   9.816
16779WAT     H150579   4.937   2.313   9.754
16779WAT     H250580   5.078   2.231   9.767
16780WAT      O50581   7.326   2.693   3.680
16780WAT     H150582   7.355   2.696   3.584
16780WAT     H250583   7.239   2.743   3.690
16781WAT      O50584   0.002   0.412   2.551
16781WAT     H150585   0.080   0.470   2.527
16781WAT     H250586   0.031   0.316   2.552
16782WAT      O50587   1.841   3.589   3.234
16782WAT     H150588   1.797   3.550   3.314
16782WAT     H250589   1.778   3.586   3.156
16783WAT      O50590   2.087   6.533   2.120
16783WAT     H150591   2.099   6.622   2.076
16783WAT     H250592   2.033   6.543   2.203
16784WAT      O50593   7.550   1.926   8.530
16784WAT     H150594   7.609   1.995   8.572
16784WAT     H250595   7.455   1.956   8.537
16785WAT      O50596   0.141   7.910   9.389
16785WAT     H150597   0.235   7.906   9.422
16785WAT     H250598   0.125   7.833   9.327
16786WAT      O50599   3.463   0.126   3.925
16786WAT     H150600   3.500   0.128   4.018
16786WAT     H250601   3.389   0.194   3.917
16787WAT      O50602   2.944   0.901   0.789
16787WAT     H150603   2.879   0.938   0.724
16787WAT     H250604   2.965   0.806   0.765
16788WAT      O50605   6.295   3.151   2.365
16788WAT     H150606   6.317   3.168   2.461
16788WAT     H250607   6.237   3.071   2.357
16789WAT      O50608   7.545   5.656   0.875
16789WAT     H150609   7.592   5.689   0.957
16789WAT     H250610   7.608   5.600   0.821
16790WAT      O50611   2.167   2.994   8.848
16790WAT     H150612   2.084   3.004   8.902
16790WAT     H250613   2.181   3.078   8.794
16791WAT      O50614   7.984   6.161   9.214
16791WAT     H150615   8.019   6.108   9.291
16791WAT     H250616   7.977   6.257   9.241
16792WAT      O50617   4.187   6.071   6.908
16792WAT     H150618   4.166   6.126   6.988
16792WAT     H250619   4.200   6.130   6.828
16793WAT      O50620   2.513   1.716   8.652
16793WAT     H150621   2.496   1.741   8.556
16793WAT     H250622   2.600   1.668   8.659
16794WAT      O50623   0.830   3.742   7.588
16794WAT     H150624   0.796   3.833   7.611
16794WAT     H250625   0.927   3.747   7.564
16795WAT      O50626   2.778   6.607   7.737
16795WAT     H150627   2.873   6.638   7.738
16795WAT     H250628   2.775   6.508   7.751
16796WAT      O50629   0.237   5.525   2.190
16796WAT     H150630   0.166   5.531   2.120
16796WAT     H250631   0.317   5.478   2.154
16797WAT      O50632   0.445   4.723   5.365
16797WAT     H150633   0.380   4.646   5.371
16797WAT     H250634   0.439   4.778   5.448
16798WAT      O50635   1.916   5.289   1.178
16798WAT     H150636   2.013   5.266   1.180
16798WAT     H250637   1.885   5.292   1.083
16799WAT      O50638   1.778   6.542   8.592
16799WAT     H150639   1.685   6.563   8.562
16799WAT     H250640   1.828   6.628   8.607
16800WAT      O50641   1.598   6.385   2.840
16800WAT     H150642   1.608   6.311   2.907
16800WAT     H250643   1.687   6.404   2.798
16801WAT      O50644   6.859   8.106   6.487
16801WAT     H150645   6.774   8.094   6.436
16801WAT     H250646   6.874   8.204   6.506
16802WAT      O50647   6.884   5.830   6.282
16802WAT     H150648   6.831   5.818   6.198
16802WAT     H250649   6.890   5.743   6.331
16803WAT      O50650   8.615   9.463   7.847
16803WAT     H150651   8.694   9.473   7.788
16803WAT     H250652   8.538   9.427   7.795
16804WAT      O50653   3.063   2.415   6.413
16804WAT     H150654   3.083   2.398   6.317
16804WAT     H250655   3.093   2.337   6.468
16805WAT      O50656   1.075   0.166   9.470
16805WAT     H150657   1.100   0.080   9.514
16805WAT     H250658   1.003   0.211   9.523
16806WAT      O50659   6.073   9.650   3.273
16806WAT     H150660   6.023   9.582   3.220
16806WAT     H250661   6.121   9.604   3.349
16807WAT      O50662   2.109   8.135   4.605
16807WAT     H150663   2.159   8.200   4.663
16807WAT     H250664   2.172   8.096   4.537
16808WAT      O50665   5.474   7.042   2.906
16808WAT     H150666   5.503   6.953   2.871
16808WAT     H250667   5.493   7.112   2.837
16809WAT      O50668   9.752   8.692   6.964
16809WAT     H150669   9.699   8.609   6.980
16809WAT     H250670   9.738   8.756   7.039
16810WAT      O50671   5.528   0.902   1.314
16810WAT     H150672   5.509   0.998   1.335
16810WAT     H250673   5.626   0.891   1.298
16811WAT      O50674   1.400   8.805   4.697
16811WAT     H150675   1.366   8.753   4.775
16811WAT     H250676   1.440   8.742   4.630
16812WAT      O50677   7.554   2.463   7.604
16812WAT     H150678   7.528   2.368   7.618
16812WAT     H250679   7.642   2.467   7.558
16813WAT      O50680   5.565   6.077   0.396
16813WAT     H150681   5.586   6.122   0.483
16813WAT     H250682   5.469   6.091   0.373
16814WAT      O50683   5.042   2.128   8.385
16814WAT     H150684   4.997   2.176   8.460
16814WAT     H250685   5.132   2.097   8.416
16815WAT      O50686   7.455   8.756   3.764
16815WAT     H150687   7.542   8.784   3.805
16815WAT     H250688   7.442   8.657   3.778
16816WAT      O50689   4.462   6.445   1.913
16816WAT     H150690   4.523   6.510   1.869
16816WAT     H250691   4.445   6.368   1.852
16817WAT      O50692   5.369   8.918   5.607
16817WAT     H150693   5.361   8.828   5.650
16817WAT     H250694   5.459   8.927   5.565
16818WAT      O50695   0.324   4.188   6.293
16818WAT     H150696   0.350   4.224   6.204
16818WAT     H250697   0.224   4.184   6.300
16819WAT      O50698   1.001   4.325   4.635
16819WAT     H150699   1.053   4.245   4.604
16819WAT     H250700   0.918   4.334   4.581
16820WAT      O50701   4.405   0.654   5.565
16820WAT     H150702   4.322   0.672   5.511
16820WAT     H250703   4.410   0.718   5.641
16821WAT      O50704   8.803   5.169   5.043
16821WAT     H150705   8.888   5.173   5.094
16821WAT     H250706   8.728   5.204   5.099
16822WAT      O50707   4.426   4.513   6.255
16822WAT     H150708   4.493   4.585   6.273
16822WAT     H250709   4.445   4.470   6.167
16823WAT      O50710   3.239   6.851   6.828
16823WAT     H150711   3.285   6.765   6.851
16823WAT     H250712   3.198   6.843   6.737
16824WAT      O50713   9.385   2.643   7.897
16824WAT     H150714   9.326   2.636   7.977
16824WAT     H250715   9.330   2.645   7.814
16825WAT      O50716   6.679   1.442   5.780
16825WAT     H150717   6.770   1.400   5.775
16825WAT     H250718   6.609   1.370   5.771
16826WAT      O50719   1.296   5.018   7.238
16826WAT     H150720   1.377   5.022   7.296
16826WAT     H250721   1.323   4.998   7.144
16827WAT      O50722   8.268   5.203   2.484
16827WAT     H150723   8.292   5.259   2.405
16827WAT     H250724   8.346   5.199   2.547
16828WAT      O50725   1.169   6.907   3.748
16828WAT     H150726   1.121   6.929   3.833
16828WAT     H250727   1.149   6.978   3.680
16829WAT      O50728   6.163   0.497   8.619
16829WAT     H150729   6.083   0.543   8.656
16829WAT     H250730   6.187   0.419   8.678
16830WAT      O50731   3.815   9.614   8.029
16830WAT     H150732   3.718   9.620   8.052
16830WAT     H250733   3.847   9.521   8.047
16831WAT      O50734   0.466   7.356   6.193
16831WAT     H150735   0.526   7.434   6.206
16831WAT     H250736   0.383   7.368   6.248
16832WAT      O50737   0.278   8.150   5.973
16832WAT     H150738   0.189   8.119   6.005
16832WAT     H250739   0.296   8.113   5.882
16833WAT      O50740   5.824   8.412   4.853
16833WAT     H150741   5.911   8.394   4.807
16833WAT     H250742   5.780   8.492   4.813
16834WAT      O50743   1.542   1.230   7.969
16834WAT     H150744   1.616   1.286   8.006
16834WAT     H250745   1.511   1.267   7.882
16835WAT      O50746   1.519   9.455   1.133
16835WAT     H150747   1.605   9.424   1.091
16835WAT     H250748   1.509   9.413   1.223
16836WAT      O50749   0.789   5.168   9.855
16836WAT     H150750   0.838   5.127   9.932
16836WAT     H250751   0.725   5.101   9.817
16837WAT      O50752   8.453   4.399   8.182
16837WAT     H150753   8.391   4.322   8.190
16837WAT     H250754   8.489   4.423   8.272
16838WAT      O50755   8.713   5.613   1.467
16838WAT     H150756   8.675   5.678   1.533
16838WAT     H250757   8.697   5.647   1.374
16839WAT      O50758   6.943   1.450   9.408
16839WAT     H150759   6.958   1.357   9.373
16839WAT     H250760   6.885   1.446   9.490
16840WAT      O50761   6.242   9.585   9.063
16840WAT     H150762   6.232   9.510   9.128
16840WAT     H250763   6.177   9.574   8.989
16841WAT      O50764   3.751   1.744   4.425
16841WAT     H150765   3.817   1.734   4.351
16841WAT     H250766   3.665   1.701   4.399
16842WAT      O50767   2.409   4.514   7.200
16842WAT     H150768   2.433   4.610   7.210
16842WAT     H250769   2.357   4.500   7.116
16843WAT      O50770   7.342   8.361   2.830
16843WAT     H150771   7.413   8.353   2.760
16843WAT     H250772   7.258   8.396   2.789
16844WAT      O50773   6.834   1.699   2.289
16844WAT     H150774   6.918   1.712   2.342
16844WAT     H250775   6.805   1.787   2.251
16845WAT      O50776   3.441   1.006   0.315
16845WAT     H150777   3.346   1.032   0.333
16845WAT     H250778   3.443   0.935   0.244
16846WAT      O50779   3.331   0.488   2.042
16846WAT     H150780   3.298   0.577   2.074
16846WAT     H250781   3.417   0.466   2.087
16847WAT      O50782   4.484   0.607   6.547
16847WAT     H150783   4.441   0.679   6.492
16847WAT     H250784   4.446   0.608   6.639
16848WAT      O50785   2.028   6.518   0.963
16848WAT     H150786   2.008   6.516   0.864
16848WAT     H250787   1.946   6.544   1.012
16849WAT      O50788   3.728   5.092   4.121
16849WAT     H150789   3.743   5.120   4.215
16849WAT     H250790   3.691   4.999   4.118
16850WAT      O50791   8.485   0.990   9.683
16850WAT     H150792   8.470   0.891   9.693
16850WAT     H250793   8.536   1.023   9.762
16851WAT      O50794   3.316   5.253   2.235
16851WAT     H150795   3.330   5.351   2.217
16851WAT     H250796   3.405   5.209   2.244
16852WAT      O50797   0.221   1.147   9.846
16852WAT     H150798   0.232   1.068   9.786
16852WAT     H250799   0.170   1.120   9.928
16853WAT      O50800   6.078   3.017   2.036
16853WAT     H150801   5.988   2.989   2.004
16853WAT     H250802   6.130   3.057   1.961
16854WAT      O50803   6.109   0.720   8.224
16854WAT     H150804   6.089   0.818   8.230
16854WAT     H250805   6.137   0.698   8.131
16855WAT      O50806   7.359   2.107   3.983
16855WAT     H150807   7.284   2.162   4.021
16855WAT     H250808   7.378   2.030   4.044
16856WAT      O50809   3.187   2.974   2.072
16856WAT     H150810   3.125   2.937   2.142
16856WAT     H250811   3.263   2.911   2.057
16857WAT      O50812   0.680   7.000   4.317
16857WAT     H150813   0.634   7.085   4.289
16857WAT     H250814   0.655   6.927   4.254
16858WAT      O50815   3.122   8.625   7.312
16858WAT     H150816   3.112   8.678   7.397
16858WAT     H250817   3.037   8.576   7.293
16859WAT      O50818   2.631   9.267   4.786
16859WAT     H150819   2.656   9.277   4.690
16859WAT     H250820   2.706   9.299   4.844
16860WAT      O50821   2.930   2.700   7.128
16860WAT     H150822   2.895   2.645   7.204
16860WAT     H250823   2.900   2.795   7.138
16861WAT      O50824   4.646   9.303   3.126
16861WAT     H150825   4.726   9.361   3.111
16861WAT     H250826   4.591   9.339   3.201
16862WAT      O50827   6.098   8.211   0.064
16862WAT     H150828   6.077   8.307   0.045
16862WAT     H250829   6.118   8.200   0.162
16863WAT      O50830   6.069   7.827   1.218
16863WAT     H150831   5.972   7.809   1.202
16863WAT     H250832   6.119   7.740   1.216
16864WAT      O50833   1.063   4.995   4.715
16864WAT     H150834   1.012   4.927   4.767
16864WAT     H250835   1.078   4.960   4.622
16865WAT      O50836   2.686   4.323   3.911
16865WAT     H150837   2.701   4.249   3.976
16865WAT     H250838   2.588   4.340   3.901
16866WAT      O50839   9.009   5.006   2.863
16866WAT     H150840   8.966   4.916   2.859
16866WAT     H250841   9.094   4.999   2.915
16867WAT      O50842   0.828   1.507   2.141
16867WAT     H150843   0.798   1.496   2.046
16867WAT     H250844   0.903   1.573   2.144
16868WAT      O50845   7.078   7.434   2.141
16868WAT     H150846   7.062   7.372   2.064
16868WAT     H250847   7.163   7.484   2.126
16869WAT      O50848   2.238   9.773   1.710
16869WAT     H150849   2.247   9.800   1.614
16869WAT     H250850   2.280   9.683   1.723
16870WAT      O50851   2.183   4.241   7.582
16870WAT     H150852   2.112   4.180   7.546
16870WAT     H250853   2.197   4.317   7.519
16871WAT      O50854   0.794   9.015   8.327
16871WAT     H150855   0.807   9.012   8.227
16871WAT     H250856   0.877   9.052   8.370
16872WAT      O50857   4.840   2.939   7.595
16872WAT     H150858   4.767   2.988   7.548
16872WAT     H250859   4.857   2.981   7.684
16873WAT      O50860   0.848   7.288   9.464
16873WAT     H150861   0.925   7.229   9.437
16873WAT     H250862   0.871   7.335   9.549
16874WAT      O50863   5.042   9.122   3.502
16874WAT     H150864   5.005   9.110   3.410
16874WAT     H250865   4.967   9.132   3.567
16875WAT      O50866   2.079   3.546   5.366
16875WAT     H150867   2.033   3.503   5.444
16875WAT     H250868   2.143   3.615   5.400
16876WAT      O50869   4.829   8.530   4.833
16876WAT     H150870   4.878   8.503   4.916
16876WAT     H250871   4.761   8.460   4.810
16877WAT      O50872   6.911   0.384   5.477
16877WAT     H150873   6.834   0.324   5.457
16877WAT     H250874   6.908   0.412   5.573
16878WAT      O50875   4.232   2.357   7.089
16878WAT     H150876   4.180   2.442   7.081
16878WAT     H250877   4.169   2.282   7.110
16879WAT      O50878   6.329   2.027   9.160
16879WAT     H150879   6.283   1.951   9.206
16879WAT     H250880   6.261   2.087   9.118
16880WAT      O50881   5.330   9.613   7.248
16880WAT     H150882   5.355   9.702   7.212
16880WAT     H250883   5.230   9.603   7.246
16881WAT      O50884   2.376   1.108   6.892
16881WAT     H150885   2.380   1.147   6.800
16881WAT     H250886   2.459   1.133   6.942
16882WAT      O50887   5.847   5.516   2.078
16882WAT     H150888   5.914   5.591   2.082
16882WAT     H250889   5.766   5.548   2.028
16883WAT      O50890   1.801   8.916   4.689
16883WAT     H150891   1.797   8.817   4.701
16883WAT     H250892   1.896   8.945   4.678
16884WAT      O50893   0.925   2.463   4.729
16884WAT     H150894   0.954   2.501   4.817
16884WAT     H250895   0.938   2.532   4.657
16885WAT      O50896   9.218   9.584   2.899
16885WAT     H150897   9.218   9.532   2.985
16885WAT     H250898   9.138   9.557   2.844
16886WAT      O50899   2.009   6.524   6.795
16886WAT     H150900   1.983   6.446   6.850
16886WAT     H250901   2.032   6.602   6.854
16887WAT      O50902   6.901   1.565   2.512
16887WAT     H150903   6.839   1.526   2.443
16887WAT     H250904   6.967   1.495   2.540
16888WAT      O50905   0.721   3.577   4.680
16888WAT     H150906   0.810   3.613   4.655
16888WAT     H250907   0.650   3.645   4.659
16889WAT      O50908   2.716   2.872   0.039
16889WAT     H150909   2.746   2.832   0.126
16889WAT     H250910   2.768   2.832  -0.036
16890WAT      O50911   7.701   3.515   6.730
16890WAT     H150912   7.784   3.493   6.780
16890WAT     H250913   7.722   3.579   6.656
16891WAT      O50914   3.163   1.016   6.678
16891WAT     H150915   3.225   0.960   6.622
16891WAT     H250916   3.217   1.075   6.739
16892WAT      O50917   2.044   2.107   9.360
16892WAT     H150918   1.948   2.081   9.373
16892WAT     H250919   2.060   2.196   9.403
16893WAT      O50920   3.350   8.489   6.418
16893WAT     H150921   3.340   8.446   6.508
16893WAT     H250922   3.382   8.421   6.352
16894WAT      O50923   2.622   7.098   2.723
16894WAT     H150924   2.696   7.154   2.761
16894WAT     H250925   2.656   7.048   2.643
16895WAT      O50926   0.296   1.633   5.878
16895WAT     H150927   0.288   1.535   5.900
16895WAT     H250928   0.241   1.685   5.943
16896WAT      O50929   5.625   2.493   6.702
16896WAT     H150930   5.655   2.449   6.617
16896WAT     H250931   5.688   2.467   6.776
16897WAT      O50932   6.902   6.656   6.014
16897WAT     H150933   6.986   6.709   6.027
16897WAT     H250934   6.896   6.626   5.918
16898WAT      O50935   1.895   8.786   9.663
16898WAT     H150936   1.946   8.712   9.618
16898WAT     H250937   1.807   8.797   9.617
16899WAT      O50938   7.796   7.895   0.202
16899WAT     H150939   7.772   7.858   0.113
16899WAT     H250940   7.713   7.919   0.252
16900WAT      O50941   7.463   0.568   0.766
16900WAT     H150942   7.463   0.498   0.837
16900WAT     H250943   7.486   0.527   0.678
16901WAT      O50944   7.624   2.832   8.859
16901WAT     H150945   7.666   2.851   8.771
16901WAT     H250946   7.695   2.806   8.925
16902WAT      O50947   0.237   3.519   1.473
16902WAT     H150948   0.263   3.497   1.567
16902WAT     H250949   0.145   3.485   1.455
16903WAT      O50950   3.234   2.580   2.340
16903WAT     H150951   3.139   2.559   2.365
16903WAT     H250952   3.259   2.669   2.377
16904WAT      O50953   0.791   7.761   5.760
16904WAT     H150954   0.856   7.697   5.720
16904WAT     H250955   0.698   7.731   5.739
16905WAT      O50956   6.077   2.629   5.565
16905WAT     H150957   6.123   2.714   5.540
16905WAT     H250958   6.083   2.564   5.489
16906WAT      O50959   6.587   6.170   2.053
16906WAT     H150960   6.493   6.149   2.077
16906WAT     H250961   6.594   6.186   1.955
16907WAT      O50962   4.104   7.620   8.631
16907WAT     H150963   4.063   7.548   8.574
16907WAT     H250964   4.059   7.707   8.611
16908WAT      O50965   6.221   7.064   1.068
16908WAT     H150966   6.301   7.049   1.125
16908WAT     H250967   6.240   7.136   1.002
16909WAT      O50968   4.754   0.741   2.089
16909WAT     H150969   4.770   0.643   2.078
16909WAT     H250970   4.676   0.756   2.150
16910WAT      O50971   1.463   1.513   3.904
16910WAT     H150972   1.409   1.506   3.988
16910WAT     H250973   1.530   1.587   3.914
16911WAT      O50974   0.430   1.179   3.797
16911WAT     H150975   0.448   1.171   3.699
16911WAT     H250976   0.338   1.214   3.811
16912WAT      O50977   0.369   9.655   9.726
16912WAT     H150978   0.447   9.704   9.687
16912WAT     H250979   0.374   9.660   9.826
16913WAT      O50980   0.964   7.124   6.321
16913WAT     H150981   0.903   7.201   6.340
16913WAT     H250982   0.945   7.049   6.384
16914WAT      O50983   3.532   5.630   0.714
16914WAT     H150984   3.598   5.661   0.645
16914WAT     H250985   3.576   5.632   0.804
16915WAT      O50986   4.473   0.524   1.988
16915WAT     H150987   4.494   0.518   1.890
16915WAT     H250988   4.548   0.484   2.041
16916WAT      O50989   9.422   6.263   8.108
16916WAT     H150990   9.511   6.219   8.120
16916WAT     H250991   9.426   6.357   8.142
16917WAT      O50992   0.952   5.319   8.297
16917WAT     H150993   1.047   5.329   8.266
16917WAT     H250994   0.896   5.283   8.222
16918WAT      O50995   1.070   5.520   0.129
16918WAT     H150996   1.079   5.599   0.189
16918WAT     H250997   1.094   5.546   0.035
16919WAT      O50998   9.505   0.565   7.451
16919WAT     H150999   9.604   0.578   7.461
16919WAT     H251000   9.488   0.486   7.392
16920WAT      O51001   7.044   0.178   1.415
16920WAT     H151002   7.107   0.236   1.467
16920WAT     H251003   7.033   0.090   1.462
16921WAT      O51004   9.110   7.382   4.480
16921WAT     H151005   9.012   7.401   4.487
16921WAT     H251006   9.140   7.332   4.560
16922WAT      O51007   0.327   5.981   8.822
16922WAT     H151008   0.337   6.020   8.731
16922WAT     H251009   0.376   5.894   8.827
16923WAT      O51010   6.605   4.403   7.948
16923WAT     H151011   6.687   4.457   7.928
16923WAT     H251012   6.600   4.388   8.047
16924WAT      O51013   1.128   9.337   1.203
16924WAT     H151014   1.172   9.375   1.285
16924WAT     H251015   1.193   9.281   1.153
16925WAT      O51016   7.787   1.713   1.731
16925WAT     H151017   7.824   1.626   1.761
16925WAT     H251018   7.790   1.718   1.631
16926WAT      O51019   9.508   1.978   1.199
16926WAT     H151020   9.548   1.984   1.291
16926WAT     H251021   9.467   2.066   1.175
16927WAT      O51022   6.149   1.349   9.017
16927WAT     H151023   6.170   1.291   8.938
16927WAT     H251024   6.051   1.341   9.039
16928WAT      O51025   6.528   3.237   2.701
16928WAT     H151026   6.615   3.188   2.692
16928WAT     H251027   6.545   3.334   2.714
16929WAT      O51028   1.382   7.890   5.441
16929WAT     H151029   1.313   7.835   5.489
16929WAT     H251030   1.375   7.985   5.469
16930WAT      O51031   6.019   7.991   4.344
16930WAT     H151032   6.106   8.040   4.342
16930WAT     H251033   5.991   7.967   4.251
16931WAT      O51034   7.692   5.843   2.919
16931WAT     H151035   7.644   5.769   2.870
16931WAT     H251036   7.764   5.880   2.860
16932WAT      O51037   6.107   8.226   0.953
16932WAT     H151038   6.130   8.129   0.946
16932WAT     H251039   6.099   8.252   1.049
16933WAT      O51040   5.409   9.672   8.725
16933WAT     H151041   5.490   9.676   8.783
16933WAT     H251042   5.351   9.595   8.754
16934WAT      O51043   5.357   3.462   2.762
16934WAT     H151044   5.294   3.384   2.765
16934WAT     H251045   5.399   3.468   2.671
16935WAT      O51046   5.187   5.521   2.032
16935WAT     H151047   5.178   5.422   2.043
16935WAT     H251048   5.284   5.546   2.030
16936WAT      O51049   8.027   5.309   0.558
16936WAT     H151050   8.025   5.408   0.546
16936WAT     H251051   8.011   5.264   0.470
16937WAT      O51052   7.676   0.295   3.912
16937WAT     H151053   7.650   0.283   3.817
16937WAT     H251054   7.607   0.349   3.959
16938WAT      O51055   0.312   2.808   3.635
16938WAT     H151056   0.341   2.735   3.698
16938WAT     H251057   0.212   2.815   3.636
16939WAT      O51058   2.490   8.583   9.102
16939WAT     H151059   2.449   8.522   9.170
16939WAT     H251060   2.539   8.657   9.149
16940WAT      O51061   2.916   8.272   7.158
16940WAT     H151062   2.816   8.282   7.165
16940WAT     H251063   2.950   8.333   7.087
16941WAT      O51064   3.576   5.178   2.320
16941WAT     H151065   3.609   5.086   2.299
16941WAT     H251066   3.649   5.244   2.305
16942WAT      O51067   8.080   2.795   5.002
16942WAT     H151068   8.004   2.731   4.992
16942WAT     H251069   8.127   2.777   5.089
16943WAT      O51070   5.253   5.778   0.543
16943WAT     H151071   5.319   5.704   0.551
16943WAT     H251072   5.162   5.740   0.527
16944WAT      O51073   8.735   6.036   0.069
16944WAT     H151074   8.644   6.036   0.111
16944WAT     H251075   8.734   6.092  -0.014
16945WAT      O51076   8.878   8.167   9.689
16945WAT     H151077   8.833   8.102   9.750
16945WAT     H251078   8.870   8.135   9.595
16946WAT      O51079   8.577   3.556   4.393
16946WAT     H151080   8.589   3.585   4.298
16946WAT     H251081   8.534   3.631   4.445
16947WAT      O51082   5.414   8.170   0.572
16947WAT     H151083   5.403   8.128   0.662
16947WAT     H251084   5.509   8.195   0.558
16948WAT      O51085   0.098   4.540   1.724
16948WAT     H151086   0.027   4.608   1.705
16948WAT     H251087   0.141   4.561   1.812
16949WAT      O51088   6.286   9.740   6.700
16949WAT     H151089   6.192   9.734   6.669
16949WAT     H251090   6.346   9.754   6.621
16950WAT      O51091   2.441   9.492   1.365
16950WAT     H151092   2.468   9.572   1.419
16950WAT     H251093   2.512   9.423   1.371
16951WAT      O51094   9.758   1.108   5.401
16951WAT     H151095   9.707   1.170   5.461
16951WAT     H251096   9.735   1.013   5.425
16952WAT      O51097   9.103   4.183   3.485
16952WAT     H151098   9.024   4.167   3.545
16952WAT     H251099   9.176   4.228   3.538
16953WAT      O51100   0.095   4.629   8.802
16953WAT     H151101   0.077   4.648   8.706
16953WAT     H251102   0.153   4.547   8.810
16954WAT      O51103   7.803   4.308   7.856
16954WAT     H151104   7.822   4.398   7.895
16954WAT     H251105   7.808   4.239   7.929
16955WAT      O51106   6.853   3.102   0.307
16955WAT     H151107   6.857   3.195   0.270
16955WAT     H251108   6.804   3.043   0.243
16956WAT      O51109   1.955   9.059   9.381
16956WAT     H151110   1.986   8.964   9.388
16956WAT     H251111   2.034   9.120   9.387
16957WAT      O51112   1.125   6.020   3.341
16957WAT     H151113   1.220   6.001   3.368
16957WAT     H251114   1.076   6.062   3.417
16958WAT      O51115   4.458   5.471   4.151
16958WAT     H151116   4.478   5.401   4.082
16958WAT     H251117   4.512   5.553   4.133
16959WAT      O51118   3.027   9.624   5.603
16959WAT     H151119   3.084   9.676   5.539
16959WAT     H251120   2.932   9.653   5.594
16960WAT      O51121   6.656   6.568   3.848
16960WAT     H151122   6.680   6.614   3.763
16960WAT     H251123   6.574   6.610   3.887
16961WAT      O51124   6.249   4.574   8.073
16961WAT     H151125   6.187   4.652   8.085
16961WAT     H251126   6.215   4.515   8.000
16962WAT      O51127   0.136   6.154   5.411
16962WAT     H151128   0.068   6.127   5.480
16962WAT     H251129   0.092   6.210   5.341
16963WAT      O51130   0.329   2.192   6.930
16963WAT     H151131   0.303   2.221   6.838
16963WAT     H251132   0.342   2.093   6.932
16964WAT      O51133   5.373   0.151   2.702
16964WAT     H151134   5.468   0.171   2.724
16964WAT     H251135   5.366   0.123   2.606
16965WAT      O51136   9.837   6.852   4.170
16965WAT     H151137   9.857   6.874   4.075
16965WAT     H251138   9.769   6.779   4.174
16966WAT      O51139   8.559   1.692   4.111
16966WAT     H151140   8.622   1.769   4.122
16966WAT     H251141   8.467   1.726   4.097
16967WAT      O51142   3.888   4.868   2.843
16967WAT     H151143   3.967   4.874   2.905
16967WAT     H251144   3.920   4.855   2.749
16968WAT      O51145   0.013   2.268   6.938
16968WAT     H151146   0.107   2.253   6.969
16968WAT     H251147  -0.041   2.306   7.013
16969WAT      O51148   0.236   8.165   2.277
16969WAT     H151149   0.219   8.154   2.375
16969WAT     H251150   0.148   8.169   2.229
16970WAT      O51151   9.486   7.060   8.641
16970WAT     H151152   9.533   7.146   8.619
16970WAT     H251153   9.445   7.066   8.731
16971WAT      O51154   3.699   2.791   5.684
16971WAT     H151155   3.798   2.786   5.695
16971WAT     H251156   3.656   2.713   5.729
16972WAT      O51157   0.691   0.859   7.002
16972WAT     H151158   0.634   0.935   7.033
16972WAT     H251159   0.676   0.779   7.060
16973WAT      O51160   7.218   2.882   5.027
16973WAT     H151161   7.225   2.825   5.109
16973WAT     H251162   7.176   2.969   5.051
16974WAT      O51163   7.574   2.029   0.695
16974WAT     H151164   7.508   1.999   0.764
16974WAT     H251165   7.577   1.961   0.621
16975WAT      O51166   9.418   0.926   2.723
16975WAT     H151167   9.416   0.881   2.812
16975WAT     H251168   9.330   0.911   2.677
16976WAT      O51169   8.107   0.560   2.073
16976WAT     H151170   8.074   0.538   1.981
16976WAT     H251171   8.034   0.541   2.139
16977WAT      O51172   9.145   3.256   0.695
16977WAT     H151173   9.183   3.219   0.780
16977WAT     H251174   9.045   3.246   0.696
16978WAT      O51175   8.325   5.446   5.862
16978WAT     H151176   8.243   5.464   5.917
16978WAT     H251177   8.406   5.446   5.921
16979WAT      O51178   6.780   3.053   3.592
16979WAT     H151179   6.880   3.047   3.582
16979WAT     H251180   6.753   3.007   3.677
16980WAT      O51181   9.670   3.368   3.940
16980WAT     H151182   9.651   3.409   3.851
16980WAT     H251183   9.654   3.435   4.012
16981WAT      O51184   3.351   2.023   9.005
16981WAT     H151185   3.355   1.951   9.075
16981WAT     H251186   3.389   2.107   9.042
16982WAT      O51187   0.986   7.725   8.911
16982WAT     H151188   0.945   7.667   8.981
16982WAT     H251189   0.994   7.674   8.825
16983WAT      O51190   3.337   8.529   1.665
16983WAT     H151191   3.305   8.443   1.625
16983WAT     H251192   3.290   8.606   1.620
16984WAT      O51193   9.756   5.093   8.472
16984WAT     H151194   9.770   5.133   8.382
16984WAT     H251195   9.745   4.994   8.463
16985WAT      O51196   0.168   5.524   7.406
16985WAT     H151197   0.267   5.536   7.406
16985WAT     H251198   0.145   5.431   7.433
16986WAT      O51199   4.824   1.014   7.916
16986WAT     H151200   4.806   0.923   7.879
16986WAT     H251201   4.810   1.014   8.015
16987WAT      O51202   1.790   9.564   5.987
16987WAT     H151203   1.806   9.538   5.892
16987WAT     H251204   1.765   9.660   5.991
16988WAT      O51205   0.136   8.481   3.158
16988WAT     H151206   0.160   8.574   3.187
16988WAT     H251207   0.216   8.422   3.168
16989WAT      O51208   2.150   3.732   7.185
16989WAT     H151209   2.214   3.803   7.156
16989WAT     H251210   2.125   3.676   7.107
16990WAT      O51211   9.745   8.791   4.246
16990WAT     H151212   9.663   8.736   4.234
16990WAT     H251213   9.754   8.856   4.171
16991WAT      O51214   8.642   1.099   6.452
16991WAT     H151215   8.589   1.123   6.534
16991WAT     H251216   8.582   1.099   6.372
16992WAT      O51217   3.432   7.801   5.059
16992WAT     H151218   3.455   7.775   4.965
16992WAT     H251219   3.345   7.759   5.084
16993WAT      O51220   3.595   8.413   8.897
16993WAT     H151221   3.525   8.440   8.831
16993WAT     H251222   3.674   8.474   8.889
16994WAT      O51223   8.511   6.833   3.638
16994WAT     H151224   8.461   6.845   3.723
16994WAT     H251225   8.480   6.749   3.593
16995WAT      O51226   2.646   1.434   8.231
16995WAT     H151227   2.712   1.499   8.270
16995WAT     H251228   2.640   1.354   8.291
16996WAT      O51229   0.184   1.216   4.842
16996WAT     H151230   0.194   1.214   4.743
16996WAT     H251231   0.158   1.125   4.875
16997WAT      O51232   4.290   9.117   2.310
16997WAT     H151233   4.359   9.108   2.382
16997WAT     H251234   4.334   9.109   2.221
16998WAT      O51235   7.777   9.167   2.721
16998WAT     H151236   7.733   9.119   2.644
16998WAT     H251237   7.788   9.104   2.798
16999WAT      O51238   2.434   8.803   8.808
16999WAT     H151239   2.374   8.764   8.738
16999WAT     H251240   2.435   8.743   8.888
17000WAT      O51241   1.524   1.957   2.609
17000WAT     H151242   1.491   2.039   2.656
17000WAT     H251243   1.509   1.877   2.668
17001WAT      O51244   0.027   4.917   3.877
17001WAT     H151245   0.031   4.876   3.786
17001WAT     H251246   0.098   4.986   3.887
17002WAT      O51247   4.827   8.913   3.159
17002WAT     H151248   4.863   9.006   3.167
17002WAT     H251249   4.788   8.884   3.246
17003WAT      O51250   9.683   9.453   4.844
17003WAT     H151251   9.741   9.374   4.824
17003WAT     H251252   9.588   9.431   4.824
17004WAT      O51253   2.945   5.605   4.569
17004WAT     H151254   2.881   5.622   4.494
17004WAT     H251255   3.007   5.531   4.544
17005WAT      O51256   3.387   1.258   0.137
17005WAT     H151257   3.454   1.193   0.101
17005WAT     H251258   3.316   1.207   0.187
17006WAT      O51259   3.706   7.128   7.824
17006WAT     H151260   3.676   7.063   7.754
17006WAT     H251261   3.769   7.082   7.887
17007WAT      O51262   5.160   6.506   5.288
17007WAT     H151263   5.162   6.425   5.230
17007WAT     H251264   5.253   6.543   5.296
17008WAT      O51265   1.984   7.115   3.649
17008WAT     H151266   2.051   7.042   3.633
17008WAT     H251267   1.949   7.149   3.562
17009WAT      O51268   7.999   4.142   6.777
17009WAT     H151269   8.015   4.046   6.800
17009WAT     H251270   7.932   4.148   6.703
17010WAT      O51271   6.574   1.845   3.872
17010WAT     H151272   6.622   1.920   3.918
17010WAT     H251273   6.627   1.761   3.883
17011WAT      O51274   1.184   7.819   6.647
17011WAT     H151275   1.241   7.844   6.569
17011WAT     H251276   1.243   7.788   6.722
17012WAT      O51277   5.662   7.973   3.463
17012WAT     H151278   5.703   8.056   3.501
17012WAT     H251279   5.732   7.903   3.454
17013WAT      O51280   6.481   0.732   0.499
17013WAT     H151281   6.388   0.768   0.485
17013WAT     H251282   6.546   0.785   0.444
17014WAT      O51283   5.866   1.575   5.612
17014WAT     H151284   5.849   1.582   5.710
17014WAT     H251285   5.853   1.664   5.569
17015WAT      O51286   8.349   2.437   9.025
17015WAT     H151287   8.276   2.399   9.081
17015WAT     H251288   8.363   2.533   9.047
17016WAT      O51289   0.828   5.131   3.255
17016WAT     H151290   0.862   5.224   3.239
17016WAT     H251291   0.798   5.091   3.169
17017WAT      O51292   2.205   0.139   0.119
17017WAT     H151293   2.122   0.185   0.149
17017WAT     H251294   2.280   0.205   0.111
17018WAT      O51295   9.737   4.965   6.471
17018WAT     H151296   9.715   4.872   6.443
17018WAT     H251297   9.827   4.990   6.434
17019WAT      O51298   7.542   5.566   8.974
17019WAT     H151299   7.495   5.502   9.035
17019WAT     H251300   7.512   5.659   8.993
17020WAT      O51301   6.494   0.315   5.735
17020WAT     H151302   6.578   0.352   5.775
17020WAT     H251303   6.472   0.227   5.777
17021WAT      O51304   7.849   8.949   0.598
17021WAT     H151305   7.808   8.987   0.515
17021WAT     H251306   7.786   8.958   0.674
17022WAT      O51307   5.064   1.958   0.676
17022WAT     H151308   4.990   1.988   0.736
17022WAT     H251309   5.061   1.858   0.667
17023WAT      O51310   2.293   6.299   4.773
17023WAT     H151311   2.343   6.287   4.687
17023WAT     H251312   2.201   6.261   4.764
17024WAT      O51313   6.103   1.144   2.541
17024WAT     H151314   6.030   1.188   2.594
17024WAT     H251315   6.090   1.164   2.444
17025WAT      O51316   6.543   1.657   8.568
17025WAT     H151317   6.554   1.562   8.596
17025WAT     H251318   6.575   1.669   8.474
17026WAT      O51319   1.128   3.780   4.036
17026WAT     H151320   1.065   3.780   4.114
17026WAT     H251321   1.119   3.695   3.985
17027WAT      O51322   6.531   5.220   0.173
17027WAT     H151323   6.538   5.185   0.080
17027WAT     H251324   6.540   5.320   0.172
17028WAT      O51325   4.612   6.714   6.457
17028WAT     H151326   4.678   6.643   6.481
17028WAT     H251327   4.535   6.712   6.521
17029WAT      O51328   5.324   3.966   2.596
17029WAT     H151329   5.230   3.999   2.607
17029WAT     H251330   5.378   4.033   2.545
17030WAT      O51331   9.390   6.383   2.872
17030WAT     H151332   9.392   6.345   2.964
17030WAT     H251333   9.482   6.411   2.845
17031WAT      O51334   7.308   0.568   1.468
17031WAT     H151335   7.246   0.497   1.500
17031WAT     H251336   7.381   0.582   1.536
17032WAT      O51337   8.610   6.383   8.934
17032WAT     H151338   8.625   6.448   9.008
17032WAT     H251339   8.512   6.363   8.927
17033WAT      O51340   2.883   7.691   0.759
17033WAT     H151341   2.828   7.758   0.809
17033WAT     H251342   2.892   7.608   0.814
17034WAT      O51343   1.977   6.565   3.896
17034WAT     H151344   1.892   6.617   3.908
17034WAT     H251345   1.995   6.512   3.978
17035WAT      O51346   2.369   5.169   9.109
17035WAT     H151347   2.449   5.220   9.078
17035WAT     H251348   2.383   5.071   9.089
17036WAT      O51349   6.847   9.542   5.071
17036WAT     H151350   6.906   9.501   5.140
17036WAT     H251351   6.762   9.488   5.063
17037WAT      O51352   8.759   2.325   3.973
17037WAT     H151353   8.689   2.388   3.940
17037WAT     H251354   8.726   2.231   3.965
17038WAT      O51355   1.984   5.244   1.602
17038WAT     H151356   2.075   5.255   1.643
17038WAT     H251357   1.921   5.207   1.670
17039WAT      O51358   1.217   2.075   5.512
17039WAT     H151359   1.147   2.023   5.562
17039WAT     H251360   1.204   2.063   5.414
17040WAT      O51361   5.817   0.949   7.588
17040WAT     H151362   5.735   0.891   7.585
17040WAT     H251363   5.808   1.014   7.664
17041WAT      O51364   5.385   3.819   7.047
17041WAT     H151365   5.372   3.849   6.952
17041WAT     H251366   5.482   3.804   7.064
17042WAT      O51367   2.452   7.658   4.115
17042WAT     H151368   2.381   7.588   4.115
17042WAT     H251369   2.474   7.684   4.021
17043WAT      O51370   0.101   5.764   9.614
17043WAT     H151371   0.018   5.713   9.636
17043WAT     H251372   0.159   5.771   9.695
17044WAT      O51373   6.262   1.226   6.234
17044WAT     H151374   6.356   1.230   6.266
17044WAT     H251375   6.237   1.132   6.212
17045WAT      O51376   3.400   6.944   5.020
17045WAT     H151377   3.483   6.989   5.053
17045WAT     H251378   3.424   6.877   4.950
17046WAT      O51379   4.633   8.221   6.802
17046WAT     H151380   4.680   8.187   6.884
17046WAT     H251381   4.683   8.299   6.765
17047WAT      O51382   9.468   5.150   3.070
17047WAT     H151383   9.497   5.181   3.161
17047WAT     H251384   9.529   5.078   3.038
17048WAT      O51385   9.759   3.526   5.114
17048WAT     H151386   9.820   3.447   5.120
17048WAT     H251387   9.707   3.523   5.029
17049WAT      O51388   3.764   1.489   8.889
17049WAT     H151389   3.768   1.433   8.972
17049WAT     H251390   3.856   1.505   8.855
17050WAT      O51391   0.128   3.762   3.299
17050WAT     H151392   0.215   3.782   3.255
17050WAT     H251393   0.128   3.667   3.330
17051WAT      O51394   1.159   5.197   9.523
17051WAT     H151395   1.196   5.287   9.499
17051WAT     H251396   1.087   5.208   9.592
17052WAT      O51397   9.560   5.870   0.130
17052WAT     H151398   9.543   5.883   0.032
17052WAT     H251399   9.605   5.952   0.167
17053WAT      O51400   8.798   9.231   1.124
17053WAT     H151401   8.752   9.277   1.048
17053WAT     H251402   8.870   9.171   1.088
17054WAT      O51403   4.473   7.654   9.260
17054WAT     H151404   4.557   7.681   9.212
17054WAT     H251405   4.399   7.717   9.236
17055WAT      O51406   1.406   6.790   3.848
17055WAT     H151407   1.343   6.795   3.771
17055WAT     H251408   1.413   6.695   3.880
17056WAT      O51409   6.000   4.882   7.677
17056WAT     H151410   5.971   4.970   7.714
17056WAT     H251411   6.062   4.837   7.742
17057WAT      O51412   1.115   3.884   2.416
17057WAT     H151413   1.176   3.962   2.406
17057WAT     H251414   1.054   3.899   2.494
17058WAT      O51415   0.782   6.876   2.003
17058WAT     H151416   0.699   6.917   1.963
17058WAT     H251417   0.842   6.949   2.036
17059WAT      O51418   3.346   0.410   2.965
17059WAT     H151419   3.361   0.366   3.054
17059WAT     H251420   3.383   0.503   2.968
17060WAT      O51421   0.790   6.182   6.063
17060WAT     H151422   0.766   6.157   5.970
17060WAT     H251423   0.730   6.256   6.094
17061WAT      O51424   6.736   5.729   1.095
17061WAT     H151425   6.667   5.760   1.160
17061WAT     H251426   6.744   5.797   1.021
17062WAT      O51427   0.243   5.827   9.164
17062WAT     H151428   0.160   5.788   9.206
17062WAT     H251429   0.217   5.882   9.085
17063WAT      O51430   9.874   7.662   3.250
17063WAT     H151431   9.905   7.686   3.157
17063WAT     H251432   9.804   7.591   3.245
17064WAT      O51433   1.163   2.081   8.740
17064WAT     H151434   1.195   2.024   8.664
17064WAT     H251435   1.123   2.023   8.811
17065WAT      O51436   2.328   6.696   4.105
17065WAT     H151437   2.403   6.741   4.154
17065WAT     H251438   2.359   6.607   4.072
17066WAT      O51439   7.370   0.612   6.677
17066WAT     H151440   7.314   0.558   6.739
17066WAT     H251441   7.464   0.577   6.677
17067WAT      O51442   8.006   7.438   6.858
17067WAT     H151443   7.959   7.357   6.822
17067WAT     H251444   8.096   7.447   6.815
17068WAT      O51445   6.076   3.366   5.293
17068WAT     H151446   6.144   3.338   5.360
17068WAT     H251447   5.987   3.325   5.315
17069WAT      O51448   4.657   1.180   3.061
17069WAT     H151449   4.688   1.167   3.155
17069WAT     H251450   4.611   1.268   3.052
17070WAT      O51451   6.086   4.891   0.985
17070WAT     H151452   6.129   4.853   0.903
17070WAT     H251453   6.118   4.842   1.066
17071WAT      O51454   0.256   1.587   3.900
17071WAT     H151455   0.330   1.555   3.960
17071WAT     H251456   0.204   1.658   3.946
17072WAT      O51457   1.613   1.733   3.932
17072WAT     H151458   1.643   1.788   4.010
17072WAT     H251459   1.635   1.781   3.847
17073WAT      O51460   1.670   7.704   0.279
17073WAT     H151461   1.585   7.723   0.229
17073WAT     H251462   1.744   7.690   0.214
17074WAT      O51463   4.057   5.213   0.878
17074WAT     H151464   4.010   5.134   0.918
17074WAT     H251465   4.030   5.222   0.782
17075WAT      O51466   7.106   9.059   6.022
17075WAT     H151467   7.190   9.114   6.022
17075WAT     H251468   7.036   9.105   5.968
17076WAT      O51469   6.859   2.178   9.436
17076WAT     H151470   6.813   2.089   9.441
17076WAT     H251471   6.817   2.241   9.502
17077WAT      O51472   5.355   3.506   2.305
17077WAT     H151473   5.332   3.584   2.363
17077WAT     H251474   5.449   3.478   2.321
17078WAT      O51475   1.964   4.014   3.260
17078WAT     H151476   1.888   3.957   3.230
17078WAT     H251477   2.050   3.969   3.237
17079WAT      O51478   3.582   8.896   1.520
17079WAT     H151479   3.632   8.923   1.438
17079WAT     H251480   3.529   8.975   1.553
17080WAT      O51481   5.629   7.219   6.789
17080WAT     H151482   5.722   7.182   6.782
17080WAT     H251483   5.619   7.270   6.874
17081WAT      O51484   8.143   2.779   1.981
17081WAT     H151485   8.204   2.858   1.969
17081WAT     H251486   8.049   2.807   1.962
17082WAT      O51487   9.747   5.610   7.669
17082WAT     H151488   9.697   5.596   7.754
17082WAT     H251489   9.842   5.635   7.690
17083WAT      O51490   1.866   6.303   8.690
17083WAT     H151491   1.838   6.397   8.670
17083WAT     H251492   1.903   6.298   8.782
17084WAT      O51493   6.200   3.262   8.812
17084WAT     H151494   6.273   3.242   8.878
17084WAT     H251495   6.231   3.236   8.720
17085WAT      O51496   8.277   5.057   0.688
17085WAT     H151497   8.234   4.968   0.701
17085WAT     H251498   8.210   5.129   0.706
17086WAT      O51499   6.864   4.639   5.763
17086WAT     H151500   6.840   4.544   5.743
17086WAT     H251501   6.939   4.668   5.704
17087WAT      O51502   7.550   3.056   0.715
17087WAT     H151503   7.636   3.083   0.674
17087WAT     H251504   7.557   3.060   0.814
17088WAT      O51505   9.860   2.980   9.637
17088WAT     H151506   9.823   2.905   9.693
17088WAT     H251507   9.884   2.945   9.546
17089WAT      O51508   1.387   2.322   3.286
17089WAT     H151509   1.460   2.383   3.254
17089WAT     H251510   1.399   2.304   3.384
17090WAT      O51511   2.482   7.791   9.364
17090WAT     H151512   2.498   7.866   9.301
17090WAT     H251513   2.531   7.808   9.449
17091WAT      O51514   0.038   3.678   6.357
17091WAT     H151515   0.136   3.659   6.351
17091WAT     H251516  -0.010   3.597   6.388
17092WAT      O51517   3.124   1.803   0.198
17092WAT     H151518   3.106   1.710   0.230
17092WAT     H251519   3.051   1.864   0.231
17093WAT      O51520   6.536   2.269   3.550
17093WAT     H151521   6.513   2.312   3.463
17093WAT     H251522   6.554   2.171   3.535
17094WAT      O51523   8.028   0.638   5.949
17094WAT     H151524   8.026   0.612   6.046
17094WAT     H251525   8.072   0.565   5.896
17095WAT      O51526   5.263   5.820   2.151
17095WAT     H151527   5.307   5.788   2.067
17095WAT     H251528   5.169   5.849   2.131
17096WAT      O51529   1.275   1.779   5.421
17096WAT     H151530   1.256   1.856   5.481
17096WAT     H251531   1.205   1.774   5.350
17097WAT      O51532   2.530   4.213   4.420
17097WAT     H151533   2.600   4.143   4.409
17097WAT     H251534   2.454   4.176   4.473
17098WAT      O51535   5.163   3.616   6.041
17098WAT     H151536   5.120   3.680   6.105
17098WAT     H251537   5.257   3.645   6.023
17099WAT      O51538   1.948   1.931   6.852
17099WAT     H151539   1.909   1.991   6.921
17099WAT     H251540   2.047   1.947   6.845
17100WAT      O51541   3.122   4.063   8.803
17100WAT     H151542   3.083   3.976   8.775
17100WAT     H251543   3.074   4.097   8.884
17101WAT      O51544   5.589   2.348   7.186
17101WAT     H151545   5.597   2.351   7.086
17101WAT     H251546   5.650   2.278   7.222
17102WAT      O51547   3.548   7.773   4.162
17102WAT     H151548   3.542   7.702   4.232
17102WAT     H251549   3.481   7.757   4.090
17103WAT      O51550   6.305   2.892   1.708
17103WAT     H151551   6.339   2.805   1.743
17103WAT     H251552   6.240   2.875   1.634
17104WAT      O51553   8.264   8.774   6.384
17104WAT     H151554   8.267   8.674   6.386
17104WAT     H251555   8.175   8.804   6.350
17105WAT      O51556   7.025   8.730   5.476
17105WAT     H151557   7.083   8.770   5.405
17105WAT     H251558   7.013   8.795   5.550
17106WAT      O51559   6.940   3.372   7.501
17106WAT     H151560   6.894   3.374   7.412
17106WAT     H251561   6.884   3.419   7.569
17107WAT      O51562   7.946   0.356   3.351
17107WAT     H151563   7.947   0.290   3.276
17107WAT     H251564   7.852   0.370   3.382
17108WAT      O51565   9.641   1.001   1.572
17108WAT     H151566   9.620   0.904   1.573
17108WAT     H251567   9.684   1.025   1.485
17109WAT      O51568   0.696   7.366   4.669
17109WAT     H151569   0.741   7.280   4.695
17109WAT     H251570   0.678   7.366   4.571
17110WAT      O51571   2.510   3.746   7.271
17110WAT     H151572   2.526   3.801   7.189
17110WAT     H251573   2.522   3.803   7.352
17111WAT      O51574   0.154   6.535   6.228
17111WAT     H151575   0.133   6.442   6.257
17111WAT     H251576   0.113   6.552   6.138
17112WAT      O51577   0.568   5.999   2.153
17112WAT     H151578   0.482   6.044   2.129
17112WAT     H251579   0.551   5.931   2.224
17113WAT      O51580   2.365   2.892   6.233
17113WAT     H151581   2.398   2.882   6.327
17113WAT     H251582   2.281   2.947   6.233
17114WAT      O51583   4.101   8.447   4.260
17114WAT     H151584   4.115   8.351   4.286
17114WAT     H251585   4.042   8.450   4.179
17115WAT      O51586   4.550   3.866   0.551
17115WAT     H151587   4.644   3.839   0.531
17115WAT     H251588   4.528   3.841   0.645
17116WAT      O51589   2.766   0.465   8.810
17116WAT     H151590   2.772   0.511   8.722
17116WAT     H251591   2.858   0.442   8.842
17117WAT      O51592   8.422   3.585   8.081
17117WAT     H151593   8.451   3.493   8.055
17117WAT     H251594   8.472   3.653   8.026
17118WAT      O51595   0.830   1.657   3.594
17118WAT     H151596   0.769   1.646   3.515
17118WAT     H251597   0.780   1.634   3.677
17119WAT      O51598   3.262   6.484   5.778
17119WAT     H151599   3.203   6.549   5.731
17119WAT     H251600   3.263   6.397   5.728
17120WAT      O51601   9.216   4.384   4.419
17120WAT     H151602   9.146   4.451   4.442
17120WAT     H251603   9.304   4.412   4.458
17121WAT      O51604   4.940   5.949   7.178
17121WAT     H151605   4.900   5.866   7.138
17121WAT     H251606   4.867   6.012   7.204
17122WAT      O51607   8.593   4.054   6.118
17122WAT     H151608   8.586   4.116   6.041
17122WAT     H251609   8.680   4.004   6.112
17123WAT      O51610   1.626   1.723   7.726
17123WAT     H151611   1.610   1.745   7.822
17123WAT     H251612   1.684   1.642   7.719
17124WAT      O51613   1.914   6.961   8.849
17124WAT     H151614   1.956   7.031   8.792
17124WAT     H251615   1.829   6.996   8.888
17125WAT      O51616   5.867   9.436   9.534
17125WAT     H151617   5.776   9.470   9.557
17125WAT     H251618   5.872   9.338   9.553
17126WAT      O51619   8.365   6.446   7.252
17126WAT     H151620   8.418   6.422   7.333
17126WAT     H251621   8.307   6.369   7.226
17127WAT      O51622   8.802   4.143   6.816
17127WAT     H151623   8.863   4.070   6.784
17127WAT     H251624   8.798   4.216   6.748
17128WAT      O51625   7.305   7.572   3.016
17128WAT     H151626   7.403   7.561   3.001
17128WAT     H251627   7.267   7.630   2.943
17129WAT      O51628   0.992   1.636   2.534
17129WAT     H151629   1.000   1.732   2.507
17129WAT     H251630   0.903   1.620   2.575
17130WAT      O51631   6.714   5.980   5.625
17130WAT     H151632   6.809   5.949   5.615
17130WAT     H251633   6.703   6.069   5.582
17131WAT      O51634   3.390   9.356   5.641
17131WAT     H151635   3.328   9.278   5.630
17131WAT     H251636   3.347   9.424   5.701
17132WAT      O51637   6.146   3.991   4.213
17132WAT     H151638   6.192   4.080   4.219
17132WAT     H251639   6.207   3.925   4.172
17133WAT      O51640   7.810   3.328   3.204
17133WAT     H151641   7.846   3.420   3.188
17133WAT     H251642   7.843   3.267   3.132
17134WAT      O51643   2.399   7.414   8.783
17134WAT     H151644   2.347   7.375   8.860
17134WAT     H251645   2.402   7.348   8.709
17135WAT      O51646   7.262   3.599   6.495
17135WAT     H151647   7.303   3.508   6.493
17135WAT     H251648   7.163   3.592   6.485
17136WAT      O51649   6.705   9.344   5.300
17136WAT     H151650   6.709   9.426   5.358
17136WAT     H251651   6.797   9.307   5.289
17137WAT      O51652   8.545   5.486   6.033
17137WAT     H151653   8.589   5.398   6.052
17137WAT     H251654   8.615   5.556   6.023
17138WAT      O51655   9.598   7.937   9.617
17138WAT     H151656   9.576   8.006   9.685
17138WAT     H251657   9.547   7.955   9.533
17139WAT      O51658   3.852   7.168   5.729
17139WAT     H151659   3.794   7.223   5.669
17139WAT     H251660   3.819   7.074   5.733
17140WAT      O51661   4.216   2.527   7.850
17140WAT     H151662   4.150   2.502   7.922
17140WAT     H251663   4.174   2.513   7.761
17141WAT      O51664   6.555   7.420   5.106
17141WAT     H151665   6.513   7.509   5.125
17141WAT     H251666   6.522   7.386   5.018
17142WAT      O51667   1.622   7.054   1.844
17142WAT     H151668   1.691   7.077   1.913
17142WAT     H251669   1.583   7.139   1.806
17143WAT      O51670   7.447   3.284   9.425
17143WAT     H151671   7.436   3.358   9.491
17143WAT     H251672   7.460   3.197   9.474
17144WAT      O51673   4.059   4.824   2.219
17144WAT     H151674   4.091   4.896   2.156
17144WAT     H251675   4.116   4.824   2.301
17145WAT      O51676   7.985   0.879   8.623
17145WAT     H151677   7.993   0.806   8.556
17145WAT     H251678   7.960   0.964   8.577
17146WAT      O51679   3.543   6.701   8.342
17146WAT     H151680   3.478   6.654   8.402
17146WAT     H251681   3.496   6.771   8.289
17147WAT      O51682   6.523   5.761   2.843
17147WAT     H151683   6.570   5.797   2.763
17147WAT     H251684   6.467   5.833   2.884
17148WAT      O51685   1.103   7.133   3.609
17148WAT     H151686   1.120   7.190   3.528
17148WAT     H251687   1.052   7.186   3.676
17149WAT      O51688   8.928   2.575   1.011
17149WAT     H151689   8.877   2.642   1.065
17149WAT     H251690   8.880   2.487   1.013
17150WAT      O51691   4.137   8.449   6.909
17150WAT     H151692   4.140   8.513   6.985
17150WAT     H251693   4.097   8.494   6.829
17151WAT      O51694   8.696   2.141   0.363
17151WAT     H151695   8.668   2.129   0.268
17151WAT     H251696   8.654   2.224   0.400
17152WAT      O51697   2.617   7.342   9.604
17152WAT     H151698   2.565   7.377   9.682
17152WAT     H251699   2.593   7.395   9.522
17153WAT      O51700   0.869   1.397   5.881
17153WAT     H151701   0.839   1.406   5.976
17153WAT     H251702   0.867   1.301   5.854
17154WAT      O51703   1.230   9.532   1.946
17154WAT     H151704   1.180   9.484   1.874
17154WAT     H251705   1.316   9.486   1.964
17155WAT      O51706   8.863   2.949   0.242
17155WAT     H151707   8.798   2.898   0.185
17155WAT     H251708   8.862   3.045   0.214
17156WAT      O51709   4.660   1.253   7.271
17156WAT     H151710   4.719   1.328   7.240
17156WAT     H251711   4.715   1.182   7.313
17157WAT      O51712   2.078   1.738   6.525
17157WAT     H151713   2.085   1.676   6.603
17157WAT     H251714   2.166   1.743   6.479
17158WAT      O51715   2.304   1.616   9.528
17158WAT     H151716   2.351   1.577   9.607
17158WAT     H251717   2.210   1.640   9.555
17159WAT      O51718   7.319   4.831   4.349
17159WAT     H151719   7.346   4.800   4.257
17159WAT     H251720   7.393   4.813   4.413
17160WAT      O51721   5.474   2.707   0.926
17160WAT     H151722   5.429   2.692   0.839
17160WAT     H251723   5.561   2.754   0.911
17161WAT      O51724   4.979   0.268   1.553
17161WAT     H151725   4.900   0.321   1.584
17161WAT     H251726   5.021   0.314   1.475
17162WAT      O51727   2.011   2.077   9.033
17162WAT     H151728   2.041   2.040   8.945
17162WAT     H251729   2.013   2.005   9.102
17163WAT      O51730   9.203   1.238   1.444
17163WAT     H151731   9.303   1.237   1.434
17163WAT     H251732   9.162   1.272   1.360
17164WAT      O51733   9.464   8.968   3.831
17164WAT     H151734   9.415   9.051   3.805
17164WAT     H251735   9.475   8.965   3.930
17165WAT      O51736   4.710   4.175   2.090
17165WAT     H151737   4.631   4.120   2.065
17165WAT     H251738   4.788   4.149   2.033
17166WAT      O51739   3.696   7.978   9.731
17166WAT     H151740   3.690   7.878   9.721
17166WAT     H251741   3.734   8.017   9.647
17167WAT      O51742   6.936   9.205   5.170
17167WAT     H151743   6.997   9.126   5.171
17167WAT     H251744   6.895   9.215   5.079
17168WAT      O51745   0.812   3.615   3.070
17168WAT     H151746   0.728   3.643   3.024
17168WAT     H251747   0.803   3.521   3.102
17169WAT      O51748   5.962   2.226   2.325
17169WAT     H151749   5.972   2.264   2.417
17169WAT     H251750   5.907   2.288   2.269
17170WAT      O51751   5.520   2.994   2.845
17170WAT     H151752   5.483   3.007   2.753
17170WAT     H251753   5.461   3.040   2.911
17171WAT      O51754   6.145   7.598   4.495
17171WAT     H151755   6.143   7.610   4.396
17171WAT     H251756   6.231   7.556   4.522
17172WAT      O51757   8.972   1.556   6.111
17172WAT     H151758   9.006   1.638   6.065
17172WAT     H251759   8.872   1.557   6.111
17173WAT      O51760   1.693   2.595   7.736
17173WAT     H151761   1.676   2.686   7.698
17173WAT     H251762   1.790   2.585   7.755
17174WAT      O51763   9.478   0.189   3.751
17174WAT     H151764   9.420   0.228   3.823
17174WAT     H251765   9.430   0.198   3.663
17175WAT      O51766   9.618   7.910   8.898
17175WAT     H151767   9.560   7.832   8.921
17175WAT     H251768   9.692   7.918   8.965
17176WAT      O51769   3.262   0.151   5.056
17176WAT     H151770   3.290   0.197   5.140
17176WAT     H251771   3.339   0.102   5.017
17177WAT      O51772   3.055   1.995   2.026
17177WAT     H151773   3.123   2.063   2.054
17177WAT     H251774   3.016   2.022   1.938
17178WAT      O51775   4.713   6.066   7.765
17178WAT     H151776   4.714   6.160   7.800
17178WAT     H251777   4.795   6.051   7.710
17179WAT      O51778   0.498   2.381   6.289
17179WAT     H151779   0.519   2.357   6.384
17179WAT     H251780   0.399   2.373   6.274
17180WAT      O51781   3.466   7.361   5.184
17180WAT     H151782   3.534   7.380   5.114
17180WAT     H251783   3.458   7.262   5.197
17181WAT      O51784   4.647   5.472   9.861
17181WAT     H151785   4.557   5.472   9.905
17181WAT     H251786   4.682   5.566   9.857
17182WAT      O51787   8.508   3.157   7.611
17182WAT     H151788   8.571   3.226   7.647
17182WAT     H251789   8.550   3.111   7.532
17183WAT      O51790   7.463   8.075   0.254
17183WAT     H151791   7.414   8.138   0.314
17183WAT     H251792   7.521   8.126   0.192
17184WAT      O51793   2.184   5.206   1.206
17184WAT     H151794   2.179   5.106   1.209
17184WAT     H251795   2.252   5.238   1.271
17185WAT      O51796   4.837   4.079   8.250
17185WAT     H151797   4.913   4.017   8.269
17185WAT     H251798   4.773   4.035   8.187
17186WAT      O51799   6.113   3.452   4.543
17186WAT     H151800   6.021   3.471   4.576
17186WAT     H251801   6.177   3.453   4.619
17187WAT      O51802   7.497   8.591   8.750
17187WAT     H151803   7.558   8.513   8.738
17187WAT     H251804   7.413   8.560   8.797
17188WAT      O51805   0.168   5.026   5.610
17188WAT     H151806   0.192   5.085   5.687
17188WAT     H251807   0.115   4.947   5.643
17189WAT      O51808   7.289   8.041   0.007
17189WAT     H151809   7.347   7.961   0.025
17189WAT     H251810   7.270   8.088   0.093
17190WAT      O51811   7.877   7.857   1.658
17190WAT     H151812   7.958   7.914   1.644
17190WAT     H251813   7.900   7.762   1.638
17191WAT      O51814   4.694   7.662   3.429
17191WAT     H151815   4.728   7.753   3.408
17191WAT     H251816   4.629   7.633   3.358
17192WAT      O51817   2.082   4.015   4.732
17192WAT     H151818   1.988   4.045   4.719
17192WAT     H251819   2.120   4.060   4.813
17193WAT      O51820   5.973   9.648   5.264
17193WAT     H151821   6.028   9.564   5.261
17193WAT     H251822   5.997   9.706   5.186
17194WAT      O51823   2.102   0.712   4.711
17194WAT     H151824   2.052   0.728   4.797
17194WAT     H251825   2.087   0.617   4.681
17195WAT      O51826   4.757   3.679   5.073
17195WAT     H151827   4.810   3.594   5.074
17195WAT     H251828   4.692   3.679   5.149
17196WAT      O51829   8.262   7.177   9.833
17196WAT     H151830   8.195   7.151   9.764
17196WAT     H251831   8.223   7.162   9.924
17197WAT      O51832   0.716   2.673   7.593
17197WAT     H151833   0.764   2.742   7.540
17197WAT     H251834   0.738   2.683   7.690
17198WAT      O51835   0.489   2.830   5.435
17198WAT     H151836   0.448   2.920   5.421
17198WAT     H251837   0.546   2.807   5.357
17199WAT      O51838   7.392   4.174   5.526
17199WAT     H151839   7.410   4.272   5.536
17199WAT     H251840   7.334   4.159   5.445
17200WAT      O51841   8.640   6.802   5.998
17200WAT     H151842   8.677   6.709   6.008
17200WAT     H251843   8.693   6.865   6.056
17201WAT      O51844   5.591   2.588   3.403
17201WAT     H151845   5.666   2.628   3.455
17201WAT     H251846   5.622   2.566   3.310
17202WAT      O51847   2.487   1.654   9.752
17202WAT     H151848   2.540   1.738   9.766
17202WAT     H251849   2.546   1.584   9.711
17203WAT      O51850   1.622   9.215   1.869
17203WAT     H151851   1.701   9.269   1.839
17203WAT     H251852   1.651   9.120   1.884
17204WAT      O51853   9.190   1.953   8.238
17204WAT     H151854   9.197   1.932   8.141
17204WAT     H251855   9.111   1.905   8.277
17205WAT      O51856   1.294   1.097   3.971
17205WAT     H151857   1.344   1.028   4.024
17205WAT     H251858   1.198   1.097   3.998
17206WAT      O51859   4.045   4.512   2.639
17206WAT     H151860   4.001   4.440   2.692
17206WAT     H251861   4.068   4.589   2.699
17207WAT      O51862   7.443   0.200   7.139
17207WAT     H151863   7.390   0.224   7.057
17207WAT     H251864   7.382   0.164   7.209
17208WAT      O51865   5.317   7.869   3.139
17208WAT     H151866   5.411   7.875   3.173
17208WAT     H251867   5.282   7.961   3.123
17209WAT      O51868   5.339   6.606   3.421
17209WAT     H151869   5.355   6.524   3.366
17209WAT     H251870   5.421   6.626   3.475
17210WAT      O51871   0.914   9.550   7.753
17210WAT     H151872   0.971   9.471   7.776
17210WAT     H251873   0.939   9.628   7.810
17211WAT      O51874   5.791   0.674   6.948
17211WAT     H151875   5.849   0.722   6.883
17211WAT     H251876   5.695   0.689   6.924
17212WAT      O51877   6.850   0.937   1.873
17212WAT     H151878   6.924   0.929   1.940
17212WAT     H251879   6.867   0.873   1.798
17213WAT      O51880   9.699   8.406   0.935
17213WAT     H151881   9.745   8.482   0.979
17213WAT     H251882   9.612   8.436   0.897
17214WAT      O51883   1.670   5.593   4.325
17214WAT     H151884   1.577   5.591   4.288
17214WAT     H251885   1.699   5.687   4.338
17215WAT      O51886   5.247   1.868   7.200
17215WAT     H151887   5.275   1.919   7.282
17215WAT     H251888   5.250   1.928   7.121
17216WAT      O51889   1.094   0.811   3.102
17216WAT     H151890   1.188   0.782   3.082
17216WAT     H251891   1.033   0.732   3.097
17217WAT      O51892   5.036   4.992   6.935
17217WAT     H151893   5.079   5.037   7.013
17217WAT     H251894   4.938   5.015   6.934
17218WAT      O51895   0.550   1.854   4.235
17218WAT     H151896   0.617   1.792   4.194
17218WAT     H251897   0.545   1.938   4.181
17219WAT      O51898   6.480   1.500   2.212
17219WAT     H151899   6.485   1.598   2.195
17219WAT     H251900   6.407   1.460   2.157
17220WAT      O51901   7.380   5.001   8.820
17220WAT     H151902   7.429   4.933   8.876
17220WAT     H251903   7.445   5.069   8.787
17221WAT      O51904   1.245   3.607   5.233
17221WAT     H151905   1.238   3.689   5.175
17221WAT     H251906   1.201   3.531   5.187
17222WAT      O51907   0.245   5.828   1.835
17222WAT     H151908   0.179   5.771   1.885
17222WAT     H251909   0.262   5.912   1.887
17223WAT      O51910   5.568   9.208   8.185
17223WAT     H151911   5.574   9.119   8.138
17223WAT     H251912   5.543   9.279   8.118
17224WAT      O51913   8.494   2.214   2.561
17224WAT     H151914   8.484   2.295   2.503
17224WAT     H251915   8.517   2.135   2.505
17225WAT      O51916   2.232   3.919   5.239
17225WAT     H151917   2.325   3.903   5.206
17225WAT     H251918   2.221   4.015   5.264
17226WAT      O51919   4.803   6.827   4.455
17226WAT     H151920   4.878   6.885   4.486
17226WAT     H251921   4.808   6.738   4.500
17227WAT      O51922   7.623   0.412   7.101
17227WAT     H151923   7.694   0.351   7.137
17227WAT     H251924   7.536   0.364   7.099
17228WAT      O51925   5.465   2.988   2.040
17228WAT     H151926   5.462   2.909   2.101
17228WAT     H251927   5.485   3.071   2.093
17229WAT      O51928   4.108   0.409   7.974
17229WAT     H151929   4.044   0.347   8.019
17229WAT     H251930   4.088   0.413   7.876
17230WAT      O51931   4.900   4.625   7.579
17230WAT     H151932   4.939   4.666   7.496
17230WAT     H251933   4.948   4.540   7.599
17231WAT      O51934   4.809   1.426   3.875
17231WAT     H151935   4.809   1.511   3.928
17231WAT     H251936   4.729   1.372   3.898
17232WAT      O51937   1.656   3.682   9.511
17232WAT     H151938   1.744   3.728   9.526
17232WAT     H251939   1.657   3.635   9.423
17233WAT      O51940   3.374   0.771   9.507
17233WAT     H151941   3.344   0.683   9.470
17233WAT     H251942   3.315   0.844   9.470
17234WAT      O51943   1.202   6.159   5.049
17234WAT     H151944   1.289   6.119   5.020
17234WAT     H251945   1.199   6.255   5.023
17235WAT      O51946   8.818   3.018   7.744
17235WAT     H151947   8.893   3.016   7.677
17235WAT     H251948   8.841   3.083   7.817
17236WAT      O51949   1.859   0.814   8.326
17236WAT     H151950   1.815   0.870   8.397
17236WAT     H251951   1.936   0.765   8.366
17237WAT      O51952   0.593   9.757   2.232
17237WAT     H151953   0.521   9.742   2.300
17237WAT     H251954   0.663   9.817   2.271
17238WAT      O51955   0.864   1.577   1.615
17238WAT     H151956   0.793   1.538   1.674
17238WAT     H251957   0.940   1.512   1.607
17239WAT      O51958   5.290   8.651   9.715
17239WAT     H151959   5.291   8.703   9.630
17239WAT     H251960   5.345   8.568   9.703
17240WAT      O51961   9.245   2.369   6.972
17240WAT     H151962   9.321   2.333   7.026
17240WAT     H251963   9.279   2.442   6.912
17241WAT      O51964   7.692   6.392   9.882
17241WAT     H151965   7.693   6.316   9.947
17241WAT     H251966   7.605   6.440   9.889
17242WAT      O51967   3.695   9.315   6.266
17242WAT     H151968   3.635   9.241   6.296
17242WAT     H251969   3.649   9.403   6.280
17243WAT      O51970   5.059   4.775   3.224
17243WAT     H151971   5.026   4.681   3.236
17243WAT     H251972   5.145   4.787   3.274
17244WAT      O51973   1.777   4.999   1.286
17244WAT     H151974   1.739   4.982   1.377
17244WAT     H251975   1.831   5.084   1.288
17245WAT      O51976   5.394   4.190   5.750
17245WAT     H151977   5.453   4.227   5.678
17245WAT     H251978   5.450   4.135   5.813
17246WAT      O51979   8.055   0.295   7.683
17246WAT     H151980   8.070   0.391   7.655
17246WAT     H251981   8.138   0.260   7.726
17247WAT      O51982   7.440   6.135   4.101
17247WAT     H151983   7.465   6.121   4.006
17247WAT     H251984   7.411   6.230   4.115
17248WAT      O51985   5.899   3.184   8.581
17248WAT     H151986   5.856   3.122   8.515
17248WAT     H251987   5.957   3.131   8.643
17249WAT      O51988   6.907   0.424   5.748
17249WAT     H151989   6.949   0.515   5.759
17249WAT     H251990   6.839   0.410   5.820
17250WAT      O51991   3.672   6.139   6.781
17250WAT     H151992   3.718   6.210   6.833
17250WAT     H251993   3.623   6.078   6.844
17251WAT      O51994   2.794   9.071   5.067
17251WAT     H151995   2.873   9.101   5.013
17251WAT     H251996   2.757   8.987   5.029
17252WAT      O51997   9.412   9.761   4.610
17252WAT     H151998   9.469   9.741   4.690
17252WAT     H251999   9.436   9.700   4.535
17253WAT      O52000   6.584   5.370   1.950
17253WAT     H152001   6.577   5.341   2.045
17253WAT     H252002   6.609   5.466   1.945
17254WAT      O52003   8.587   0.056   2.271
17254WAT     H152004   8.544  -0.016   2.217
17254WAT     H252005   8.662   0.096   2.219
17255WAT      O52006   8.199   4.765   5.533
17255WAT     H152007   8.274   4.720   5.582
17255WAT     H252008   8.124   4.701   5.521
17256WAT      O52009   6.375   7.531   6.289
17256WAT     H152010   6.421   7.503   6.373
17256WAT     H252011   6.442   7.536   6.215
17257WAT      O52012   2.806   0.697   0.426
17257WAT     H152013   2.792   0.713   0.328
17257WAT     H252014   2.719   0.669   0.468
17258WAT      O52015   0.461   6.227   0.576
17258WAT     H152016   0.492   6.223   0.481
17258WAT     H252017   0.392   6.157   0.592
17259WAT      O52018   2.524   3.509   4.079
17259WAT     H152019   2.529   3.410   4.091
17259WAT     H252020   2.511   3.530   3.982
17260WAT      O52021   5.688   3.982   2.676
17260WAT     H152022   5.640   4.057   2.629
17260WAT     H252023   5.783   3.979   2.646
17261WAT      O52024   8.336   4.781   3.992
17261WAT     H152025   8.352   4.710   4.061
17261WAT     H252026   8.423   4.820   3.963
17262WAT      O52027   5.566   7.249   1.019
17262WAT     H152028   5.532   7.338   0.990
17262WAT     H252029   5.527   7.178   0.960
17263WAT      O52030   0.379   6.471   4.524
17263WAT     H152031   0.433   6.554   4.509
17263WAT     H252032   0.409   6.427   4.609
17264WAT      O52033   2.704   2.253   9.585
17264WAT     H152034   2.644   2.219   9.512
17264WAT     H252035   2.734   2.176   9.642
17265WAT      O52036   2.124   6.783   2.000
17265WAT     H152037   2.033   6.822   2.017
17265WAT     H252038   2.154   6.809   1.908
17266WAT      O52039   7.997   9.391   1.546
17266WAT     H152040   8.047   9.341   1.617
17266WAT     H252041   7.924   9.445   1.589
17267WAT      O52042   5.060   2.398   0.950
17267WAT     H152043   5.002   2.479   0.947
17267WAT     H252044   5.112   2.391   0.864
17268WAT      O52045   7.939   6.544   5.808
17268WAT     H152046   7.841   6.554   5.788
17268WAT     H252047   7.951   6.478   5.883
17269WAT      O52048   7.184   5.775   6.559
17269WAT     H152049   7.145   5.685   6.540
17269WAT     H252050   7.226   5.775   6.649
17270WAT      O52051   1.654   2.351   8.311
17270WAT     H152052   1.736   2.356   8.368
17270WAT     H252053   1.633   2.255   8.291
17271WAT      O52054   8.766   6.876   7.742
17271WAT     H152055   8.815   6.839   7.663
17271WAT     H252056   8.667   6.870   7.725
17272WAT      O52057   1.903   9.390   9.693
17272WAT     H152058   1.978   9.326   9.707
17272WAT     H252059   1.849   9.361   9.613
17273WAT      O52060   2.632   1.180   4.778
17273WAT     H152061   2.561   1.221   4.835
17273WAT     H252062   2.590   1.123   4.707
17274WAT      O52063   0.632   2.083   0.354
17274WAT     H152064   0.693   2.143   0.406
17274WAT     H252065   0.603   2.129   0.271
17275WAT      O52066   9.672   5.575   3.609
17275WAT     H152067   9.621   5.490   3.617
17275WAT     H252068   9.690   5.594   3.512
17276WAT      O52069   7.912   7.196   4.418
17276WAT     H152070   8.002   7.200   4.376
17276WAT     H252071   7.922   7.178   4.516
17277WAT      O52072   4.025   1.929   8.395
17277WAT     H152073   4.057   1.919   8.489
17277WAT     H252074   3.986   2.020   8.382
17278WAT      O52075   6.814   6.629   0.254
17278WAT     H152076   6.728   6.582   0.271
17278WAT     H252077   6.872   6.624   0.335
17279WAT      O52078   5.013   9.618   8.890
17279WAT     H152079   4.999   9.708   8.848
17279WAT     H252080   4.994   9.546   8.824
17280WAT      O52081   8.493   2.461   5.842
17280WAT     H152082   8.415   2.427   5.893
17280WAT     H252083   8.578   2.435   5.889
17281WAT      O52084   4.031   5.739   0.073
17281WAT     H152085   4.046   5.751   0.171
17281WAT     H252086   3.939   5.771   0.049
17282WAT      O52087   6.824   2.361   2.647
17282WAT     H152088   6.873   2.407   2.573
17282WAT     H252089   6.890   2.311   2.703
17283WAT      O52090   1.276   8.779   1.131
17283WAT     H152091   1.345   8.828   1.184
17283WAT     H252092   1.301   8.683   1.123
17284WAT      O52093   7.796   0.993   5.560
17284WAT     H152094   7.880   1.035   5.596
17284WAT     H252095   7.819   0.908   5.513
17285WAT      O52096   4.450   7.502   7.930
17285WAT     H152097   4.362   7.519   7.884
17285WAT     H252098   4.488   7.588   7.963
17286WAT      O52099   8.491   3.342   8.004
17286WAT     H152100   8.416   3.276   8.002
17286WAT     H252101   8.577   3.295   7.989
17287WAT      O52102   4.977   8.929   0.577
17287WAT     H152103   5.028   8.845   0.554
17287WAT     H252104   4.969   8.986   0.496
17288WAT      O52105   1.663   1.323   4.061
17288WAT     H152106   1.633   1.356   3.972
17288WAT     H252107   1.585   1.281   4.109
17289WAT      O52108   9.822   9.394   7.273
17289WAT     H152109   9.819   9.443   7.360
17289WAT     H252110   9.738   9.341   7.261
17290WAT      O52111   0.632   6.827   5.984
17290WAT     H152112   0.658   6.732   5.969
17290WAT     H252113   0.700   6.872   6.041
17291WAT      O52114   4.285   5.925   7.980
17291WAT     H152115   4.320   5.970   7.897
17291WAT     H252116   4.352   5.859   8.013
17292WAT      O52117   4.476   4.337   2.808
17292WAT     H152118   4.470   4.424   2.856
17292WAT     H252119   4.572   4.309   2.801
17293WAT      O52120   1.906   7.625   1.324
17293WAT     H152121   1.916   7.723   1.340
17293WAT     H252122   1.952   7.600   1.239
17294WAT      O52123   4.967   9.141   4.713
17294WAT     H152124   5.056   9.097   4.703
17294WAT     H252125   4.921   9.144   4.624
17295WAT      O52126   3.179   4.497   2.281
17295WAT     H152127   3.086   4.496   2.242
17295WAT     H252128   3.186   4.570   2.348
17296WAT      O52129   7.524   3.092   7.271
17296WAT     H152130   7.524   3.131   7.179
17296WAT     H252131   7.616   3.059   7.293
17297WAT      O52132   8.411   7.042   1.672
17297WAT     H152133   8.376   6.961   1.720
17297WAT     H252134   8.471   7.094   1.732
17298WAT      O52135   8.058   1.919   1.054
17298WAT     H152136   8.116   2.001   1.060
17298WAT     H252137   7.986   1.925   1.122
17299WAT      O52138   6.105   3.549   9.489
17299WAT     H152139   6.111   3.580   9.394
17299WAT     H252140   6.027   3.593   9.533
17300WAT      O52141   7.660   4.208   5.136
17300WAT     H152142   7.685   4.289   5.190
17300WAT     H252143   7.710   4.209   5.050
17301WAT      O52144   3.414   4.307   5.911
17301WAT     H152145   3.418   4.405   5.927
17301WAT     H252146   3.349   4.287   5.838
17302WAT      O52147   8.569   6.902   4.718
17302WAT     H152148   8.549   6.978   4.656
17302WAT     H252149   8.666   6.904   4.742
17303WAT      O52150   6.730   5.850   4.374
17303WAT     H152151   6.666   5.776   4.357
17303WAT     H252152   6.806   5.818   4.430
17304WAT      O52153   7.124   9.158   9.112
17304WAT     H152154   7.181   9.159   9.030
17304WAT     H252155   7.162   9.221   9.179
17305WAT      O52156   2.021   8.879   2.192
17305WAT     H152157   2.057   8.924   2.274
17305WAT     H252158   1.940   8.826   2.217
17306WAT      O52159   8.021   5.552   1.352
17306WAT     H152160   8.041   5.526   1.446
17306WAT     H252161   8.106   5.576   1.305
17307WAT      O52162   4.931   4.734   2.698
17307WAT     H152163   4.850   4.786   2.673
17307WAT     H252164   4.945   4.738   2.797
17308WAT      O52165   3.209   6.237   1.035
17308WAT     H152166   3.159   6.242   1.121
17308WAT     H252167   3.172   6.303   0.970
17309WAT      O52168   3.188   0.686   7.263
17309WAT     H152169   3.123   0.619   7.296
17309WAT     H252170   3.281   0.656   7.284
17310WAT      O52171   1.326   4.240   5.589
17310WAT     H152172   1.423   4.219   5.584
17310WAT     H252173   1.275   4.173   5.534
17311WAT      O52174   7.634   7.272   4.548
17311WAT     H152175   7.726   7.243   4.573
17311WAT     H252176   7.640   7.343   4.477
17312WAT      O52177   6.497   6.713   0.860
17312WAT     H152178   6.556   6.761   0.925
17312WAT     H252179   6.524   6.735   0.767
17313WAT      O52180   7.095   1.855   7.836
17313WAT     H152181   7.145   1.929   7.881
17313WAT     H252182   7.091   1.776   7.896
17314WAT      O52183   9.026   1.601   1.016
17314WAT     H152184   9.040   1.613   1.115
17314WAT     H252185   9.115   1.599   0.970
17315WAT      O52186   2.150   9.223   9.779
17315WAT     H152187   2.130   9.126   9.768
17315WAT     H252188   2.181   9.261   9.691
17316WAT      O52189   5.978   3.432   3.221
17316WAT     H152190   5.975   3.353   3.284
17316WAT     H252191   5.968   3.399   3.127
17317WAT      O52192   7.961   0.121   4.613
17317WAT     H152193   8.038   0.157   4.666
17317WAT     H252194   7.963   0.159   4.521
17318WAT      O52195   8.955   9.013   0.703
17318WAT     H152196   9.024   9.039   0.635
17318WAT     H252197   8.864   9.032   0.666
17319WAT      O52198   2.623   8.081   8.216
17319WAT     H152199   2.644   8.095   8.312
17319WAT     H252200   2.706   8.057   8.166
17320WAT      O52201   9.225   5.201   9.280
17320WAT     H152202   9.219   5.238   9.187
17320WAT     H252203   9.281   5.262   9.336
17321WAT      O52204   2.842   2.370   4.666
17321WAT     H152205   2.902   2.298   4.702
17321WAT     H252206   2.887   2.414   4.588
17322WAT      O52207   5.569   6.593   5.190
17322WAT     H152208   5.495   6.609   5.255
17322WAT     H252209   5.565   6.499   5.156
17323WAT      O52210   1.396   2.811   7.370
17323WAT     H152211   1.461   2.739   7.393
17323WAT     H252212   1.303   2.781   7.392
17324WAT      O52213   9.505   5.703   1.609
17324WAT     H152214   9.490   5.695   1.708
17324WAT     H252215   9.516   5.799   1.585
17325WAT      O52216   4.566   7.538   6.732
17325WAT     H152217   4.643   7.555   6.794
17325WAT     H252218   4.520   7.453   6.759
17326WAT      O52219   9.286   3.929   9.195
17326WAT     H152220   9.226   3.997   9.236
17326WAT     H252221   9.367   3.974   9.157
17327WAT      O52222   3.444   7.240   4.868
17327WAT     H152223   3.487   7.328   4.848
17327WAT     H252224   3.514   7.168   4.868
17328WAT      O52225   1.318   2.849   5.669
17328WAT     H152226   1.332   2.828   5.573
17328WAT     H252227   1.396   2.901   5.704
17329WAT      O52228   2.010   3.954   8.353
17329WAT     H152229   1.955   3.907   8.423
17329WAT     H252230   1.953   4.021   8.306
17330WAT      O52231   2.308   1.664   7.849
17330WAT     H152232   2.275   1.735   7.911
17330WAT     H252233   2.401   1.638   7.875
17331WAT      O52234   2.640   7.242   8.818
17331WAT     H152235   2.589   7.228   8.903
17331WAT     H252236   2.576   7.263   8.744
17332WAT      O52237   8.466   1.103   4.147
17332WAT     H152238   8.466   1.012   4.103
17332WAT     H252239   8.457   1.173   4.076
17333WAT      O52240   3.861   5.037   2.050
17333WAT     H152241   3.832   5.125   2.013
17333WAT     H252242   3.961   5.029   2.044
17334WAT      O52243   7.793   8.627   2.792
17334WAT     H152244   7.790   8.669   2.702
17334WAT     H252245   7.699   8.615   2.826
17335WAT      O52246   8.358   5.926   9.543
17335WAT     H152247   8.366   5.911   9.641
17335WAT     H252248   8.391   5.846   9.494
17336WAT      O52249   1.473   8.825   5.157
17336WAT     H152250   1.431   8.743   5.196
17336WAT     H252251   1.482   8.895   5.227
17337WAT      O52252   1.983   7.517   1.708
17337WAT     H152253   2.035   7.601   1.692
17337WAT     H252254   1.898   7.520   1.656
17338WAT      O52255   8.619   1.877   0.381
17338WAT     H152256   8.682   1.805   0.409
17338WAT     H252257   8.669   1.963   0.370
17339WAT      O52258   9.399   8.804   2.224
17339WAT     H152259   9.491   8.839   2.235
17339WAT     H252260   9.339   8.876   2.190
17340WAT      O52261   9.241   2.116   0.622
17340WAT     H152262   9.274   2.209   0.639
17340WAT     H252263   9.164   2.120   0.558
17341WAT      O52264   8.709   5.511   7.543
17341WAT     H152265   8.622   5.545   7.505
17341WAT     H252266   8.703   5.413   7.558
17342WAT      O52267   5.063   8.919   3.840
17342WAT     H152268   5.015   9.006   3.828
17342WAT     H252269   5.106   8.892   3.754
17343WAT      O52270   3.773   0.395   0.292
17343WAT     H152271   3.784   0.316   0.353
17343WAT     H252272   3.725   0.366   0.209
17344WAT      O52273   5.651   2.712   5.851
17344WAT     H152274   5.566   2.695   5.900
17344WAT     H252275   5.642   2.793   5.794
17345WAT      O52276   3.654   8.199   5.646
17345WAT     H152277   3.728   8.261   5.622
17345WAT     H252278   3.572   8.223   5.594
17346WAT      O52279   2.585   9.013   9.319
17346WAT     H152280   2.532   8.938   9.358
17346WAT     H252281   2.550   9.034   9.228
17347WAT      O52282   1.773   7.756   9.176
17347WAT     H152283   1.867   7.736   9.146
17347WAT     H252284   1.776   7.804   9.263
17348WAT      O52285   5.286   3.569   8.734
17348WAT     H152286   5.205   3.606   8.689
17348WAT     H252287   5.319   3.490   8.682
17349WAT      O52288   4.017   5.178   7.755
17349WAT     H152289   4.097   5.146   7.703
17349WAT     H252290   3.941   5.114   7.742
17350WAT      O52291   5.444   1.104   4.369
17350WAT     H152292   5.358   1.059   4.342
17350WAT     H252293   5.501   1.040   4.418
17351WAT      O52294   9.432   0.981   3.237
17351WAT     H152295   9.333   0.983   3.227
17351WAT     H252296   9.466   0.889   3.214
17352WAT      O52297   9.474   4.024   1.300
17352WAT     H152298   9.380   3.995   1.320
17352WAT     H252299   9.477   4.123   1.290
17353WAT      O52300   4.487   3.107   9.431
17353WAT     H152301   4.542   3.174   9.481
17353WAT     H252302   4.500   3.017   9.472
17354WAT      O52303   5.251   8.688   2.931
17354WAT     H152304   5.325   8.633   2.971
17354WAT     H252305   5.288   8.743   2.857
17355WAT      O52306   1.391   4.111   5.143
17355WAT     H152307   1.423   4.107   5.048
17355WAT     H252308   1.458   4.160   5.198
17356WAT      O52309   1.854   2.248   5.292
17356WAT     H152310   1.775   2.199   5.330
17356WAT     H252311   1.868   2.333   5.342
17357WAT      O52312   6.539   5.914   8.588
17357WAT     H152313   6.445   5.932   8.618
17357WAT     H252314   6.538   5.864   8.501
17358WAT      O52315   4.831   0.465   6.287
17358WAT     H152316   4.892   0.526   6.237
17358WAT     H252317   4.751   0.444   6.232
17359WAT      O52318   1.411   3.392   1.519
17359WAT     H152319   1.506   3.369   1.540
17359WAT     H252320   1.406   3.485   1.485
17360WAT      O52321   6.737   3.940   6.831
17360WAT     H152322   6.654   3.962   6.782
17360WAT     H252323   6.804   3.899   6.769
17361WAT      O52324   2.978   3.999   8.181
17361WAT     H152325   2.881   3.983   8.198
17361WAT     H252326   2.997   3.987   8.083
17362WAT      O52327   9.615   1.557   4.522
17362WAT     H152328   9.615   1.566   4.422
17362WAT     H252329   9.699   1.510   4.551
17363WAT      O52330   7.687   7.791   3.527
17363WAT     H152331   7.764   7.838   3.485
17363WAT     H252332   7.713   7.758   3.618
17364WAT      O52333   1.085   5.775   5.583
17364WAT     H152334   1.020   5.749   5.511
17364WAT     H252335   1.125   5.864   5.562
17365WAT      O52336   6.288   0.465   9.375
17365WAT     H152337   6.192   0.482   9.356
17365WAT     H252338   6.324   0.398   9.310
17366WAT      O52339   1.962   0.887   7.613
17366WAT     H152340   1.985   0.828   7.535
17366WAT     H252341   1.883   0.849   7.661
17367WAT      O52342   2.299   5.972   0.108
17367WAT     H152343   2.260   5.885   0.136
17367WAT     H252344   2.329   6.022   0.189
17368WAT      O52345   5.888   0.591   4.908
17368WAT     H152346   5.852   0.512   4.958
17368WAT     H252347   5.899   0.566   4.811
17369WAT      O52348   0.167   7.556   4.567
17369WAT     H152349   0.224   7.477   4.589
17369WAT     H252350   0.124   7.543   4.478
17370WAT      O52351   7.406   6.084   8.479
17370WAT     H152352   7.416   6.119   8.572
17370WAT     H252353   7.453   5.996   8.471
17371WAT      O52354   6.809   6.832   7.495
17371WAT     H152355   6.728   6.776   7.478
17371WAT     H252356   6.809   6.910   7.433
17372WAT      O52357   4.457   3.594   4.357
17372WAT     H152358   4.445   3.552   4.447
17372WAT     H252359   4.500   3.684   4.367
17373WAT      O52360   8.823   9.477   6.265
17373WAT     H152361   8.851   9.431   6.349
17373WAT     H252362   8.833   9.576   6.277
17374WAT      O52363   4.920   0.020   5.467
17374WAT     H152364   4.895  -0.077   5.475
17374WAT     H252365   5.015   0.026   5.436
17375WAT      O52366   2.595   8.737   4.136
17375WAT     H152367   2.664   8.805   4.109
17375WAT     H252368   2.513   8.783   4.169
17376WAT      O52369   5.222   5.293   2.603
17376WAT     H152370   5.260   5.364   2.543
17376WAT     H252371   5.265   5.300   2.694
17377WAT      O52372   4.040   3.402   6.077
17377WAT     H152373   4.038   3.304   6.098
17377WAT     H252374   3.998   3.453   6.153
17378WAT      O52375   3.901   4.132   3.911
17378WAT     H152376   3.906   4.077   3.994
17378WAT     H252377   3.915   4.074   3.831
17379WAT      O52378   6.228   1.812   0.661
17379WAT     H152379   6.242   1.842   0.755
17379WAT     H252380   6.217   1.712   0.659
17380WAT      O52381   4.414   7.896   6.471
17380WAT     H152382   4.395   7.946   6.387
17380WAT     H252383   4.344   7.915   6.539
17381WAT      O52384   0.257   8.574   5.637
17381WAT     H152385   0.263   8.480   5.605
17381WAT     H252386   0.319   8.631   5.582
17382WAT      O52387   6.557   6.798   7.417
17382WAT     H152388   6.583   6.874   7.476
17382WAT     H252389   6.491   6.830   7.348
17383WAT      O52390   5.314   0.642   7.793
17383WAT     H152391   5.410   0.652   7.767
17383WAT     H252392   5.295   0.700   7.873
17384WAT      O52393   5.684   0.014   7.101
17384WAT     H152394   5.743  -0.046   7.155
17384WAT     H252395   5.589  -0.013   7.113
17385WAT      O52396   3.489   8.146   7.136
17385WAT     H152397   3.518   8.164   7.230
17385WAT     H252398   3.565   8.105   7.085
17386WAT      O52399   5.383   2.537   1.514
17386WAT     H152400   5.454   2.481   1.472
17386WAT     H252401   5.295   2.489   1.509
17387WAT      O52402   4.285   6.489   9.464
17387WAT     H152403   4.329   6.483   9.553
17387WAT     H252404   4.346   6.535   9.399
17388WAT      O52405   4.424   8.689   8.640
17388WAT     H152406   4.513   8.732   8.623
17388WAT     H252407   4.438   8.599   8.680
17389WAT      O52408   2.873   1.430   0.431
17389WAT     H152409   2.827   1.463   0.512
17389WAT     H252410   2.944   1.364   0.457
17390WAT      O52411   3.739   1.938   7.793
17390WAT     H152412   3.822   1.884   7.778
17390WAT     H252413   3.676   1.924   7.717
17391WAT      O52414   4.129   0.881   0.224
17391WAT     H152415   4.078   0.827   0.291
17391WAT     H252416   4.227   0.876   0.246
17392WAT      O52417   5.712   4.056   3.362
17392WAT     H152418   5.781   3.996   3.321
17392WAT     H252419   5.725   4.149   3.328
17393WAT      O52420   4.496   2.868   5.197
17393WAT     H152421   4.455   2.780   5.170
17393WAT     H252422   4.547   2.905   5.120
17394WAT      O52423   6.951   5.022   8.168
17394WAT     H152424   6.957   5.086   8.246
17394WAT     H252425   6.924   5.072   8.086
17395WAT      O52426   8.755   7.247   7.644
17395WAT     H152427   8.776   7.185   7.569
17395WAT     H252428   8.661   7.279   7.636
17396WAT      O52429   3.941   4.582   2.186
17396WAT     H152430   3.968   4.535   2.102
17396WAT     H252431   3.967   4.679   2.180
17397WAT      O52432   5.481   8.837   1.004
17397WAT     H152433   5.405   8.900   0.989
17397WAT     H252434   5.567   8.886   0.998
17398WAT      O52435   7.502   6.104   2.791
17398WAT     H152436   7.557   6.175   2.835
17398WAT     H252437   7.562   6.041   2.741
17399WAT      O52438   0.753   8.826   3.741
17399WAT     H152439   0.657   8.855   3.733
17399WAT     H252440   0.761   8.757   3.814
17400WAT      O52441   5.811   7.412   7.964
17400WAT     H152442   5.845   7.417   7.870
17400WAT     H252443   5.872   7.462   8.024
17401WAT      O52444   1.745   0.440   0.361
17401WAT     H152445   1.674   0.509   0.345
17401WAT     H252446   1.762   0.389   0.277
17402WAT      O52447   1.569   7.533   6.249
17402WAT     H152448   1.637   7.463   6.231
17402WAT     H252449   1.478   7.496   6.231
17403WAT      O52450   6.345   7.263   0.946
17403WAT     H152451   6.360   7.332   0.875
17403WAT     H252452   6.411   7.188   0.933
17404WAT      O52453   6.836   3.484   9.186
17404WAT     H152454   6.806   3.579   9.181
17404WAT     H252455   6.936   3.481   9.189
17405WAT      O52456   4.613   6.480   3.289
17405WAT     H152457   4.599   6.549   3.217
17405WAT     H252458   4.622   6.525   3.377
17406WAT      O52459   3.316   3.870   0.761
17406WAT     H152460   3.394   3.808   0.755
17406WAT     H252461   3.234   3.822   0.731
17407WAT      O52462   8.630   9.331   7.529
17407WAT     H152463   8.690   9.411   7.520
17407WAT     H252464   8.543   9.350   7.482
17408WAT      O52465   8.244   6.886   5.687
17408WAT     H152466   8.147   6.865   5.692
17408WAT     H252467   8.285   6.879   5.778
17409WAT      O52468   7.439   6.508   0.497
17409WAT     H152469   7.461   6.412   0.514
17409WAT     H252470   7.516   6.553   0.451
17410WAT      O52471   3.222   3.354   1.768
17410WAT     H152472   3.279   3.433   1.788
17410WAT     H252473   3.131   3.384   1.741
17411WAT      O52474   5.977   0.482   7.996
17411WAT     H152475   5.969   0.443   7.904
17411WAT     H252476   6.071   0.514   8.011
17412WAT      O52477   0.240   6.860   3.217
17412WAT     H152478   0.288   6.823   3.297
17412WAT     H252479   0.259   6.803   3.137
17413WAT      O52480   5.919   8.753   3.760
17413WAT     H152481   5.828   8.762   3.719
17413WAT     H252482   5.955   8.661   3.743
17414WAT      O52483   2.284   6.540   9.793
17414WAT     H152484   2.191   6.530   9.759
17414WAT     H252485   2.348   6.530   9.716
17415WAT      O52486   4.905   5.820   0.289
17415WAT     H152487   4.821   5.829   0.342
17415WAT     H252488   4.923   5.906   0.240
17416WAT      O52489   0.372   7.298   5.109
17416WAT     H152490   0.397   7.204   5.129
17416WAT     H252491   0.279   7.301   5.072
17417WAT      O52492   7.348   0.124   8.598
17417WAT     H152493   7.375   0.220   8.599
17417WAT     H252494   7.324   0.096   8.505
17418WAT      O52495   4.601   0.560   9.049
17418WAT     H152496   4.683   0.597   9.093
17418WAT     H252497   4.541   0.635   9.022
17419WAT      O52498   1.540   5.937   3.748
17419WAT     H152499   1.567   6.033   3.743
17419WAT     H252500   1.454   5.924   3.699
17420WAT      O52501   2.066   0.639   8.363
17420WAT     H152502   2.065   0.563   8.428
17420WAT     H252503   2.105   0.608   8.277
17421WAT      O52504   1.542   6.938   8.357
17421WAT     H152505   1.557   6.849   8.401
17421WAT     H252506   1.444   6.956   8.352
17422WAT      O52507   1.172   6.804   5.127
17422WAT     H152508   1.105   6.814   5.201
17422WAT     H252509   1.141   6.856   5.047
17423WAT      O52510   9.136   7.017   4.267
17423WAT     H152511   9.071   6.973   4.204
17423WAT     H252512   9.110   7.112   4.280
17424WAT      O52513   3.077   8.694   7.982
17424WAT     H152514   3.108   8.602   7.958
17424WAT     H252515   2.983   8.690   8.015
17425WAT      O52516   9.633   7.387   0.827
17425WAT     H152517   9.693   7.467   0.820
17425WAT     H252518   9.610   7.354   0.736
17426WAT      O52519   7.158   9.110   3.327
17426WAT     H152520   7.158   9.138   3.231
17426WAT     H252521   7.081   9.048   3.344
17427WAT      O52522   3.081   4.749   2.859
17427WAT     H152523   3.086   4.752   2.958
17427WAT     H252524   3.173   4.746   2.820
17428WAT      O52525   0.123   5.906   5.296
17428WAT     H152526   0.104   5.986   5.354
17428WAT     H252527   0.201   5.856   5.332
17429WAT      O52528   1.819   0.704   7.083
17429WAT     H152529   1.879   0.684   7.006
17429WAT     H252530   1.726   0.720   7.050
17430WAT      O52531   2.613   8.484   1.714
17430WAT     H152532   2.537   8.441   1.665
17430WAT     H252533   2.577   8.548   1.783
17431WAT      O52534   2.143   0.040   3.652
17431WAT     H152535   2.084  -0.041   3.646
17431WAT     H252536   2.095   0.112   3.702
17432WAT      O52537   9.652   2.583   6.317
17432WAT     H152538   9.658   2.484   6.308
17432WAT     H252539   9.717   2.626   6.255
17433WAT      O52540   0.932   0.948   1.632
17433WAT     H152541   0.932   0.953   1.732
17433WAT     H252542   0.846   0.985   1.597
17434WAT      O52543   6.290   7.795   6.240
17434WAT     H152544   6.232   7.839   6.309
17434WAT     H252545   6.318   7.705   6.272
17435WAT      O52546   5.573   8.611   7.512
17435WAT     H152547   5.622   8.527   7.535
17435WAT     H252548   5.535   8.604   7.420
17436WAT      O52549   2.679   0.316   0.088
17436WAT     H152550   2.710   0.295  -0.005
17436WAT     H252551   2.747   0.374   0.133
17437WAT      O52552   1.767   3.782   4.286
17437WAT     H152553   1.753   3.837   4.204
17437WAT     H252554   1.703   3.810   4.357
17438WAT      O52555   1.227   9.327   7.571
17438WAT     H152556   1.233   9.399   7.502
17438WAT     H252557   1.173   9.358   7.648
17439WAT      O52558   4.011   0.194   0.704
17439WAT     H152559   4.027   0.135   0.626
17439WAT     H252560   4.012   0.140   0.788
17440WAT      O52561   8.571   6.220   4.740
17440WAT     H152562   8.477   6.235   4.771
17440WAT     H252563   8.581   6.126   4.708
17441WAT      O52564   6.821   6.971   1.686
17441WAT     H152565   6.814   6.960   1.785
17441WAT     H252566   6.744   6.924   1.642
17442WAT      O52567   9.447   1.202   1.375
17442WAT     H152568   9.476   1.111   1.346
17442WAT     H252569   9.503   1.271   1.329
17443WAT      O52570   1.656   5.663   2.829
17443WAT     H152571   1.697   5.597   2.766
17443WAT     H252572   1.704   5.660   2.917
17444WAT      O52573   4.928   7.424   6.349
17444WAT     H152574   4.828   7.422   6.351
17444WAT     H252575   4.959   7.519   6.344
17445WAT      O52576   8.821   1.486   3.100
17445WAT     H152577   8.757   1.410   3.088
17445WAT     H252578   8.785   1.567   3.053
17446WAT      O52579   8.249   4.336   0.771
17446WAT     H152580   8.317   4.396   0.728
17446WAT     H252581   8.275   4.241   0.757
17447WAT      O52582   6.919   7.841   6.380
17447WAT     H152583   6.873   7.785   6.449
17447WAT     H252584   6.902   7.937   6.399
17448WAT      O52585   3.757   4.659   3.116
17448WAT     H152586   3.783   4.602   3.195
17448WAT     H252587   3.826   4.650   3.044
17449WAT      O52588   1.368   3.813   9.153
17449WAT     H152589   1.341   3.717   9.145
17449WAT     H252590   1.287   3.872   9.144
17450WAT      O52591   4.515   0.925   6.608
17450WAT     H152592   4.513   0.899   6.704
17450WAT     H252593   4.604   0.964   6.585
17451WAT      O52594   8.040   4.401   1.231
17451WAT     H152595   7.976   4.476   1.241
17451WAT     H252596   8.112   4.427   1.166
17452WAT      O52597   3.321   6.089   6.565
17452WAT     H152598   3.401   6.120   6.513
17452WAT     H252599   3.341   6.092   6.663
17453WAT      O52600   6.503   8.060   4.235
17453WAT     H152601   6.551   8.088   4.318
17453WAT     H252602   6.537   8.113   4.158
17454WAT      O52603   3.752   0.580   7.268
17454WAT     H152604   3.786   0.672   7.288
17454WAT     H252605   3.826   0.525   7.229
17455WAT      O52606   2.640   4.306   7.529
17455WAT     H152607   2.669   4.276   7.439
17455WAT     H252608   2.566   4.248   7.562
17456WAT      O52609   1.725   7.300   7.104
17456WAT     H152610   1.669   7.331   7.027
17456WAT     H252611   1.821   7.301   7.076
17457WAT      O52612   9.767   0.885   2.231
17457WAT     H152613   9.835   0.855   2.299
17457WAT     H252614   9.698   0.813   2.219
17458WAT      O52615   7.110   5.849   4.331
17458WAT     H152616   7.027   5.862   4.276
17458WAT     H252617   7.167   5.931   4.326
17459WAT      O52618   7.260   4.484   9.266
17459WAT     H152619   7.193   4.542   9.313
17459WAT     H252620   7.238   4.479   9.169
17460WAT      O52621   9.772   6.691   9.588
17460WAT     H152622   9.760   6.786   9.618
17460WAT     H252623   9.684   6.652   9.563
17461WAT      O52624   0.821   0.642   4.747
17461WAT     H152625   0.846   0.556   4.702
17461WAT     H252626   0.797   0.624   4.842
17462WAT      O52627   0.624   5.725   8.536
17462WAT     H152628   0.696   5.791   8.555
17462WAT     H252629   0.662   5.647   8.487
17463WAT      O52630   3.370   1.566   2.180
17463WAT     H152631   3.313   1.615   2.114
17463WAT     H252632   3.394   1.627   2.255
17464WAT      O52633   5.768   3.619   3.146
17464WAT     H152634   5.836   3.561   3.191
17464WAT     H252635   5.677   3.594   3.180
17465WAT      O52636   3.466   5.218   2.720
17465WAT     H152637   3.557   5.178   2.708
17465WAT     H252638   3.404   5.180   2.651
17466WAT      O52639   2.690   5.272   7.487
17466WAT     H152640   2.690   5.339   7.561
17466WAT     H252641   2.739   5.310   7.408
17467WAT      O52642   0.528   9.383   5.011
17467WAT     H152643   0.519   9.297   5.062
17467WAT     H252644   0.459   9.448   5.042
17468WAT      O52645   4.460   7.999   2.939
17468WAT     H152646   4.380   8.023   2.995
17468WAT     H252647   4.541   8.044   2.976
17469WAT      O52648   1.060   6.143   7.136
17469WAT     H152649   1.100   6.218   7.189
17469WAT     H252650   1.026   6.178   7.049
17470WAT      O52651   7.837   4.664   2.673
17470WAT     H152652   7.785   4.663   2.588
17470WAT     H252653   7.895   4.745   2.676
17471WAT      O52654   6.924   7.004   8.878
17471WAT     H152655   6.870   6.986   8.796
17471WAT     H252656   6.869   6.981   8.959
17472WAT      O52657   8.767   5.816   4.286
17472WAT     H152658   8.851   5.850   4.244
17472WAT     H252659   8.728   5.886   4.346
17473WAT      O52660   6.361   0.072   5.480
17473WAT     H152661   6.395   0.166   5.473
17473WAT     H252662   6.295   0.066   5.555
17474WAT      O52663   6.416   3.890   2.162
17474WAT     H152664   6.353   3.918   2.090
17474WAT     H252665   6.510   3.911   2.134
17475WAT      O52666   6.918   8.723   8.616
17475WAT     H152667   6.858   8.677   8.682
17475WAT     H252668   7.012   8.692   8.629
17476WAT      O52669   8.174   6.965   6.717
17476WAT     H152670   8.096   6.942   6.775
17476WAT     H252671   8.161   7.056   6.678
17477WAT      O52672   3.594   8.351   9.184
17477WAT     H152673   3.669   8.413   9.207
17477WAT     H252674   3.568   8.364   9.089
17478WAT      O52675   7.486   6.862   1.867
17478WAT     H152676   7.502   6.956   1.897
17478WAT     H252677   7.498   6.800   1.945
17479WAT      O52678   3.299   9.144   7.476
17479WAT     H152679   3.362   9.179   7.545
17479WAT     H252680   3.217   9.202   7.474
17480WAT      O52681   0.850   2.859   7.440
17480WAT     H152682   0.883   2.809   7.359
17480WAT     H252683   0.870   2.956   7.430
17481WAT      O52684   3.556   2.718   9.783
17481WAT     H152685   3.618   2.700   9.859
17481WAT     H252686   3.606   2.705   9.697
17482WAT      O52687   2.369   1.485   2.958
17482WAT     H152688   2.333   1.447   2.873
17482WAT     H252689   2.385   1.412   3.024
17483WAT      O52690   0.346   3.559   4.963
17483WAT     H152691   0.256   3.575   4.921
17483WAT     H252692   0.399   3.644   4.961
17484WAT      O52693   6.666   1.196   4.480
17484WAT     H152694   6.664   1.096   4.474
17484WAT     H252695   6.758   1.229   4.460
17485WAT      O52696   7.493   4.562   3.082
17485WAT     H152697   7.433   4.604   3.150
17485WAT     H252698   7.575   4.618   3.072
17486WAT      O52699   8.816   0.360   0.831
17486WAT     H152700   8.740   0.338   0.769
17486WAT     H252701   8.838   0.457   0.823
17487WAT      O52702   7.817   0.766   4.349
17487WAT     H152703   7.916   0.760   4.337
17487WAT     H252704   7.792   0.737   4.442
17488WAT      O52705   1.546   7.277   1.705
17488WAT     H152706   1.530   7.272   1.606
17488WAT     H252707   1.483   7.343   1.746
17489WAT      O52708   2.236   1.557   3.752
17489WAT     H152709   2.165   1.627   3.756
17489WAT     H252710   2.224   1.493   3.828
17490WAT      O52711   7.496   6.806   0.220
17490WAT     H152712   7.572   6.793   0.156
17490WAT     H252713   7.461   6.900   0.211
17491WAT      O52714   6.916   5.181   7.941
17491WAT     H152715   6.864   5.250   7.892
17491WAT     H252716   7.009   5.215   7.958
17492WAT      O52717   3.970   4.937   6.278
17492WAT     H152718   3.981   5.030   6.313
17492WAT     H252719   4.050   4.913   6.223
17493WAT      O52720   9.465   6.453   5.894
17493WAT     H152721   9.369   6.467   5.870
17493WAT     H252722   9.489   6.357   5.885
17494WAT      O52723   2.158   8.841   0.158
17494WAT     H152724   2.085   8.906   0.181
17494WAT     H252725   2.199   8.807   0.243
17495WAT      O52726   3.810   8.803   7.204
17495WAT     H152727   3.842   8.842   7.118
17495WAT     H252728   3.850   8.853   7.280
17496WAT      O52729   4.937   6.052   0.148
17496WAT     H152730   4.947   6.016   0.056
17496WAT     H252731   4.993   6.134   0.159
17497WAT      O52732   2.355   0.190   9.286
17497WAT     H152733   2.407   0.262   9.241
17497WAT     H252734   2.397   0.101   9.265
17498WAT      O52735   1.335   0.023   4.694
17498WAT     H152736   1.363   0.113   4.727
17498WAT     H252737   1.405  -0.015   4.634
17499WAT      O52738   5.061   5.185   3.597
17499WAT     H152739   5.122   5.169   3.518
17499WAT     H252740   5.113   5.227   3.671
17500WAT      O52741   6.088   8.403   0.762
17500WAT     H152742   6.106   8.335   0.832
17500WAT     H252743   6.089   8.359   0.672
17501WAT      O52744   8.335   2.501   6.676
17501WAT     H152745   8.399   2.436   6.717
17501WAT     H252746   8.346   2.591   6.719
17502WAT      O52747   8.248   0.647   6.344
17502WAT     H152748   8.161   0.609   6.312
17502WAT     H252749   8.316   0.638   6.272
17503WAT      O52750   5.330   3.970   6.475
17503WAT     H152751   5.242   3.930   6.500
17503WAT     H252752   5.378   3.909   6.413
17504WAT      O52753   0.074   9.136   5.186
17504WAT     H152754  -0.024   9.117   5.199
17504WAT     H252755   0.103   9.097   5.098
17505WAT      O52756   5.685   3.802   9.597
17505WAT     H152757   5.593   3.772   9.574
17505WAT     H252758   5.724   3.853   9.521
17506WAT      O52759   8.268   2.322   1.790
17506WAT     H152760   8.292   2.284   1.701
17506WAT     H252761   8.170   2.340   1.793
17507WAT      O52762  -0.002   9.454   9.722
17507WAT     H152763   0.091   9.437   9.754
17507WAT     H252764  -0.004   9.452   9.622
17508WAT      O52765   6.746   8.703   0.667
17508WAT     H152766   6.841   8.675   0.681
17508WAT     H252767   6.686   8.624   0.679
17509WAT      O52768   8.140   6.062   1.099
17509WAT     H152769   8.084   6.052   1.181
17509WAT     H252770   8.081   6.067   1.018
17510WAT      O52771   9.286   9.138   8.810
17510WAT     H152772   9.284   9.237   8.823
17510WAT     H252773   9.381   9.107   8.812
17511WAT      O52774   8.443   5.212   1.663
17511WAT     H152775   8.475   5.219   1.568
17511WAT     H252776   8.513   5.249   1.724
17512WAT      O52777   8.433   9.444   6.968
17512WAT     H152778   8.376   9.363   6.982
17512WAT     H252779   8.450   9.489   7.055
17513WAT      O52780   6.185   9.235   2.071
17513WAT     H152781   6.191   9.287   2.156
17513WAT     H252782   6.133   9.151   2.088
17514WAT      O52783   0.883   2.018   7.277
17514WAT     H152784   0.801   1.996   7.329
17514WAT     H252785   0.961   2.027   7.340
17515WAT      O52786   1.101   6.563   4.728
17515WAT     H152787   1.070   6.473   4.696
17515WAT     H252788   1.175   6.595   4.669
17516WAT      O52789   5.212   9.067   9.573
17516WAT     H152790   5.287   9.111   9.524
17516WAT     H252791   5.246   9.031   9.660
17517WAT      O52792   1.359   1.944   7.378
17517WAT     H152793   1.292   1.877   7.347
17517WAT     H252794   1.350   2.028   7.324
17518WAT      O52795   2.660   1.712   9.523
17518WAT     H152796   2.676   1.782   9.593
17518WAT     H252797   2.567   1.721   9.487
17519WAT      O52798   0.863   4.400   0.975
17519WAT     H152799   0.888   4.497   0.979
17519WAT     H252800   0.936   4.345   1.017
17520WAT      O52801   5.677   7.668   4.254
17520WAT     H152802   5.728   7.588   4.284
17520WAT     H252803   5.648   7.655   4.159
17521WAT      O52804   4.309   0.723   1.924
17521WAT     H152805   4.368   0.645   1.946
17521WAT     H252806   4.221   0.689   1.890
17522WAT      O52807   9.514   6.641   6.083
17522WAT     H152808   9.506   6.561   6.024
17522WAT     H252809   9.603   6.684   6.070
17523WAT      O52810   6.022   7.663   8.662
17523WAT     H152811   5.970   7.594   8.712
17523WAT     H252812   6.120   7.641   8.667
17524WAT      O52813   4.052   4.845   3.801
17524WAT     H152814   4.074   4.905   3.725
17524WAT     H252815   4.017   4.899   3.878
17525WAT      O52816   8.423   1.579   4.922
17525WAT     H152817   8.375   1.498   4.889
17525WAT     H252818   8.521   1.569   4.906
17526WAT      O52819   7.961   6.354   9.571
17526WAT     H152820   7.867   6.383   9.588
17526WAT     H252821   7.986   6.281   9.634
17527WAT      O52822   6.281   2.500   0.205
17527WAT     H152823   6.198   2.552   0.184
17527WAT     H252824   6.361   2.560   0.193
17528WAT      O52825   1.200   3.976   3.095
17528WAT     H152826   1.112   3.932   3.080
17528WAT     H252827   1.196   4.033   3.177
17529WAT      O52828   9.574   4.282   1.427
17529WAT     H152829   9.624   4.365   1.454
17529WAT     H252830   9.638   4.216   1.389
17530WAT      O52831   0.410   7.931   8.554
17530WAT     H152832   0.452   7.950   8.643
17530WAT     H252833   0.440   7.842   8.522
17531WAT      O52834   3.236   2.704   0.899
17531WAT     H152835   3.204   2.771   0.966
17531WAT     H252836   3.286   2.631   0.945
17532WAT      O52837   8.612   4.943   9.744
17532WAT     H152838   8.710   4.937   9.726
17532WAT     H252839   8.594   4.919   9.839
17533WAT      O52840   4.926   5.426   2.356
17533WAT     H152841   4.996   5.483   2.314
17533WAT     H252842   4.943   5.330   2.333
17534WAT      O52843   3.932   8.058   6.834
17534WAT     H152844   3.964   7.982   6.777
17534WAT     H252845   4.010   8.103   6.877
17535WAT      O52846   5.762   8.071   5.825
17535WAT     H152847   5.802   8.161   5.844
17535WAT     H252848   5.687   8.053   5.888
17536WAT      O52849   5.952   3.767   9.633
17536WAT     H152850   5.983   3.855   9.668
17536WAT     H252851   5.852   3.768   9.624
17537WAT      O52852   0.773   2.932   1.461
17537WAT     H152853   0.808   2.863   1.525
17537WAT     H252854   0.849   2.990   1.431
17538WAT      O52855   3.009   4.687   3.757
17538WAT     H152856   3.087   4.733   3.716
17538WAT     H252857   3.041   4.605   3.805
17539WAT      O52858   3.197   2.868   4.503
17539WAT     H152859   3.122   2.829   4.556
17539WAT     H252860   3.281   2.866   4.557
17540WAT      O52861   6.428   9.809   7.382
17540WAT     H152862   6.346   9.794   7.327
17540WAT     H252863   6.487   9.728   7.377
17541WAT      O52864   2.578   7.803   1.601
17541WAT     H152865   2.559   7.736   1.529
17541WAT     H252866   2.493   7.827   1.647
17542WAT      O52867   9.858   1.154   4.655
17542WAT     H152868   9.858   1.084   4.726
17542WAT     H252869   9.912   1.123   4.577
17543WAT      O52870   1.975   0.619   4.962
17543WAT     H152871   2.042   0.555   4.925
17543WAT     H252872   1.982   0.620   5.062
17544WAT      O52873   1.562   1.790   0.033
17544WAT     H152874   1.533   1.804  -0.062
17544WAT     H252875   1.657   1.817   0.044
17545WAT      O52876   6.982   8.316   5.431
17545WAT     H152877   6.961   8.324   5.334
17545WAT     H252878   6.977   8.220   5.459
17546WAT      O52879   0.142   3.133   5.395
17546WAT     H152880   0.084   3.051   5.394
17546WAT     H252881   0.131   3.181   5.482
17547WAT      O52882   7.017   7.637   1.101
17547WAT     H152883   6.980   7.545   1.115
17547WAT     H252884   7.056   7.644   1.010
17548WAT      O52885   3.730   1.326   5.927
17548WAT     H152886   3.646   1.305   5.877
17548WAT     H252887   3.707   1.378   6.009
17549WAT      O52888   9.490   8.104   0.182
17549WAT     H152889   9.569   8.125   0.240
17549WAT     H252890   9.409   8.151   0.217
17550WAT      O52891   8.636   9.607   2.607
17550WAT     H152892   8.562   9.620   2.541
17550WAT     H252893   8.628   9.516   2.648
17551WAT      O52894   6.894   6.209   3.801
17551WAT     H152895   6.859   6.195   3.708
17551WAT     H252896   6.990   6.183   3.805
17552WAT      O52897   3.529   2.345   9.593
17552WAT     H152898   3.487   2.433   9.571
17552WAT     H252899   3.568   2.349   9.685
17553WAT      O52900   4.499   9.359   8.305
17553WAT     H152901   4.437   9.298   8.354
17553WAT     H252902   4.555   9.305   8.241
17554WAT      O52903   1.124   1.848   7.960
17554WAT     H152904   1.131   1.907   7.880
17554WAT     H252905   1.149   1.755   7.935
17555WAT      O52906   3.093   8.153   3.097
17555WAT     H152907   3.053   8.192   3.014
17555WAT     H252908   3.081   8.217   3.173
17556WAT      O52909   9.517   7.534   7.187
17556WAT     H152910   9.523   7.573   7.096
17556WAT     H252911   9.589   7.465   7.199
17557WAT      O52912   8.803   5.630   2.870
17557WAT     H152913   8.767   5.570   2.942
17557WAT     H252914   8.800   5.583   2.782
17558WAT      O52915   4.686   2.874   0.052
17558WAT     H152916   4.659   2.783   0.081
17558WAT     H252917   4.762   2.867  -0.013
17559WAT      O52918   2.617   2.193   5.712
17559WAT     H152919   2.614   2.287   5.676
17559WAT     H252920   2.655   2.132   5.642
17560WAT      O52921   5.045   5.783   9.769
17560WAT     H152922   4.984   5.771   9.690
17560WAT     H252923   5.085   5.875   9.766
17561WAT      O52924   5.549   1.702   1.658
17561WAT     H152925   5.456   1.699   1.621
17561WAT     H252926   5.596   1.783   1.622
17562WAT      O52927   0.138   8.486   5.076
17562WAT     H152928   0.078   8.508   4.999
17562WAT     H252929   0.185   8.569   5.107
17563WAT      O52930   5.715   7.407   4.374
17563WAT     H152931   5.650   7.378   4.303
17563WAT     H252932   5.666   7.422   4.460
17564WAT      O52933   2.111   5.528   2.559
17564WAT     H152934   2.180   5.543   2.489
17564WAT     H252935   2.059   5.445   2.537
17565WAT      O52936   1.220   9.473   0.312
17565WAT     H152937   1.271   9.391   0.339
17565WAT     H252938   1.285   9.543   0.282
17566WAT      O52939   2.336   8.434   9.269
17566WAT     H152940   2.355   8.347   9.223
17566WAT     H252941   2.317   8.417   9.365
17567WAT      O52942   4.275   7.917   8.574
17567WAT     H152943   4.262   7.994   8.510
17567WAT     H252944   4.297   7.834   8.522
17568WAT      O52945   4.994   7.352   5.243
17568WAT     H152946   5.040   7.355   5.332
17568WAT     H252947   5.062   7.337   5.172
17569WAT      O52948   8.760   1.123   3.351
17569WAT     H152949   8.835   1.125   3.285
17569WAT     H252950   8.726   1.029   3.361
17570WAT      O52951   5.898   2.793   1.134
17570WAT     H152952   5.842   2.818   1.055
17570WAT     H252953   5.876   2.700   1.162
17571WAT      O52954   7.941   2.248   3.742
17571WAT     H152955   7.886   2.324   3.778
17571WAT     H252956   8.037   2.265   3.761
17572WAT      O52957   3.561   3.563   9.578
17572WAT     H152958   3.482   3.552   9.639
17572WAT     H252959   3.588   3.474   9.542
17573WAT      O52960   7.019   0.135   0.487
17573WAT     H152961   7.018   0.232   0.508
17573WAT     H252962   7.104   0.112   0.439
17574WAT      O52963   2.395   4.582   3.605
17574WAT     H152964   2.408   4.490   3.642
17574WAT     H252965   2.381   4.647   3.681
17575WAT      O52966   0.888   7.803   5.281
17575WAT     H152967   0.919   7.709   5.267
17575WAT     H252968   0.955   7.853   5.337
17576WAT      O52969   6.534   0.475   6.262
17576WAT     H152970   6.620   0.436   6.227
17576WAT     H252971   6.481   0.404   6.308
17577WAT      O52972   6.934   7.176   0.507
17577WAT     H152973   6.874   7.097   0.497
17577WAT     H252974   6.879   7.259   0.515
17578WAT      O52975   7.303   2.435   4.536
17578WAT     H152976   7.240   2.434   4.459
17578WAT     H252977   7.392   2.399   4.507
17579WAT      O52978   4.469   1.277   7.668
17579WAT     H152979   4.448   1.255   7.572
17579WAT     H252980   4.432   1.367   7.690
17580WAT      O52981   6.677   8.555   7.831
17580WAT     H152982   6.655   8.459   7.817
17580WAT     H252983   6.601   8.600   7.879
17581WAT      O52984   6.353   9.043   9.787
17581WAT     H152985   6.375   9.065   9.882
17581WAT     H252986   6.276   9.100   9.757
17582WAT      O52987   4.805   4.248   0.792
17582WAT     H152988   4.894   4.260   0.749
17582WAT     H252989   4.790   4.150   0.811
17583WAT      O52990   4.733   4.349   1.243
17583WAT     H152991   4.650   4.360   1.298
17583WAT     H252992   4.807   4.312   1.300
17584WAT      O52993   6.002   1.911   1.316
17584WAT     H152994   5.968   1.977   1.383
17584WAT     H252995   5.931   1.896   1.246
17585WAT      O52996   7.530   5.783   8.443
17585WAT     H152997   7.490   5.763   8.532
17585WAT     H252998   7.480   5.732   8.372
17586WAT      O52999   8.550   8.004   3.357
17586WAT     H153000   8.584   7.917   3.324
17586WAT     H253001   8.504   8.053   3.283
17587WAT      O53002   8.511   6.425   1.769
17587WAT     H153003   8.520   6.341   1.822
17587WAT     H253004   8.586   6.487   1.793
17588WAT      O53005   3.115   3.792   9.479
17588WAT     H153006   3.119   3.704   9.526
17588WAT     H253007   3.122   3.776   9.380
17589WAT      O53008   6.366   8.301   0.085
17589WAT     H153009   6.398   8.352   0.005
17589WAT     H253010   6.280   8.256   0.064
17590WAT      O53011   7.509   7.037   8.766
17590WAT     H153012   7.471   6.956   8.722
17590WAT     H253013   7.458   7.057   8.849
17591WAT      O53014   6.255   9.443   5.202
17591WAT     H153015   6.352   9.420   5.205
17591WAT     H253016   6.221   9.458   5.295
17592WAT      O53017   9.373   9.092   1.697
17592WAT     H153018   9.464   9.073   1.734
17592WAT     H253019   9.325   9.005   1.681
17593WAT      O53020   9.478   4.086   9.855
17593WAT     H153021   9.534   4.014   9.815
17593WAT     H253022   9.398   4.102   9.796
17594WAT      O53023   4.330   7.291   3.488
17594WAT     H153024   4.347   7.275   3.391
17594WAT     H253025   4.378   7.222   3.542
17595WAT      O53026   2.341   9.814   6.551
17595WAT     H153027   2.387   9.739   6.504
17595WAT     H253028   2.249   9.826   6.512
17596WAT      O53029   3.176   7.344   7.771
17596WAT     H153030   3.131   7.324   7.859
17596WAT     H253031   3.218   7.434   7.775
17597WAT      O53032   6.737   4.914   5.425
17597WAT     H153033   6.699   4.891   5.514
17597WAT     H253034   6.733   5.013   5.411
17598WAT      O53035   9.285   9.527   2.080
17598WAT     H153036   9.337   9.451   2.121
17598WAT     H253037   9.196   9.493   2.049
17599WAT      O53038   2.562   6.773   0.125
17599WAT     H153039   2.564   6.686   0.175
17599WAT     H253040   2.595   6.846   0.185
17600WAT      O53041   6.475   7.304   1.645
17600WAT     H153042   6.560   7.259   1.671
17600WAT     H253043   6.493   7.399   1.621
17601WAT      O53044   6.570   8.065   8.196
17601WAT     H153045   6.512   8.063   8.278
17601WAT     H253046   6.574   8.158   8.160
17602WAT      O53047   7.715   0.232   9.175
17602WAT     H153048   7.663   0.278   9.103
17602WAT     H253049   7.708   0.133   9.162
17603WAT      O53050   2.728   0.264   3.741
17603WAT     H153051   2.671   0.312   3.807
17603WAT     H253052   2.684   0.265   3.651
17604WAT      O53053   0.358   0.757   2.343
17604WAT     H153054   0.292   0.692   2.381
17604WAT     H253055   0.333   0.850   2.371
17605WAT      O53056   1.815   2.446   9.479
17605WAT     H153057   1.788   2.373   9.543
17605WAT     H253058   1.908   2.427   9.446
17606WAT      O53059   4.591   3.730   1.925
17606WAT     H153060   4.634   3.771   1.844
17606WAT     H253061   4.532   3.797   1.968
17607WAT      O53062   9.652   6.390   2.375
17607WAT     H153063   9.687   6.366   2.466
17607WAT     H253064   9.552   6.391   2.376
17608WAT      O53065   4.390   8.869   4.545
17608WAT     H153066   4.488   8.873   4.525
17608WAT     H253067   4.373   8.794   4.609
17609WAT      O53068   4.101   7.182   8.368
17609WAT     H153069   4.154   7.116   8.421
17609WAT     H253070   4.118   7.169   8.271
17610WAT      O53071   7.788   1.297   0.727
17610WAT     H153072   7.762   1.232   0.800
17610WAT     H253073   7.851   1.365   0.765
17611WAT      O53074   1.159   9.796   9.685
17611WAT     H153075   1.218   9.868   9.722
17611WAT     H253076   1.209   9.745   9.614
17612WAT      O53077   8.464   7.743   1.469
17612WAT     H153078   8.405   7.699   1.537
17612WAT     H253079   8.408   7.790   1.401
17613WAT      O53080   3.664   3.372   3.556
17613WAT     H153081   3.585   3.396   3.612
17613WAT     H253082   3.726   3.314   3.609
17614WAT      O53083   1.953   0.229   4.683
17614WAT     H153084   2.015   0.216   4.605
17614WAT     H253085   2.007   0.251   4.764
17615WAT      O53086   1.585   2.790   9.030
17615WAT     H153087   1.660   2.795   8.964
17615WAT     H253088   1.503   2.756   8.986
17616WAT      O53089   1.736   8.529   2.474
17616WAT     H153090   1.786   8.515   2.388
17616WAT     H253091   1.638   8.530   2.455
17617WAT      O53092   1.609   4.289   2.244
17617WAT     H153093   1.551   4.327   2.171
17617WAT     H253094   1.594   4.190   2.249
17618WAT      O53095   7.309   3.215   5.692
17618WAT     H153096   7.397   3.262   5.703
17618WAT     H253097   7.325   3.124   5.653
17619WAT      O53098   7.818   0.913   2.021
17619WAT     H153099   7.760   0.836   1.996
17619WAT     H253100   7.904   0.879   2.060
17620WAT      O53101   4.501   8.204   4.312
17620WAT     H153102   4.460   8.198   4.221
17620WAT     H253103   4.600   8.214   4.303
17621WAT      O53104   1.880   3.388   2.124
17621WAT     H153105   1.927   3.387   2.035
17621WAT     H253106   1.946   3.409   2.196
17622WAT      O53107   8.822   1.068   2.253
17622WAT     H153108   8.890   0.996   2.267
17622WAT     H253109   8.815   1.125   2.335
17623WAT      O53110   2.245   1.428   0.677
17623WAT     H153111   2.268   1.486   0.756
17623WAT     H253112   2.303   1.346   0.678
17624WAT      O53113   8.946   1.340   0.635
17624WAT     H153114   8.908   1.399   0.706
17624WAT     H253115   8.890   1.257   0.626
17625WAT      O53116   1.962   4.611   9.285
17625WAT     H153117   2.034   4.678   9.305
17625WAT     H253118   1.886   4.656   9.238
17626WAT      O53119   7.197   7.828   8.549
17626WAT     H153120   7.145   7.764   8.493
17626WAT     H253121   7.295   7.809   8.538
17627WAT      O53122   3.440   8.137   2.811
17627WAT     H153123   3.535   8.165   2.805
17627WAT     H253124   3.435   8.041   2.840
17628WAT      O53125   1.651   6.512   0.191
17628WAT     H153126   1.743   6.530   0.157
17628WAT     H253127   1.593   6.483   0.115
17629WAT      O53128   9.842   2.636   8.164
17629WAT     H153129   9.909   2.694   8.120
17629WAT     H253130   9.759   2.689   8.184
17630WAT      O53131   9.057   8.912   7.177
17630WAT     H153132   9.020   8.916   7.270
17630WAT     H253133   8.983   8.920   7.111
17631WAT      O53134   5.112   3.009   6.273
17631WAT     H153135   5.183   2.981   6.208
17631WAT     H253136   5.122   3.106   6.294
17632WAT      O53137   6.291   3.632   1.267
17632WAT     H153138   6.373   3.577   1.252
17632WAT     H253139   6.245   3.600   1.351
17633WAT      O53140   8.430   1.286   5.871
17633WAT     H153141   8.462   1.319   5.960
17633WAT     H253142   8.507   1.249   5.819
17634WAT      O53143   4.073   6.527   8.232
17634WAT     H153144   4.051   6.622   8.254
17634WAT     H253145   4.098   6.521   8.135
17635WAT      O53146   6.588   1.237   2.509
17635WAT     H153147   6.619   1.161   2.566
17635WAT     H253148   6.514   1.286   2.555
17636WAT      O53149   6.146   7.156   0.569
17636WAT     H153150   6.220   7.184   0.508
17636WAT     H253151   6.146   7.214   0.650
17637WAT      O53152   0.474   3.378   3.443
17637WAT     H153153   0.413   3.405   3.517
17637WAT     H253154   0.425   3.384   3.356
17638WAT      O53155   6.925   7.863   9.702
17638WAT     H153156   6.920   7.783   9.642
17638WAT     H253157   7.006   7.918   9.677
17639WAT      O53158   1.399   1.167   8.854
17639WAT     H153159   1.459   1.245   8.869
17639WAT     H253160   1.330   1.164   8.926
17640WAT      O53161   5.669   2.277   4.612
17640WAT     H153162   5.665   2.335   4.694
17640WAT     H253163   5.731   2.318   4.545
17641WAT      O53164   9.180   9.090   8.583
17641WAT     H153165   9.194   9.180   8.541
17641WAT     H253166   9.209   9.093   8.679
17642WAT      O53167   8.927   0.508   5.188
17642WAT     H153168   8.949   0.412   5.174
17642WAT     H253169   8.975   0.542   5.269
17643WAT      O53170   7.752   6.226   0.930
17643WAT     H153171   7.717   6.319   0.940
17643WAT     H253172   7.693   6.173   0.869
17644WAT      O53173   5.552   4.226   8.328
17644WAT     H153174   5.524   4.133   8.353
17644WAT     H253175   5.571   4.278   8.411
17645WAT      O53176   8.034   4.999   0.033
17645WAT     H153177   8.123   4.967   0.000
17645WAT     H253178   7.971   5.008  -0.044
17646WAT      O53179   8.385   7.465   3.059
17646WAT     H153180   8.297   7.510   3.046
17646WAT     H253181   8.392   7.387   2.996
17647WAT      O53182   1.120   6.226   3.759
17647WAT     H153183   1.196   6.269   3.710
17647WAT     H253184   1.071   6.295   3.811
17648WAT      O53185   6.447   4.327   7.037
17648WAT     H153186   6.488   4.408   7.079
17648WAT     H253187   6.460   4.330   6.938
17649WAT      O53188   8.409   7.388   8.345
17649WAT     H153189   8.463   7.318   8.298
17649WAT     H253190   8.451   7.477   8.329
17650WAT      O53191   7.781   2.464   0.942
17650WAT     H153192   7.848   2.495   0.875
17650WAT     H253193   7.806   2.498   1.033
17651WAT      O53194   9.396   3.991   3.593
17651WAT     H153195   9.343   4.072   3.566
17651WAT     H253196   9.371   3.965   3.686
17652WAT      O53197   6.270   7.277   6.070
17652WAT     H153198   6.294   7.224   6.151
17652WAT     H253199   6.221   7.219   6.005
17653WAT      O53200   8.641   3.312   1.144
17653WAT     H153201   8.721   3.364   1.112
17653WAT     H253202   8.671   3.223   1.177
17654WAT      O53203   5.725   5.319   0.675
17654WAT     H153204   5.644   5.322   0.735
17654WAT     H253205   5.695   5.310   0.580
17655WAT      O53206   5.343   5.295   6.971
17655WAT     H153207   5.363   5.289   6.873
17655WAT     H253208   5.399   5.368   7.011
17656WAT      O53209   6.909   1.259   4.375
17656WAT     H153210   6.994   1.206   4.373
17656WAT     H253211   6.911   1.327   4.303
17657WAT      O53212   9.611   8.525   2.392
17657WAT     H153213   9.647   8.451   2.448
17657WAT     H253214   9.638   8.510   2.296
17658WAT      O53215   6.514   8.330   7.750
17658WAT     H153216   6.438   8.384   7.713
17658WAT     H253217   6.563   8.286   7.674
17659WAT      O53218   2.392   3.044   8.990
17659WAT     H153219   2.357   3.091   9.071
17659WAT     H253220   2.316   3.014   8.933
17660WAT      O53221   2.408   9.599   4.568
17660WAT     H153222   2.385   9.542   4.647
17660WAT     H253223   2.437   9.689   4.598
17661WAT      O53224   3.405   9.682   4.487
17661WAT     H153225   3.419   9.607   4.551
17661WAT     H253226   3.357   9.649   4.406
17662WAT      O53227   0.203   1.109   5.921
17662WAT     H153228   0.122   1.142   5.873
17662WAT     H253229   0.185   1.018   5.959
17663WAT      O53230   8.440   7.098   4.859
17663WAT     H153231   8.473   7.015   4.814
17663WAT     H253232   8.438   7.083   4.958
17664WAT      O53233   5.588   9.724   8.914
17664WAT     H153234   5.541   9.809   8.938
17664WAT     H253235   5.581   9.660   8.990
17665WAT      O53236   3.277   1.429   1.310
17665WAT     H153237   3.195   1.448   1.255
17665WAT     H253238   3.262   1.347   1.364
17666WAT      O53239   2.651   4.114   4.801
17666WAT     H153240   2.658   4.160   4.712
17666WAT     H253241   2.743   4.094   4.835
17667WAT      O53242   4.869   5.820   9.583
17667WAT     H153243   4.831   5.746   9.528
17667WAT     H253244   4.917   5.885   9.524
17668WAT      O53245   2.334   0.636   9.219
17668WAT     H153246   2.300   0.727   9.195
17668WAT     H253247   2.310   0.571   9.147
17669WAT      O53248   4.087   7.723   8.308
17669WAT     H153249   4.126   7.634   8.333
17669WAT     H253250   3.992   7.727   8.337
17670WAT      O53251   0.605   6.653   3.208
17670WAT     H153252   0.647   6.694   3.289
17670WAT     H253253   0.672   6.647   3.135
17671WAT      O53254   4.879   6.970   7.628
17671WAT     H153255   4.978   6.960   7.629
17671WAT     H253256   4.851   7.034   7.699
17672WAT      O53257   3.090   8.224   7.383
17672WAT     H153258   3.083   8.319   7.414
17672WAT     H253259   3.040   8.213   7.297
17673WAT      O53260   7.338   7.551   6.943
17673WAT     H153261   7.307   7.561   7.037
17673WAT     H253262   7.261   7.567   6.881
17674WAT      O53263   0.202   0.471   9.322
17674WAT     H153264   0.206   0.475   9.421
17674WAT     H253265   0.192   0.376   9.293
17675WAT      O53266   7.682   8.184   7.256
17675WAT     H153267   7.719   8.092   7.249
17675WAT     H253268   7.636   8.208   7.170
17676WAT      O53269   7.497   7.136   2.146
17676WAT     H153270   7.441   7.132   2.064
17676WAT     H253271   7.467   7.212   2.204
17677WAT      O53272   6.693   5.896   7.557
17677WAT     H153273   6.750   5.819   7.528
17677WAT     H253274   6.698   5.969   7.488
17678WAT      O53275   0.688   7.072   1.114
17678WAT     H153276   0.619   7.123   1.166
17678WAT     H253277   0.742   7.135   1.059
17679WAT      O53278   6.003   4.057   0.809
17679WAT     H153279   6.099   4.041   0.830
17679WAT     H253280   5.949   4.048   0.892
17680WAT      O53281   9.621   3.387   2.919
17680WAT     H153282   9.658   3.472   2.957
17680WAT     H253283   9.629   3.314   2.987
17681WAT      O53284   9.819   7.492   9.671
17681WAT     H153285   9.817   7.413   9.732
17681WAT     H253286   9.852   7.572   9.721
17682WAT      O53287   3.087   3.747   0.647
17682WAT     H153288   3.061   3.752   0.551
17682WAT     H253289   3.135   3.660   0.663
17683WAT      O53290   9.398   5.402   5.021
17683WAT     H153291   9.463   5.444   5.085
17683WAT     H253292   9.436   5.406   4.928
17684WAT      O53293   3.811   8.053   4.729
17684WAT     H153294   3.734   8.115   4.718
17684WAT     H253295   3.891   8.105   4.759
17685WAT      O53296   1.927   5.992   5.971
17685WAT     H153297   1.919   5.994   5.871
17685WAT     H253298   2.007   6.044   5.999
17686WAT      O53299   2.502   2.353   0.165
17686WAT     H153300   2.491   2.283   0.094
17686WAT     H253301   2.552   2.431   0.126
17687WAT      O53302   0.494   5.456   9.174
17687WAT     H153303   0.550   5.391   9.124
17687WAT     H253304   0.453   5.410   9.254
17688WAT      O53305   7.004   2.363   0.001
17688WAT     H153306   6.916   2.408   0.012
17688WAT     H253307   7.013   2.290   0.068
17689WAT      O53308   2.381   9.552   5.833
17689WAT     H153309   2.422   9.471   5.875
17689WAT     H253310   2.303   9.583   5.888
17690WAT      O53311   1.475   4.826   6.490
17690WAT     H153312   1.388   4.831   6.539
17690WAT     H253313   1.461   4.787   6.400
17691WAT      O53314   0.693   2.376   5.897
17691WAT     H153315   0.638   2.311   5.948
17691WAT     H253316   0.769   2.408   5.953
17692WAT      O53317   1.910   2.194   1.492
17692WAT     H153318   1.975   2.130   1.450
17692WAT     H253319   1.933   2.206   1.589
17693WAT      O53320   0.497   2.335   6.570
17693WAT     H153321   0.583   2.285   6.573
17693WAT     H253322   0.499   2.411   6.635
17694WAT      O53323   9.172   8.769   1.949
17694WAT     H153324   9.166   8.795   1.853
17694WAT     H253325   9.204   8.848   2.002
17695WAT      O53326   5.574   7.680   3.712
17695WAT     H153327   5.498   7.736   3.680
17695WAT     H253328   5.582   7.598   3.655
17696WAT      O53329   4.825   9.160   4.420
17696WAT     H153330   4.806   9.258   4.434
17696WAT     H253331   4.914   9.150   4.377
17697WAT      O53332   0.774   9.639   6.040
17697WAT     H153333   0.781   9.702   5.962
17697WAT     H253334   0.761   9.692   6.124
17698WAT      O53335   7.996   2.717   6.103
17698WAT     H153336   8.046   2.741   6.019
17698WAT     H253337   7.967   2.800   6.149
17699WAT      O53338   4.367   4.183   9.214
17699WAT     H153339   4.391   4.265   9.266
17699WAT     H253340   4.448   4.150   9.166
17700WAT      O53341   1.687   0.002   6.767
17700WAT     H153342   1.645   0.093   6.767
17700WAT     H253343   1.775   0.006   6.720
17701WAT      O53344   0.386   7.356   1.479
17701WAT     H153345   0.450   7.316   1.544
17701WAT     H253346   0.398   7.455   1.477
17702WAT      O53347   3.458   2.272   8.337
17702WAT     H153348   3.413   2.271   8.426
17702WAT     H253349   3.410   2.210   8.275
17703WAT      O53350   5.708   9.650   4.787
17703WAT     H153351   5.733   9.590   4.863
17703WAT     H253352   5.690   9.742   4.822
17704WAT      O53353   1.157   6.031   3.941
17704WAT     H153354   1.135   6.111   3.886
17704WAT     H253355   1.248   6.040   3.981
17705WAT      O53356   4.124   7.572   8.921
17705WAT     H153357   4.098   7.560   8.825
17705WAT     H253358   4.188   7.500   8.948
17706WAT      O53359   7.859   8.558   1.227
17706WAT     H153360   7.815   8.502   1.297
17706WAT     H253361   7.885   8.499   1.150
17707WAT      O53362   2.353   0.040   8.823
17707WAT     H153363   2.423   0.107   8.797
17707WAT     H253364   2.263   0.083   8.818
17708WAT      O53365   9.342   8.878   6.564
17708WAT     H153366   9.290   8.858   6.481
17708WAT     H253367   9.410   8.805   6.578
17709WAT      O53368   3.832   7.531   9.048
17709WAT     H153369   3.927   7.536   9.017
17709WAT     H253370   3.828   7.480   9.134
17710WAT      O53371   1.743   6.904   2.561
17710WAT     H153372   1.799   6.967   2.614
17710WAT     H253373   1.792   6.878   2.478
17711WAT      O53374   2.829   5.533   9.479
17711WAT     H153375   2.871   5.473   9.546
17711WAT     H253376   2.740   5.564   9.512
17712WAT      O53377   4.668   8.414   7.516
17712WAT     H153378   4.596   8.427   7.449
17712WAT     H253379   4.636   8.354   7.590
17713WAT      O53380   0.343   9.797   4.602
17713WAT     H153381   0.417   9.821   4.540
17713WAT     H253382   0.367   9.715   4.654
17714WAT      O53383   5.468   3.421   1.955
17714WAT     H153384   5.391   3.358   1.949
17714WAT     H253385   5.437   3.509   1.989
17715WAT      O53386   9.004   7.654   0.035
17715WAT     H153387   9.074   7.639  -0.035
17715WAT     H253388   8.913   7.641  -0.006
17716WAT      O53389   0.293   8.692   5.129
17716WAT     H153390   0.277   8.751   5.208
17716WAT     H253391   0.313   8.747   5.048
17717WAT      O53392   7.316   3.730   4.545
17717WAT     H153393   7.260   3.665   4.597
17717WAT     H253394   7.411   3.721   4.572
17718WAT      O53395   9.216   6.748   6.785
17718WAT     H153396   9.124   6.782   6.765
17718WAT     H253397   9.223   6.726   6.882
17719WAT      O53398   6.969   8.551   6.748
17719WAT     H153399   7.035   8.583   6.680
17719WAT     H253400   6.995   8.583   6.839
17720WAT      O53401   5.985   0.776   5.934
17720WAT     H153402   5.966   0.712   5.860
17720WAT     H253403   5.912   0.844   5.939
17721WAT      O53404   0.150   2.147   7.688
17721WAT     H153405   0.170   2.208   7.765
17721WAT     H253406   0.202   2.176   7.608
17722WAT      O53407   1.899   4.037   2.532
17722WAT     H153408   1.952   4.115   2.497
17722WAT     H253409   1.884   3.971   2.458
17723WAT      O53410   4.812   5.977   0.583
17723WAT     H153411   4.766   5.899   0.543
17723WAT     H253412   4.746   6.035   0.630
17724WAT      O53413   7.028   8.097   9.038
17724WAT     H153414   6.955   8.137   9.094
17724WAT     H253415   6.988   8.046   8.962
17725WAT      O53416   1.121   3.517   1.465
17725WAT     H153417   1.146   3.526   1.369
17725WAT     H253418   1.136   3.422   1.494
17726WAT      O53419   6.862   5.458   4.334
17726WAT     H153420   6.858   5.521   4.257
17726WAT     H253421   6.825   5.502   4.415
17727WAT      O53422   2.493   3.606   6.121
17727WAT     H153423   2.426   3.579   6.189
17727WAT     H253424   2.577   3.552   6.133
17728WAT      O53425   5.807   5.947   7.285
17728WAT     H153426   5.716   5.933   7.324
17728WAT     H253427   5.868   5.986   7.355
17729WAT      O53428   7.182   1.729   3.318
17729WAT     H153429   7.272   1.755   3.353
17729WAT     H253430   7.139   1.807   3.272
17730WAT      O53431   1.853   0.465   7.211
17730WAT     H153432   1.794   0.403   7.158
17730WAT     H253433   1.839   0.559   7.179
17731WAT      O53434   0.786   8.045   5.994
17731WAT     H153435   0.819   7.966   5.942
17731WAT     H253436   0.813   8.129   5.948
17732WAT      O53437   6.902   3.856   2.653
17732WAT     H153438   6.857   3.812   2.730
17732WAT     H253439   6.848   3.934   2.622
17733WAT      O53440   7.494   1.319   4.723
17733WAT     H153441   7.451   1.321   4.632
17733WAT     H253442   7.456   1.244   4.777
17734WAT      O53443   2.362   0.390   5.596
17734WAT     H153444   2.286   0.375   5.533
17734WAT     H253445   2.440   0.332   5.569
17735WAT      O53446   1.583   0.293   3.911
17735WAT     H153447   1.615   0.322   3.820
17735WAT     H253448   1.604   0.196   3.924
17736WAT      O53449   8.266   4.079   2.080
17736WAT     H153450   8.212   4.162   2.086
17736WAT     H253451   8.317   4.066   2.166
17737WAT      O53452   1.101   4.424   6.029
17737WAT     H153453   1.092   4.488   5.952
17737WAT     H253454   1.135   4.336   5.996
17738WAT      O53455   4.975   3.703   2.552
17738WAT     H153456   4.974   3.626   2.617
17738WAT     H253457   4.902   3.767   2.575
17739WAT      O53458   7.053   7.567   0.008
17739WAT     H153459   7.028   7.515  -0.073
17739WAT     H253460   7.093   7.505   0.076
17740WAT      O53461   3.438   2.345   7.616
17740WAT     H153462   3.481   2.298   7.540
17740WAT     H253463   3.382   2.420   7.582
17741WAT      O53464   1.393   0.295   3.470
17741WAT     H153465   1.404   0.226   3.398
17741WAT     H253466   1.384   0.385   3.428
17742WAT      O53467   2.676   4.960   5.980
17742WAT     H153468   2.633   5.019   5.912
17742WAT     H253469   2.774   4.978   5.983
17743WAT      O53470   7.874   8.193   6.189
17743WAT     H153471   7.893   8.285   6.225
17743WAT     H253472   7.799   8.197   6.124
17744WAT      O53473   6.192   5.840   3.939
17744WAT     H153474   6.241   5.881   3.862
17744WAT     H253475   6.211   5.742   3.942
17745WAT      O53476   9.843   7.531   2.990
17745WAT     H153477   9.932   7.510   3.029
17745WAT     H253478   9.771   7.488   3.045
17746WAT      O53479   8.964   4.416   3.356
17746WAT     H153480   8.933   4.489   3.417
17746WAT     H253481   9.021   4.352   3.407
17747WAT      O53482   7.226   9.006   1.453
17747WAT     H153483   7.295   9.048   1.511
17747WAT     H253484   7.246   8.908   1.444
17748WAT      O53485   0.723   3.933   9.453
17748WAT     H153486   0.632   3.973   9.461
17748WAT     H253487   0.743   3.915   9.356
17749WAT      O53488   2.026   2.134   2.575
17749WAT     H153489   1.992   2.063   2.637
17749WAT     H253490   1.952   2.165   2.516
17750WAT      O53491   8.887   0.131   4.182
17750WAT     H153492   8.894   0.130   4.082
17750WAT     H253493   8.906   0.040   4.218
17751WAT      O53494   8.274   3.225   5.469
17751WAT     H153495   8.317   3.303   5.515
17751WAT     H253496   8.176   3.241   5.462
17752WAT      O53497   2.946   5.005   0.594
17752WAT     H153498   3.019   4.946   0.559
17752WAT     H253499   2.957   5.097   0.557
17753WAT      O53500   9.498   6.803   9.223
17753WAT     H153501   9.571   6.739   9.200
17753WAT     H253502   9.424   6.754   9.269
17754WAT      O53503   1.573   2.416   6.629
17754WAT     H153504   1.474   2.405   6.629
17754WAT     H253505   1.610   2.388   6.540
17755WAT      O53506   9.610   7.942   1.418
17755WAT     H153507   9.550   7.946   1.338
17755WAT     H253508   9.682   7.876   1.403
17756WAT      O53509   1.078   2.184   4.025
17756WAT     H153510   1.142   2.137   4.085
17756WAT     H253511   1.011   2.233   4.080
17757WAT      O53512   2.420   8.251   4.916
17757WAT     H153513   2.434   8.349   4.909
17757WAT     H253514   2.436   8.222   5.011
17758WAT      O53515   7.988   4.536   0.503
17758WAT     H153516   8.088   4.545   0.499
17758WAT     H253517   7.946   4.600   0.439
17759WAT      O53518   3.997   3.861   8.859
17759WAT     H153519   4.056   3.884   8.936
17759WAT     H253520   4.011   3.765   8.835
17760WAT      O53521   3.820   1.210   8.505
17760WAT     H153522   3.840   1.240   8.412
17760WAT     H253523   3.760   1.276   8.550
17761WAT      O53524   4.157   9.000   9.863
17761WAT     H153525   4.171   8.921   9.804
17761WAT     H253526   4.093   8.976   9.936
17762WAT      O53527   9.748   8.739   4.986
17762WAT     H153528   9.747   8.822   5.041
17762WAT     H253529   9.808   8.751   4.907
17763WAT      O53530   8.013   6.797   5.887
17763WAT     H153531   8.032   6.793   5.985
17763WAT     H253532   7.987   6.705   5.855
17764WAT      O53533   1.291   0.320   9.488
17764WAT     H153534   1.209   0.262   9.487
17764WAT     H253535   1.291   0.374   9.572
17765WAT      O53536   3.903   1.819   9.118
17765WAT     H153537   3.824   1.778   9.073
17765WAT     H253538   3.983   1.759   9.106
17766WAT      O53539   0.249   5.010   4.186
17766WAT     H153540   0.174   4.944   4.187
17766WAT     H253541   0.336   4.960   4.190
17767WAT      O53542   1.344   9.310   9.081
17767WAT     H153543   1.272   9.349   9.139
17767WAT     H253544   1.329   9.211   9.072
17768WAT      O53545   2.817   4.297   5.574
17768WAT     H153546   2.719   4.291   5.593
17768WAT     H253547   2.868   4.286   5.659
17769WAT      O53548   3.044   1.018   5.090
17769WAT     H153549   2.993   1.001   5.007
17769WAT     H253550   2.983   1.053   5.161
17770WAT      O53551   2.702   2.132   9.852
17770WAT     H153552   2.729   2.118   9.947
17770WAT     H253553   2.619   2.189   9.849
17771WAT      O53554   2.989   7.354   4.167
17771WAT     H153555   2.999   7.447   4.131
17771WAT     H253556   3.023   7.351   4.261
17772WAT      O53557   4.828   5.869   1.452
17772WAT     H153558   4.830   5.947   1.389
17772WAT     H253559   4.741   5.821   1.443
17773WAT      O53560   4.848   5.691   7.116
17773WAT     H153561   4.815   5.624   7.182
17773WAT     H253562   4.886   5.644   7.036
17774WAT      O53563   7.928   7.139   4.672
17774WAT     H153564   7.840   7.141   4.719
17774WAT     H253565   7.990   7.077   4.721
17775WAT      O53566   3.452   3.282   5.311
17775WAT     H153567   3.406   3.359   5.266
17775WAT     H253568   3.546   3.308   5.333
17776WAT      O53569   4.760   4.453   0.983
17776WAT     H153570   4.743   4.404   1.068
17776WAT     H253571   4.778   4.388   0.909
17777WAT      O53572   4.722   1.745   7.643
17777WAT     H153573   4.821   1.754   7.650
17777WAT     H253574   4.680   1.836   7.639
17778WAT      O53575   8.326   2.557   0.148
17778WAT     H153576   8.281   2.510   0.224
17778WAT     H253577   8.351   2.649   0.176
17779WAT      O53578   6.487   7.736   0.802
17779WAT     H153579   6.455   7.815   0.854
17779WAT     H253580   6.467   7.750   0.705
17780WAT      O53581   2.869   7.170   2.481
17780WAT     H153582   2.937   7.187   2.553
17780WAT     H253583   2.843   7.257   2.439
17781WAT      O53584   7.662   0.236   8.525
17781WAT     H153585   7.661   0.161   8.460
17781WAT     H253586   7.653   0.200   8.618
17782WAT      O53587   3.311   8.672   5.783
17782WAT     H153588   3.329   8.732   5.861
17782WAT     H253589   3.398   8.638   5.747
17783WAT      O53590   5.327   8.795   9.457
17783WAT     H153591   5.354   8.740   9.377
17783WAT     H253592   5.397   8.864   9.474
17784WAT      O53593   6.418   3.560   3.766
17784WAT     H153594   6.422   3.650   3.809
17784WAT     H253595   6.491   3.552   3.698
17785WAT      O53596   6.429   1.489   3.768
17785WAT     H153597   6.476   1.401   3.773
17785WAT     H253598   6.493   1.562   3.792
17786WAT      O53599   7.206   0.980   9.730
17786WAT     H153600   7.277   0.990   9.801
17786WAT     H253601   7.154   1.065   9.724
17787WAT      O53602   3.554   3.775   4.746
17787WAT     H153603   3.491   3.805   4.818
17787WAT     H253604   3.544   3.677   4.731
17788WAT      O53605   6.063   7.576   7.318
17788WAT     H153606   6.141   7.574   7.256
17788WAT     H253607   6.046   7.485   7.354
17789WAT      O53608   3.575   8.197   8.077
17789WAT     H153609   3.538   8.268   8.016
17789WAT     H253610   3.526   8.200   8.164
17790WAT      O53611   7.860   4.566   2.914
17790WAT     H153612   7.849   4.615   2.827
17790WAT     H253613   7.845   4.468   2.899
17791WAT      O53614   8.094   7.963   0.231
17791WAT     H153615   8.148   8.017   0.166
17791WAT     H253616   7.999   7.960   0.201
17792WAT      O53617   0.429   6.353   3.057
17792WAT     H153618   0.458   6.342   2.962
17792WAT     H253619   0.344   6.302   3.072
17793WAT      O53620   3.723   2.616   4.588
17793WAT     H153621   3.693   2.578   4.675
17793WAT     H253622   3.741   2.541   4.524
17794WAT      O53623   2.322   2.925   7.423
17794WAT     H153624   2.408   2.964   7.392
17794WAT     H253625   2.310   2.834   7.383
17795WAT      O53626   2.608   3.639   8.143
17795WAT     H153627   2.707   3.625   8.137
17795WAT     H253628   2.580   3.637   8.239
17796WAT      O53629   5.760   0.175   9.870
17796WAT     H153630   5.806   0.258   9.839
17796WAT     H253631   5.728   0.123   9.792
17797WAT      O53632   2.881   8.690   2.969
17797WAT     H153633   2.842   8.605   2.934
17797WAT     H253634   2.857   8.765   2.907
17798WAT      O53635   5.862   3.757   2.083
17798WAT     H153636   5.889   3.678   2.028
17798WAT     H253637   5.894   3.745   2.177
17799WAT      O53638   6.704   5.896   6.533
17799WAT     H153639   6.692   5.880   6.435
17799WAT     H253640   6.713   5.994   6.550
17800WAT      O53641   7.740   8.885   0.166
17800WAT     H153642   7.652   8.883   0.118
17800WAT     H253643   7.806   8.939   0.115
17801WAT      O53644   6.844   3.239   5.150
17801WAT     H153645   6.905   3.309   5.187
17801WAT     H253646   6.749   3.267   5.166
17802WAT      O53647   3.183   4.534   7.933
17802WAT     H153648   3.157   4.598   8.006
17802WAT     H253649   3.272   4.494   7.954
17803WAT      O53650   5.359   0.849   3.056
17803WAT     H153651   5.260   0.855   3.047
17803WAT     H253652   5.394   0.777   2.996
17804WAT      O53653   3.671   3.974   6.506
17804WAT     H153654   3.770   3.985   6.505
17804WAT     H253655   3.629   4.046   6.562
17805WAT      O53656   0.137   3.993   6.450
17805WAT     H153657   0.120   3.897   6.427
17805WAT     H253658   0.059   4.029   6.502
17806WAT      O53659   8.256   5.153   8.557
17806WAT     H153660   8.344   5.193   8.580
17806WAT     H253661   8.189   5.177   8.627
17807WAT      O53662   9.144   2.365   7.337
17807WAT     H153663   9.195   2.303   7.398
17807WAT     H253664   9.094   2.312   7.270
17808WAT      O53665   4.073   5.379   7.450
17808WAT     H153666   3.978   5.363   7.480
17808WAT     H253667   4.109   5.460   7.495
17809WAT      O53668   4.699   0.244   1.577
17809WAT     H153669   4.657   0.162   1.615
17809WAT     H253670   4.627   0.311   1.557
17810WAT      O53671   6.177   8.857   3.778
17810WAT     H153672   6.079   8.842   3.793
17810WAT     H253673   6.195   8.954   3.764
17811WAT      O53674   5.722   7.095   0.706
17811WAT     H153675   5.625   7.121   0.702
17811WAT     H253676   5.768   7.126   0.623
17812WAT      O53677   3.052   8.614   5.739
17812WAT     H153678   3.147   8.632   5.766
17812WAT     H253679   2.991   8.674   5.791
17813WAT      O53680   8.297   6.025   2.819
17813WAT     H153681   8.330   6.017   2.725
17813WAT     H253682   8.307   5.937   2.865
17814WAT      O53683   0.729   0.940   7.824
17814WAT     H153684   0.700   0.950   7.919
17814WAT     H253685   0.818   0.895   7.821
17815WAT      O53686   5.420   3.851   2.219
17815WAT     H153687   5.402   3.943   2.185
17815WAT     H253688   5.502   3.852   2.276
17816WAT      O53689   6.289   4.452   9.308
17816WAT     H153690   6.227   4.502   9.368
17816WAT     H253691   6.242   4.428   9.223
17817WAT      O53692   6.041   5.601   2.685
17817WAT     H153693   6.082   5.672   2.742
17817WAT     H253694   6.112   5.558   2.629
17818WAT      O53695   0.769   8.142   4.786
17818WAT     H153696   0.801   8.234   4.806
17818WAT     H253697   0.733   8.138   4.693
17819WAT      O53698   3.791   4.559   1.483
17819WAT     H153699   3.741   4.492   1.538
17819WAT     H253700   3.754   4.559   1.390
17820WAT      O53701   7.641   2.119   3.492
17820WAT     H153702   7.707   2.129   3.417
17820WAT     H253703   7.684   2.069   3.568
17821WAT      O53704   5.145   2.387   1.491
17821WAT     H153705   5.053   2.417   1.468
17821WAT     H253706   5.196   2.367   1.407
17822WAT      O53707   3.230   1.248   0.935
17822WAT     H153708   3.275   1.322   0.885
17822WAT     H253709   3.182   1.188   0.871
17823WAT      O53710   1.550   0.125   8.924
17823WAT     H153711   1.596   0.147   9.009
17823WAT     H253712   1.494   0.202   8.894
17824WAT      O53713   3.399   3.799   3.998
17824WAT     H153714   3.469   3.751   3.945
17824WAT     H253715   3.420   3.791   4.096
17825WAT      O53716   5.511   0.974   8.151
17825WAT     H153717   5.484   0.985   8.246
17825WAT     H253718   5.512   1.063   8.106
17826WAT      O53719   8.661   8.982   8.142
17826WAT     H153720   8.676   8.998   8.239
17826WAT     H253721   8.602   9.054   8.105
17827WAT      O53722   9.458   6.937   7.443
17827WAT     H153723   9.482   7.031   7.467
17827WAT     H253724   9.504   6.874   7.505
17828WAT      O53725   2.545   9.318   1.718
17828WAT     H153726   2.617   9.270   1.669
17828WAT     H253727   2.570   9.326   1.815
17829WAT      O53728   8.750   6.439   0.369
17829WAT     H153729   8.736   6.494   0.287
17829WAT     H253730   8.694   6.476   0.443
17830WAT      O53731   2.942   5.046   5.969
17830WAT     H153732   3.009   5.016   5.901
17830WAT     H253733   2.989   5.069   6.054
17831WAT      O53734   8.419   6.584   3.546
17831WAT     H153735   8.380   6.542   3.464
17831WAT     H253736   8.484   6.521   3.588
17832WAT      O53737   3.345   3.110   5.146
17832WAT     H153738   3.382   3.018   5.152
17832WAT     H253739   3.394   3.170   5.210
17833WAT      O53740   4.177   3.912   5.566
17833WAT     H153741   4.127   3.885   5.483
17833WAT     H253742   4.213   4.005   5.553
17834WAT      O53743   4.939   1.567   4.937
17834WAT     H153744   4.971   1.630   5.007
17834WAT     H253745   4.879   1.615   4.873
17835WAT      O53746   1.484   3.042   5.801
17835WAT     H153747   1.573   2.996   5.805
17835WAT     H253748   1.447   3.049   5.894
17836WAT      O53749   5.087   0.316   5.649
17836WAT     H153750   5.050   0.357   5.566
17836WAT     H253751   5.068   0.218   5.649
17837WAT      O53752   6.187   4.920   9.420
17837WAT     H153753   6.112   4.985   9.412
17837WAT     H253754   6.214   4.888   9.329
17838WAT      O53755   6.249   0.924   4.475
17838WAT     H153756   6.235   1.014   4.433
17838WAT     H253757   6.166   0.898   4.525
17839WAT      O53758   8.099   8.133   6.056
17839WAT     H153759   8.018   8.148   6.113
17839WAT     H253760   8.136   8.222   6.028
17840WAT      O53761   4.757   8.925   0.959
17840WAT     H153762   4.763   8.839   1.009
17840WAT     H253763   4.758   9.001   1.024
17841WAT      O53764   5.067   7.994   7.258
17841WAT     H153765   5.095   7.979   7.163
17841WAT     H253766   5.068   8.092   7.278
17842WAT      O53767   0.547   4.172   2.273
17842WAT     H153768   0.629   4.208   2.228
17842WAT     H253769   0.487   4.247   2.298
17843WAT      O53770   8.862   0.155   8.374
17843WAT     H153771   8.948   0.203   8.354
17843WAT     H253772   8.818   0.197   8.453
17844WAT      O53773   1.478   4.718   2.461
17844WAT     H153774   1.456   4.704   2.365
17844WAT     H253775   1.576   4.705   2.476
17845WAT      O53776   3.472   4.884   4.407
17845WAT     H153777   3.375   4.864   4.424
17845WAT     H253778   3.518   4.801   4.375
17846WAT      O53779   9.284   4.089   4.957
17846WAT     H153780   9.292   4.007   4.900
17846WAT     H253781   9.316   4.069   5.049
17847WAT      O53782   6.564   8.189   0.388
17847WAT     H153783   6.545   8.138   0.472
17847WAT     H253784   6.482   8.237   0.358
17848WAT      O53785   1.038   6.864   9.693
17848WAT     H153786   0.996   6.827   9.610
17848WAT     H253787   1.119   6.918   9.669
17849WAT      O53788   5.756   8.916   3.550
17849WAT     H153789   5.686   8.923   3.620
17849WAT     H253790   5.715   8.933   3.460
17850WAT      O53791   2.583   6.640   2.152
17850WAT     H153792   2.510   6.591   2.104
17850WAT     H253793   2.647   6.575   2.192
17851WAT      O53794   7.726   4.649   2.398
17851WAT     H153795   7.741   4.555   2.367
17851WAT     H253796   7.635   4.656   2.439
17852WAT      O53797   0.101   7.086   2.631
17852WAT     H153798   0.074   7.182   2.635
17852WAT     H253799   0.192   7.079   2.590
17853WAT      O53800   5.258   5.327   5.626
17853WAT     H153801   5.176   5.382   5.641
17853WAT     H253802   5.267   5.261   5.700
17854WAT      O53803   3.491   7.229   8.515
17854WAT     H153804   3.405   7.200   8.558
17854WAT     H253805   3.520   7.160   8.449
17855WAT      O53806   0.400   5.272   3.130
17855WAT     H153807   0.402   5.294   3.227
17855WAT     H253808   0.306   5.265   3.098
17856WAT      O53809   8.855   3.356   1.525
17856WAT     H153810   8.857   3.434   1.463
17856WAT     H253811   8.818   3.384   1.614
17857WAT      O53812   6.988   9.753   0.630
17857WAT     H153813   6.977   9.842   0.586
17857WAT     H253814   6.920   9.742   0.702
17858WAT      O53815   0.415   4.024   3.827
17858WAT     H153816   0.506   4.062   3.812
17858WAT     H253817   0.355   4.095   3.866
17859WAT      O53818   1.767   0.076   3.984
17859WAT     H153819   1.780   0.167   4.024
17859WAT     H253820   1.746   0.011   4.057
17860WAT      O53821   5.209   0.011   3.696
17860WAT     H153822   5.236  -0.008   3.791
17860WAT     H253823   5.231  -0.068   3.639
17861WAT      O53824   7.334   8.306   0.404
17861WAT     H153825   7.382   8.328   0.489
17861WAT     H253826   7.240   8.341   0.409
17862WAT      O53827   2.873   8.381   3.126
17862WAT     H153828   2.831   8.414   3.041
17862WAT     H253829   2.843   8.288   3.144
17863WAT      O53830   5.184   9.833   7.611
17863WAT     H153831   5.191   9.894   7.532
17863WAT     H253832   5.238   9.869   7.687
17864WAT      O53833   2.634   5.070   2.071
17864WAT     H153834   2.732   5.062   2.090
17864WAT     H253835   2.592   5.133   2.137
17865WAT      O53836   4.922   9.266   5.751
17865WAT     H153837   4.913   9.188   5.812
17865WAT     H253838   5.013   9.266   5.710
17866WAT      O53839   2.675   6.392   0.678
17866WAT     H153840   2.693   6.426   0.586
17866WAT     H253841   2.583   6.353   0.682
17867WAT      O53842   7.188   5.230   1.967
17867WAT     H153843   7.170   5.226   1.868
17867WAT     H253844   7.228   5.319   1.990
17868WAT      O53845   9.317   8.663   9.047
17868WAT     H153846   9.377   8.696   8.974
17868WAT     H253847   9.241   8.727   9.058
17869WAT      O53848   0.884   2.561   7.036
17869WAT     H153849   0.787   2.556   7.062
17869WAT     H253850   0.920   2.468   7.026
17870WAT      O53851   4.950   8.262   2.172
17870WAT     H153852   4.865   8.222   2.138
17870WAT     H253853   5.002   8.300   2.096
17871WAT      O53854   3.704   8.395   4.180
17871WAT     H153855   3.799   8.393   4.149
17871WAT     H253856   3.650   8.454   4.120
17872WAT      O53857   3.545   4.980   7.854
17872WAT     H153858   3.492   5.005   7.772
17872WAT     H253859   3.483   4.971   7.932
17873WAT      O53860   0.942   4.793   2.980
17873WAT     H153861   0.855   4.779   2.934
17873WAT     H253862   1.008   4.834   2.916
17874WAT      O53863   9.285   1.331   6.574
17874WAT     H153864   9.331   1.357   6.489
17874WAT     H253865   9.237   1.411   6.612
17875WAT      O53866   9.712   8.144   1.931
17875WAT     H153867   9.743   8.049   1.940
17875WAT     H253868   9.790   8.206   1.937
17876WAT      O53869   9.620   3.893   5.124
17876WAT     H153870   9.636   3.834   5.045
17876WAT     H253871   9.663   3.853   5.205
17877WAT      O53872   0.298   2.221   5.849
17877WAT     H153873   0.201   2.200   5.842
17877WAT     H253874   0.350   2.165   5.785
17878WAT      O53875   2.380   7.413   7.683
17878WAT     H153876   2.390   7.362   7.768
17878WAT     H253877   2.328   7.496   7.700
17879WAT      O53878   7.103   6.316   4.241
17879WAT     H153879   7.182   6.345   4.188
17879WAT     H253880   7.117   6.222   4.275
17880WAT      O53881   6.906   3.848   5.711
17880WAT     H153882   6.841   3.846   5.787
17880WAT     H253883   6.998   3.827   5.745
17881WAT      O53884   5.458   8.205   2.680
17881WAT     H153885   5.422   8.297   2.696
17881WAT     H253886   5.403   8.139   2.731
17882WAT      O53887   3.389   4.564   5.273
17882WAT     H153888   3.314   4.601   5.218
17882WAT     H253889   3.356   4.547   5.366
17883WAT      O53890   9.590   3.444   3.708
17883WAT     H153891   9.548   3.358   3.679
17883WAT     H253892   9.518   3.509   3.733
17884WAT      O53893   8.203   3.932   0.438
17884WAT     H153894   8.148   3.992   0.496
17884WAT     H253895   8.229   3.850   0.489
17885WAT      O53896   2.169   5.557   0.200
17885WAT     H153897   2.241   5.502   0.157
17885WAT     H253898   2.210   5.627   0.258
17886WAT      O53899   3.553   3.004   8.974
17886WAT     H153900   3.585   2.911   8.952
17886WAT     H253901   3.573   3.024   9.070
17887WAT      O53902   0.932   5.084   0.173
17887WAT     H153903   0.987   5.165   0.155
17887WAT     H253904   0.868   5.102   0.248
17888WAT      O53905   7.888   6.883   8.760
17888WAT     H153906   7.973   6.912   8.715
17888WAT     H253907   7.858   6.954   8.823
17889WAT      O53908   9.511   1.393   9.784
17889WAT     H153909   9.606   1.360   9.786
17889WAT     H253910   9.485   1.427   9.874
17890WAT      O53911   0.731   8.668   4.085
17890WAT     H153912   0.803   8.677   4.154
17890WAT     H253913   0.764   8.613   4.008
17891WAT      O53914   0.735   7.146   2.440
17891WAT     H153915   0.684   7.119   2.358
17891WAT     H253916   0.816   7.089   2.449
17892WAT      O53917   5.128   4.403   6.370
17892WAT     H153918   5.171   4.489   6.396
17892WAT     H253919   5.102   4.352   6.453
17893WAT      O53920   1.462   5.288   8.807
17893WAT     H153921   1.444   5.364   8.869
17893WAT     H253922   1.534   5.230   8.846
17894WAT      O53923   8.318   2.529   8.433
17894WAT     H153924   8.408   2.565   8.454
17894WAT     H253925   8.283   2.572   8.349
17895WAT      O53926   4.362   9.110   0.417
17895WAT     H153927   4.409   9.178   0.473
17895WAT     H253928   4.428   9.040   0.387
17896WAT      O53929   7.722   2.361   1.571
17896WAT     H153930   7.724   2.324   1.478
17896WAT     H253931   7.674   2.449   1.570
17897WAT      O53932   3.947   0.331   2.674
17897WAT     H153933   3.984   0.302   2.586
17897WAT     H253934   3.930   0.250   2.731
17898WAT      O53935   1.989   4.623   7.035
17898WAT     H153936   1.956   4.636   7.129
17898WAT     H253937   1.978   4.709   6.984
17899WAT      O53938   9.113   3.985   5.633
17899WAT     H153939   9.202   3.966   5.592
17899WAT     H253940   9.107   4.082   5.657
17900WAT      O53941   2.224   5.891   1.587
17900WAT     H153942   2.241   5.975   1.535
17900WAT     H253943   2.151   5.839   1.542
17901WAT      O53944   0.042   8.984   0.091
17901WAT     H153945   0.045   9.029   0.002
17901WAT     H253946   0.134   8.977   0.129
17902WAT      O53947   5.672   7.834   7.479
17902WAT     H153948   5.693   7.737   7.482
17902WAT     H253949   5.704   7.878   7.562
17903WAT      O53950   2.704   7.088   2.226
17903WAT     H153951   2.608   7.111   2.216
17903WAT     H253952   2.755   7.167   2.260
17904WAT      O53953   2.613   7.592   9.793
17904WAT     H153954   2.603   7.651   9.873
17904WAT     H253955   2.536   7.528   9.789
17905WAT      O53956   8.042   6.796   0.750
17905WAT     H153957   8.108   6.864   0.716
17905WAT     H253958   7.975   6.842   0.809
17906WAT      O53959   6.003   2.283   3.914
17906WAT     H153960   5.938   2.207   3.920
17906WAT     H253961   5.971   2.349   3.847
17907WAT      O53962   7.260   0.909   5.299
17907WAT     H153963   7.332   0.839   5.297
17907WAT     H253964   7.184   0.879   5.241
17908WAT      O53965   4.210   7.910   9.765
17908WAT     H153966   4.306   7.886   9.772
17908WAT     H253967   4.170   7.915   9.857
17909WAT      O53968   1.723   0.023   5.967
17909WAT     H153969   1.732   0.072   6.054
17909WAT     H253970   1.695   0.086   5.896
17910WAT      O53971   1.781   7.982   4.418
17910WAT     H153972   1.878   7.969   4.396
17910WAT     H253973   1.763   8.080   4.433
17911WAT      O53974   3.420   4.204   6.211
17911WAT     H153975   3.457   4.189   6.120
17911WAT     H253976   3.430   4.301   6.236
17912WAT      O53977   6.764   4.924   9.617
17912WAT     H153978   6.741   4.923   9.520
17912WAT     H253979   6.859   4.954   9.629
17913WAT      O53980   2.974   9.615   2.948
17913WAT     H153981   3.019   9.701   2.973
17913WAT     H253982   3.037   9.558   2.896
17914WAT      O53983   2.407   4.282   1.157
17914WAT     H153984   2.347   4.203   1.156
17914WAT     H253985   2.369   4.352   1.217
17915WAT      O53986   4.768   8.815   0.700
17915WAT     H153987   4.757   8.839   0.796
17915WAT     H253988   4.824   8.883   0.654
17916WAT      O53989   3.952   0.748   0.432
17916WAT     H153990   3.855   0.738   0.412
17916WAT     H253991   3.964   0.779   0.526
17917WAT      O53992   9.236   0.448   0.421
17917WAT     H153993   9.200   0.441   0.328
17917WAT     H253994   9.204   0.533   0.462
17918WAT      O53995   2.036   4.015   4.064
17918WAT     H153996   1.938   4.006   4.084
17918WAT     H253997   2.072   4.097   4.109
17919WAT      O53998   1.793   8.824   0.451
17919WAT     H153999   1.790   8.924   0.442
17919WAT     H254000   1.705   8.792   0.488
17920WAT      O54001   9.108   4.669   7.993
17920WAT     H154002   9.035   4.718   7.946
17920WAT     H254003   9.192   4.723   7.990
17921WAT      O54004   9.298   7.050   1.891
17921WAT     H154005   9.281   6.961   1.848
17921WAT     H254006   9.309   7.119   1.820
17922WAT      O54007   4.378   9.560   3.533
17922WAT     H154008   4.327   9.632   3.487
17922WAT     H254009   4.472   9.589   3.547
17923WAT      O54010   8.404   8.125   8.701
17923WAT     H154011   8.449   8.036   8.689
17923WAT     H254012   8.337   8.138   8.628
17924WAT      O54013   7.170   7.968   2.556
17924WAT     H154014   7.085   7.939   2.512
17924WAT     H254015   7.227   8.018   2.491
17925WAT      O54016   6.238   0.497   9.837
17925WAT     H154017   6.218   0.470   9.931
17925WAT     H254018   6.249   0.596   9.833
17926WAT      O54019   0.704   3.991   4.751
17926WAT     H154020   0.724   3.980   4.848
17926WAT     H254021   0.653   4.076   4.737
17927WAT      O54022   9.465   8.944   7.142
17927WAT     H154023   9.408   8.909   7.068
17927WAT     H254024   9.407   8.979   7.216
17928WAT      O54025   8.977   0.728   4.774
17928WAT     H154026   8.922   0.659   4.820
17928WAT     H254027   9.074   0.710   4.790
17929WAT      O54028   4.184   8.693   0.619
17929WAT     H154029   4.155   8.634   0.543
17929WAT     H254030   4.186   8.788   0.588
17930WAT      O54031   2.613   4.012   6.651
17930WAT     H154032   2.527   3.975   6.686
17930WAT     H254033   2.670   4.040   6.728
17931WAT      O54034   1.914   2.811   1.034
17931WAT     H154035   1.968   2.770   1.108
17931WAT     H254036   1.870   2.739   0.981
17932WAT      O54037   6.386   2.435   3.676
17932WAT     H154038   6.418   2.431   3.771
17932WAT     H254039   6.440   2.371   3.621
17933WAT      O54040   6.625   5.993   3.287
17933WAT     H154041   6.655   6.039   3.370
17933WAT     H254042   6.544   5.937   3.307
17934WAT      O54043   2.209   7.968   0.619
17934WAT     H154044   2.123   7.917   0.630
17934WAT     H254045   2.285   7.909   0.645
17935WAT      O54046   5.447   3.230   1.178
17935WAT     H154047   5.517   3.226   1.106
17935WAT     H254048   5.491   3.221   1.267
17936WAT      O54049   4.380   6.015   0.148
17936WAT     H154050   4.285   5.999   0.120
17936WAT     H254051   4.399   6.113   0.144
17937WAT      O54052   7.945   6.685   0.524
17937WAT     H154053   8.004   6.727   0.593
17937WAT     H254054   7.999   6.621   0.469
17938WAT      O54055   1.424   0.017   0.952
17938WAT     H154056   1.421   0.117   0.962
17938WAT     H254057   1.339  -0.014   0.910
17939WAT      O54058   1.727   2.163   3.199
17939WAT     H154059   1.740   2.142   3.102
17939WAT     H254060   1.814   2.152   3.247
17940WAT      O54061   0.923   2.457   5.212
17940WAT     H154062   0.907   2.358   5.213
17940WAT     H254063   0.889   2.497   5.297
17941WAT      O54064   4.110   3.983   7.732
17941WAT     H154065   4.058   4.062   7.766
17941WAT     H254066   4.137   3.925   7.809
17942WAT      O54067   9.164   6.346   3.765
17942WAT     H154068   9.151   6.445   3.773
17942WAT     H254069   9.201   6.324   3.675
17943WAT      O54070   7.804   3.776   7.519
17943WAT     H154071   7.720   3.829   7.527
17943WAT     H254072   7.862   3.815   7.448
17944WAT      O54073   7.279   2.342   0.215
17944WAT     H154074   7.269   2.437   0.245
17944WAT     H254075   7.364   2.305   0.251
17945WAT      O54076   4.228   3.092   5.606
17945WAT     H154077   4.159   3.038   5.654
17945WAT     H254078   4.281   3.145   5.671
17946WAT      O54079   1.603   4.143   8.444
17946WAT     H154080   1.552   4.228   8.435
17946WAT     H254081   1.684   4.158   8.501
17947WAT      O54082   4.718   7.220   4.750
17947WAT     H154083   4.739   7.304   4.799
17947WAT     H254084   4.698   7.147   4.816
17948WAT      O54085   1.647   6.134   9.068
17948WAT     H154086   1.690   6.048   9.096
17948WAT     H254087   1.697   6.172   8.990
17949WAT      O54088   9.687   2.041   2.636
17949WAT     H154089   9.692   2.088   2.725
17949WAT     H254090   9.717   2.103   2.564
17950WAT      O54091   9.539   2.460   1.937
17950WAT     H154092   9.449   2.435   1.903
17950WAT     H254093   9.579   2.383   1.987
17951WAT      O54094   5.884   4.107   9.163
17951WAT     H154095   5.915   4.164   9.239
17951WAT     H254096   5.803   4.148   9.121
17952WAT      O54097   9.259   6.654   8.624
17952WAT     H154098   9.286   6.668   8.719
17952WAT     H254099   9.323   6.702   8.564
17953WAT      O54100   5.299   2.740   0.265
17953WAT     H154101   5.218   2.710   0.315
17953WAT     H254102   5.323   2.671   0.196
17954WAT      O54103   8.151   0.674   9.307
17954WAT     H154104   8.174   0.771   9.307
17954WAT     H254105   8.185   0.632   9.391
17955WAT      O54106   3.017   7.558   4.726
17955WAT     H154107   3.013   7.459   4.736
17955WAT     H254108   2.964   7.602   4.798
17956WAT      O54109   2.517   2.749   1.418
17956WAT     H154110   2.465   2.664   1.430
17956WAT     H254111   2.615   2.729   1.422
17957WAT      O54112   1.466   9.226   7.154
17957WAT     H154113   1.439   9.315   7.118
17957WAT     H254114   1.520   9.238   7.237
17958WAT      O54115   4.762   4.666   5.649
17958WAT     H154116   4.797   4.592   5.706
17958WAT     H254117   4.793   4.754   5.685
17959WAT      O54118   3.146   5.956   2.005
17959WAT     H154119   3.056   5.959   1.963
17959WAT     H254120   3.206   5.896   1.950
17960WAT      O54121   7.836   6.596   2.242
17960WAT     H154122   7.767   6.618   2.311
17960WAT     H254123   7.869   6.503   2.256
17961WAT      O54124   9.354   5.563   9.396
17961WAT     H154125   9.408   5.608   9.325
17961WAT     H254126   9.384   5.468   9.406
17962WAT      O54127   7.985   6.867   3.733
17962WAT     H154128   8.016   6.877   3.828
17962WAT     H254129   7.907   6.804   3.730
17963WAT      O54130   6.195   5.730   4.816
17963WAT     H154131   6.123   5.682   4.866
17963WAT     H254132   6.201   5.692   4.723
17964WAT      O54133   3.202   4.271   2.448
17964WAT     H154134   3.297   4.257   2.421
17964WAT     H254135   3.173   4.363   2.424
17965WAT      O54136   3.631   7.623   4.423
17965WAT     H154137   3.719   7.639   4.378
17965WAT     H254138   3.635   7.538   4.474
17966WAT      O54139   5.624   2.237   5.762
17966WAT     H154140   5.575   2.218   5.848
17966WAT     H254141   5.713   2.191   5.764
17967WAT      O54142   6.465   2.690   3.958
17967WAT     H154143   6.455   2.590   3.954
17967WAT     H254144   6.488   2.717   4.052
17968WAT      O54145   0.659   8.999   2.446
17968WAT     H154146   0.657   9.006   2.545
17968WAT     H254147   0.694   9.085   2.407
17969WAT      O54148   0.942   3.117   6.012
17969WAT     H154149   0.901   3.204   5.987
17969WAT     H254150   0.971   3.068   5.929
17970WAT      O54151   2.194   7.694   9.854
17970WAT     H154152   2.145   7.609   9.833
17970WAT     H254153   2.223   7.738   9.768
17971WAT      O54154   3.504   7.189   2.920
17971WAT     H154155   3.539   7.251   2.850
17971WAT     H254156   3.573   7.121   2.942
17972WAT      O54157   4.071   6.911   5.576
17972WAT     H154158   4.102   7.005   5.587
17972WAT     H254159   3.978   6.902   5.613
17973WAT      O54160   3.756   2.805   5.048
17973WAT     H154161   3.733   2.875   5.116
17973WAT     H254162   3.804   2.848   4.971
17974WAT      O54163   9.118   7.891   4.087
17974WAT     H154164   9.171   7.879   4.171
17974WAT     H254165   9.180   7.900   4.009
17975WAT      O54166   2.569   5.142   5.831
17975WAT     H154167   2.619   5.225   5.808
17975WAT     H254168   2.483   5.166   5.877
17976WAT      O54169   4.288   9.220   7.823
17976WAT     H154170   4.199   9.211   7.778
17976WAT     H254171   4.287   9.171   7.911
17977WAT      O54172   4.051   9.559   2.430
17977WAT     H154173   4.059   9.461   2.407
17977WAT     H254174   4.022   9.610   2.349
17978WAT      O54175   2.312   2.670   7.308
17978WAT     H154176   2.408   2.650   7.332
17978WAT     H254177   2.292   2.633   7.218
17979WAT      O54178   6.498   9.437   3.244
17979WAT     H154179   6.499   9.359   3.306
17979WAT     H254180   6.592   9.470   3.230
17980WAT      O54181   7.710   6.767   0.675
17980WAT     H154182   7.763   6.839   0.719
17980WAT     H254183   7.770   6.712   0.617
17981WAT      O54184   2.111   4.841   4.908
17981WAT     H154185   2.207   4.849   4.884
17981WAT     H254186   2.103   4.805   5.002
17982WAT      O54187   5.389   4.073   3.410
17982WAT     H154188   5.369   3.981   3.376
17982WAT     H254189   5.314   4.103   3.469
17983WAT      O54190   2.836   9.082   8.260
17983WAT     H154191   2.865   9.176   8.281
17983WAT     H254192   2.885   9.019   8.321
17984WAT      O54193   6.948   8.690   3.132
17984WAT     H154194   6.939   8.719   3.037
17984WAT     H254195   6.860   8.657   3.166
17985WAT      O54196   2.949   6.112   7.128
17985WAT     H154197   3.007   6.034   7.153
17985WAT     H254198   2.963   6.186   7.195
17986WAT      O54199   3.675   9.454   9.625
17986WAT     H154200   3.748   9.522   9.625
17986WAT     H254201   3.659   9.422   9.718
17987WAT      O54202   9.241   2.145   4.205
17987WAT     H154203   9.253   2.054   4.166
17987WAT     H254204   9.269   2.214   4.138
17988WAT      O54205   6.885   0.902   8.957
17988WAT     H154206   6.890   1.002   8.961
17988WAT     H254207   6.862   0.873   8.865
17989WAT      O54208   5.159   4.377   1.062
17989WAT     H154209   5.124   4.465   1.029
17989WAT     H254210   5.246   4.357   1.017
17990WAT      O54211   5.469   6.402   8.998
17990WAT     H154212   5.542   6.383   8.932
17990WAT     H254213   5.381   6.381   8.956
17991WAT      O54214   5.122   9.107   6.869
17991WAT     H154215   5.199   9.152   6.915
17991WAT     H254216   5.050   9.174   6.851
17992WAT      O54217   5.458   4.457   2.815
17992WAT     H154218   5.435   4.361   2.827
17992WAT     H254219   5.558   4.468   2.817
17993WAT      O54220   8.475   3.627   9.612
17993WAT     H154221   8.508   3.600   9.703
17993WAT     H254222   8.496   3.554   9.547
17994WAT      O54223   7.063   1.838   8.454
17994WAT     H154224   7.024   1.786   8.379
17994WAT     H254225   7.093   1.776   8.526
17995WAT      O54226   0.613   3.121   8.188
17995WAT     H154227   0.619   3.052   8.260
17995WAT     H254228   0.563   3.085   8.110
17996WAT      O54229   5.284   3.921   4.671
17996WAT     H154230   5.199   3.869   4.667
17996WAT     H254231   5.356   3.866   4.714
17997WAT      O54232   1.221   1.542   9.063
17997WAT     H154233   1.221   1.558   8.964
17997WAT     H254234   1.295   1.594   9.105
17998WAT      O54235   4.182   1.225   5.954
17998WAT     H154236   4.216   1.271   5.871
17998WAT     H254237   4.092   1.187   5.936
17999WAT      O54238   3.642   2.653   2.610
17999WAT     H154239   3.674   2.717   2.540
17999WAT     H254240   3.642   2.560   2.573
18000WAT      O54241   9.146   0.965   8.606
18000WAT     H154242   9.146   0.971   8.706
18000WAT     H254243   9.179   1.051   8.567
18001WAT      O54244   5.103   4.338   7.075
18001WAT     H154245   5.044   4.415   7.054
18001WAT     H254246   5.100   4.319   7.173
18002WAT      O54247   0.414   3.108   8.746
18002WAT     H154248   0.497   3.138   8.698
18002WAT     H254249   0.335   3.116   8.684
18003WAT      O54250   2.230   2.059   8.524
18003WAT     H154251   2.300   2.108   8.576
18003WAT     H254252   2.141   2.072   8.568
18004WAT      O54253   9.493   4.604   3.686
18004WAT     H154254   9.526   4.525   3.635
18004WAT     H254255   9.542   4.686   3.655
18005WAT      O54256   3.573   5.970   3.440
18005WAT     H154257   3.668   6.002   3.439
18005WAT     H254258   3.511   6.047   3.454
18006WAT      O54259   1.304   7.617   0.402
18006WAT     H154260   1.210   7.637   0.431
18006WAT     H254261   1.344   7.550   0.465
18007WAT      O54262   6.557   4.908   1.690
18007WAT     H154263   6.532   4.946   1.779
18007WAT     H254264   6.657   4.905   1.682
18008WAT      O54265   7.485   1.681   6.100
18008WAT     H154266   7.570   1.654   6.053
18008WAT     H254267   7.466   1.617   6.174
18009WAT      O54268   8.416   8.270   2.159
18009WAT     H154269   8.411   8.218   2.245
18009WAT     H254270   8.474   8.222   2.094
18010WAT      O54271   9.125   9.176   4.398
18010WAT     H154272   9.041   9.141   4.439
18010WAT     H254273   9.102   9.251   4.335
18011WAT      O54274   4.761   0.455   2.076
18011WAT     H154275   4.852   0.458   2.118
18011WAT     H254276   4.766   0.406   1.989
18012WAT      O54277   5.401   4.316   9.318
18012WAT     H154278   5.353   4.229   9.317
18012WAT     H254279   5.480   4.311   9.379
18013WAT      O54280   2.054   4.426   2.145
18013WAT     H154281   2.152   4.411   2.149
18013WAT     H254282   2.009   4.370   2.214
18014WAT      O54283   3.367   5.556   4.692
18014WAT     H154284   3.387   5.496   4.614
18014WAT     H254285   3.449   5.565   4.749
18015WAT      O54286   2.036   1.676   9.406
18015WAT     H154287   1.949   1.718   9.381
18015WAT     H254288   2.037   1.660   9.505
18016WAT      O54289   9.100   4.358   0.796
18016WAT     H154290   9.059   4.306   0.721
18016WAT     H254291   9.182   4.405   0.764
18017WAT      O54292   4.597   0.813   6.848
18017WAT     H154293   4.642   0.725   6.834
18017WAT     H254294   4.528   0.805   6.919
18018WAT      O54295   3.310   2.974   0.400
18018WAT     H154296   3.400   2.980   0.357
18018WAT     H254297   3.268   2.886   0.378
18019WAT      O54298   1.627   8.540   2.874
18019WAT     H154299   1.710   8.594   2.887
18019WAT     H254300   1.572   8.581   2.801
18020WAT      O54301   9.373   4.395   7.526
18020WAT     H154302   9.303   4.329   7.502
18020WAT     H254303   9.355   4.432   7.617
18021WAT      O54304   0.229   5.001   1.457
18021WAT     H154305   0.270   4.934   1.519
18021WAT     H254306   0.259   4.983   1.364
18022WAT      O54307   2.078   8.264   7.041
18022WAT     H154308   2.055   8.176   7.002
18022WAT     H254309   1.995   8.310   7.074
18023WAT      O54310   1.277   7.255   4.567
18023WAT     H154311   1.374   7.269   4.589
18023WAT     H254312   1.221   7.320   4.618
18024WAT      O54313   1.253   2.769   2.156
18024WAT     H154314   1.226   2.699   2.223
18024WAT     H254315   1.187   2.769   2.080
18025WAT      O54316   9.719   0.563   1.734
18025WAT     H154317   9.794   0.583   1.671
18025WAT     H254318   9.729   0.469   1.769
18026WAT      O54319   7.072   5.823   6.848
18026WAT     H154320   7.063   5.894   6.918
18026WAT     H254321   6.982   5.803   6.809
18027WAT      O54322   5.207   5.153   3.363
18027WAT     H154323   5.231   5.088   3.291
18027WAT     H254324   5.260   5.237   3.351
18028WAT      O54325   3.381   9.657   2.352
18028WAT     H154326   3.319   9.712   2.408
18028WAT     H254327   3.424   9.587   2.410
18029WAT      O54328   9.088   4.463   6.140
18029WAT     H154329   9.160   4.411   6.093
18029WAT     H254330   9.115   4.559   6.144
18030WAT      O54331   6.574   3.350   3.866
18030WAT     H154332   6.549   3.442   3.835
18030WAT     H254333   6.503   3.285   3.838
18031WAT      O54334   7.342   0.534   8.950
18031WAT     H154335   7.309   0.612   8.895
18031WAT     H254336   7.277   0.517   9.024
18032WAT      O54337   8.530   2.996   3.014
18032WAT     H154338   8.600   3.066   3.023
18032WAT     H254339   8.516   2.973   2.918
18033WAT      O54340   6.864   0.790   8.717
18033WAT     H154341   6.957   0.762   8.693
18033WAT     H254342   6.800   0.756   8.648
18034WAT      O54343   1.990   6.644   2.770
18034WAT     H154344   2.037   6.730   2.750
18034WAT     H254345   2.034   6.570   2.718
18035WAT      O54346   4.431   7.708   8.437
18035WAT     H154347   4.471   7.788   8.394
18035WAT     H254348   4.437   7.630   8.375
18036WAT      O54349   5.525   6.781   6.564
18036WAT     H154350   5.493   6.783   6.659
18036WAT     H254351   5.574   6.866   6.544
18037WAT      O54352   5.739   8.015   8.493
18037WAT     H154353   5.779   8.105   8.510
18037WAT     H254354   5.690   7.984   8.575
18038WAT      O54355   3.358   1.264   1.733
18038WAT     H154356   3.366   1.223   1.643
18038WAT     H254357   3.387   1.198   1.803
18039WAT      O54358   6.339   6.885   6.133
18039WAT     H154359   6.318   6.971   6.180
18039WAT     H254360   6.433   6.887   6.099
18040WAT      O54361   9.706   3.830   8.693
18040WAT     H154362   9.718   3.742   8.738
18040WAT     H254363   9.694   3.816   8.595
18041WAT      O54364   6.140   2.291   7.102
18041WAT     H154365   6.109   2.304   7.196
18041WAT     H254366   6.084   2.346   7.041
18042WAT      O54367   3.620   5.363   1.566
18042WAT     H154368   3.619   5.270   1.602
18042WAT     H254369   3.713   5.387   1.537
18043WAT      O54370   6.429   8.183   8.647
18043WAT     H154371   6.480   8.246   8.589
18043WAT     H254372   6.492   8.116   8.687
18044WAT      O54373   4.755   1.690   1.062
18044WAT     H154374   4.824   1.677   1.134
18044WAT     H254375   4.666   1.704   1.105
18045WAT      O54376   9.784   1.026   1.811
18045WAT     H154377   9.813   1.117   1.840
18045WAT     H254378   9.740   1.032   1.722
18046WAT      O54379   4.229   3.906   4.078
18046WAT     H154380   4.230   3.949   3.988
18046WAT     H254381   4.284   3.823   4.076
18047WAT      O54382   1.575   4.487   9.423
18047WAT     H154383   1.516   4.554   9.378
18047WAT     H254384   1.540   4.469   9.515
18048WAT      O54385   3.340   2.278   3.739
18048WAT     H154386   3.293   2.276   3.828
18048WAT     H254387   3.345   2.185   3.702
18049WAT      O54388   9.890   2.802   1.392
18049WAT     H154389   9.846   2.813   1.481
18049WAT     H254390   9.831   2.747   1.332
18050WAT      O54391   6.785   8.325   0.404
18050WAT     H154392   6.711   8.261   0.424
18050WAT     H254393   6.751   8.396   0.343
18051WAT      O54394   7.885   0.123   8.923
18051WAT     H154395   7.889   0.179   9.005
18051WAT     H254396   7.941   0.164   8.851
18052WAT      O54397   0.480   5.119   5.967
18052WAT     H154398   0.564   5.101   5.916
18052WAT     H254399   0.484   5.211   6.006
18053WAT      O54400   4.739   6.210   6.734
18053WAT     H154401   4.748   6.122   6.781
18053WAT     H254402   4.688   6.274   6.792
18054WAT      O54403   5.082   9.249   0.035
18054WAT     H154404   5.181   9.232   0.034
18054WAT     H254405   5.049   9.246   0.130
18055WAT      O54406   1.643   4.215   6.168
18055WAT     H154407   1.552   4.239   6.133
18055WAT     H254408   1.636   4.135   6.227
18056WAT      O54409   8.447   9.114   9.199
18056WAT     H154410   8.350   9.099   9.181
18056WAT     H254411   8.474   9.205   9.169
18057WAT      O54412   8.774   7.253   5.494
18057WAT     H154413   8.805   7.290   5.406
18057WAT     H254414   8.719   7.171   5.478
18058WAT      O54415   7.245   7.603   4.126
18058WAT     H154416   7.324   7.573   4.179
18058WAT     H254417   7.269   7.605   4.029
18059WAT      O54418   5.676   5.074   5.020
18059WAT     H154419   5.655   5.030   5.107
18059WAT     H254420   5.644   5.016   4.945
18060WAT      O54421   6.153   8.305   6.712
18060WAT     H154422   6.178   8.397   6.744
18060WAT     H254423   6.226   8.241   6.733
18061WAT      O54424   4.902   0.396   5.434
18061WAT     H154425   4.906   0.439   5.344
18061WAT     H254426   4.831   0.440   5.489
18062WAT      O54427   8.806   9.496   5.651
18062WAT     H154428   8.785   9.586   5.691
18062WAT     H254429   8.763   9.489   5.561
18063WAT      O54430   5.337   7.817   2.124
18063WAT     H154431   5.249   7.838   2.081
18063WAT     H254432   5.411   7.850   2.066
18064WAT      O54433   7.060   5.914   2.070
18064WAT     H154434   7.086   6.010   2.064
18064WAT     H254435   6.961   5.905   2.065
18065WAT      O54436   4.442   8.856   3.180
18065WAT     H154437   4.361   8.855   3.121
18065WAT     H254438   4.524   8.856   3.123
18066WAT      O54439   7.628   4.792   6.562
18066WAT     H154440   7.641   4.746   6.474
18066WAT     H254441   7.581   4.879   6.547
18067WAT      O54442   2.878   3.230   3.507
18067WAT     H154443   2.893   3.324   3.537
18067WAT     H254444   2.858   3.172   3.586
18068WAT      O54445   7.391   2.705   8.862
18068WAT     H154446   7.387   2.668   8.769
18068WAT     H254447   7.479   2.750   8.876
18069WAT      O54448   5.902   6.257   7.768
18069WAT     H154449   5.922   6.199   7.689
18069WAT     H254450   5.857   6.341   7.737
18070WAT      O54451   8.867   3.561   3.396
18070WAT     H154452   8.954   3.511   3.404
18070WAT     H254453   8.802   3.507   3.343
18071WAT      O54454   0.162   7.218   0.283
18071WAT     H154455   0.257   7.192   0.303
18071WAT     H254456   0.155   7.247   0.188
18072WAT      O54457   7.586   3.259   7.925
18072WAT     H154458   7.611   3.217   7.838
18072WAT     H254459   7.486   3.265   7.932
18073WAT      O54460   5.846   5.953   8.302
18073WAT     H154461   5.833   5.860   8.337
18073WAT     H254462   5.848   6.018   8.378
18074WAT      O54463   7.234   8.168   3.813
18074WAT     H154464   7.197   8.076   3.820
18074WAT     H254465   7.327   8.164   3.777
18075WAT      O54466   6.643   5.519   6.003
18075WAT     H154467   6.586   5.482   5.930
18075WAT     H254468   6.639   5.459   6.082
18076WAT      O54469   0.688   2.091   2.992
18076WAT     H154470   0.666   2.128   3.082
18076WAT     H254471   0.603   2.071   2.942
18077WAT      O54472   7.430   1.635   8.481
18077WAT     H154473   7.485   1.596   8.408
18077WAT     H254474   7.395   1.562   8.540
18078WAT      O54475   2.850   5.737   2.333
18078WAT     H154476   2.819   5.795   2.408
18078WAT     H254477   2.948   5.750   2.319
18079WAT      O54478   1.402   2.617   3.938
18079WAT     H154479   1.333   2.674   3.893
18079WAT     H254480   1.374   2.521   3.934
18080WAT      O54481   9.655   0.188   7.746
18080WAT     H154482   9.564   0.175   7.706
18080WAT     H254483   9.723   0.143   7.689
18081WAT      O54484   3.746   2.086   2.836
18081WAT     H154485   3.817   2.015   2.836
18081WAT     H254486   3.782   2.168   2.790
18082WAT      O54487   2.009   0.748   7.373
18082WAT     H154488   2.103   0.722   7.352
18082WAT     H254489   1.985   0.830   7.321
18083WAT      O54490   5.077   7.548   8.385
18083WAT     H154491   5.074   7.456   8.346
18083WAT     H254492   5.064   7.616   8.313
18084WAT      O54493   4.055   5.040   3.248
18084WAT     H154494   4.087   4.955   3.290
18084WAT     H254495   3.960   5.057   3.274
18085WAT      O54496   8.403   0.702   4.218
18085WAT     H154497   8.357   0.627   4.266
18085WAT     H254498   8.419   0.676   4.123
18086WAT      O54499   0.107   8.652   1.754
18086WAT     H154500   0.205   8.663   1.733
18086WAT     H254501   0.081   8.556   1.744
18087WAT      O54502   7.741   2.144   8.696
18087WAT     H154503   7.833   2.182   8.700
18087WAT     H254504   7.739   2.056   8.743
18088WAT      O54505   5.952   9.639   0.534
18088WAT     H154506   5.907   9.555   0.565
18088WAT     H254507   6.019   9.616   0.464
18089WAT      O54508   9.232   0.930   1.801
18089WAT     H154509   9.217   1.029   1.803
18089WAT     H254510   9.188   0.888   1.880
18090WAT      O54511   8.657   3.986   5.490
18090WAT     H154512   8.725   3.985   5.564
18090WAT     H254513   8.636   3.892   5.464
18091WAT      O54514   6.428   5.599   4.852
18091WAT     H154515   6.346   5.656   4.853
18091WAT     H254516   6.457   5.581   4.946
18092WAT      O54517   6.842   5.594   4.111
18092WAT     H154518   6.868   5.688   4.090
18092WAT     H254519   6.744   5.582   4.098
18093WAT      O54520   0.947   3.735   4.705
18093WAT     H154521   0.959   3.821   4.754
18093WAT     H254522   1.005   3.665   4.746
18094WAT      O54523   3.701   1.998   0.816
18094WAT     H154524   3.702   1.901   0.795
18094WAT     H254525   3.774   2.044   0.766
18095WAT      O54526   5.856   5.941   1.740
18095WAT     H154527   5.846   6.041   1.730
18095WAT     H254528   5.765   5.899   1.742
18096WAT      O54529   9.662   6.953   6.927
18096WAT     H154530   9.656   6.901   6.842
18096WAT     H254531   9.716   6.903   6.994
18097WAT      O54532   4.541   0.709   3.049
18097WAT     H154533   4.596   0.776   3.097
18097WAT     H254534   4.498   0.752   2.970
18098WAT      O54535   4.425   5.278   4.820
18098WAT     H154536   4.520   5.254   4.800
18098WAT     H254537   4.421   5.332   4.905
18099WAT      O54538   1.031   4.596   4.567
18099WAT     H154539   1.123   4.635   4.565
18099WAT     H254540   1.037   4.496   4.571
18100WAT      O54541   0.914   4.122   1.785
18100WAT     H154542   0.953   4.104   1.695
18100WAT     H254543   0.988   4.129   1.852
18101WAT      O54544   4.379   1.924   3.896
18101WAT     H154545   4.416   1.991   3.961
18101WAT     H254546   4.295   1.885   3.934
18102WAT      O54547   9.817   8.094   8.707
18102WAT     H154548   9.892   8.065   8.766
18102WAT     H254549   9.843   8.176   8.656
18103WAT      O54550   2.828   6.934   8.844
18103WAT     H154551   2.729   6.925   8.855
18103WAT     H254552   2.847   6.995   8.767
18104WAT      O54553   9.524   6.666   4.939
18104WAT     H154554   9.609   6.691   4.893
18104WAT     H254555   9.509   6.568   4.931
18105WAT      O54556   3.925   2.195   0.026
18105WAT     H154557   3.980   2.134   0.084
18105WAT     H254558   3.915   2.283   0.072
18106WAT      O54559   9.519   6.314   9.479
18106WAT     H154560   9.491   6.288   9.572
18106WAT     H254561   9.447   6.289   9.415
18107WAT      O54562   7.878   5.957   3.134
18107WAT     H154563   7.969   5.959   3.093
18107WAT     H254564   7.821   5.890   3.086
18108WAT      O54565   0.729   5.510   8.418
18108WAT     H154566   0.814   5.473   8.380
18108WAT     H254567   0.673   5.435   8.453
18109WAT      O54568   7.692   8.409   2.010
18109WAT     H154569   7.660   8.397   2.104
18109WAT     H254570   7.727   8.502   1.999
18110WAT      O54571   8.119   3.231   6.407
18110WAT     H154572   8.114   3.131   6.406
18110WAT     H254573   8.182   3.261   6.335
18111WAT      O54574   0.358   8.714   3.281
18111WAT     H154575   0.317   8.771   3.210
18111WAT     H254576   0.445   8.676   3.247
18112WAT      O54577   4.251   1.885   8.229
18112WAT     H154578   4.330   1.855   8.282
18112WAT     H254579   4.176   1.907   8.291
18113WAT      O54580   3.088   9.502   5.299
18113WAT     H154581   3.065   9.537   5.208
18113WAT     H254582   3.118   9.578   5.357
18114WAT      O54583   7.355   7.203   3.874
18114WAT     H154584   7.375   7.286   3.822
18114WAT     H254585   7.331   7.227   3.967
18115WAT      O54586   3.560   8.184   1.895
18115WAT     H154587   3.601   8.166   1.806
18115WAT     H254588   3.631   8.193   1.964
18116WAT      O54589   9.317   3.668   5.442
18116WAT     H154590   9.312   3.595   5.374
18116WAT     H254591   9.237   3.665   5.501
18117WAT      O54592   6.271   1.613   4.957
18117WAT     H154593   6.219   1.695   4.981
18117WAT     H254594   6.212   1.533   4.963
18118WAT      O54595   1.754   4.429   2.415
18118WAT     H154596   1.689   4.376   2.360
18118WAT     H254597   1.768   4.519   2.373
18119WAT      O54598   7.922   4.868   7.196
18119WAT     H154599   7.929   4.798   7.125
18119WAT     H254600   7.854   4.839   7.264
18120WAT      O54601   0.827   0.822   9.170
18120WAT     H154602   0.765   0.875   9.226
18120WAT     H254603   0.916   0.816   9.216
18121WAT      O54604   4.003   0.428   3.555
18121WAT     H154605   3.976   0.500   3.619
18121WAT     H254606   3.946   0.347   3.571
18122WAT      O54607   5.359   9.758   0.511
18122WAT     H154608   5.268   9.763   0.553
18122WAT     H254609   5.418   9.698   0.566
18123WAT      O54610   3.017   3.522   5.660
18123WAT     H154611   2.984   3.550   5.570
18123WAT     H254612   2.947   3.541   5.729
18124WAT      O54613   5.133   1.895   9.817
18124WAT     H154614   5.035   1.894   9.838
18124WAT     H254615   5.182   1.839   9.884
18125WAT      O54616   6.672   4.388   8.215
18125WAT     H154617   6.767   4.418   8.224
18125WAT     H254618   6.656   4.312   8.278
18126WAT      O54619   1.068   2.044   9.410
18126WAT     H154620   0.974   2.030   9.377
18126WAT     H254621   1.103   1.958   9.446
18127WAT      O54622   6.881   2.677   8.195
18127WAT     H154623   6.969   2.645   8.159
18127WAT     H254624   6.880   2.664   8.294
18128WAT      O54625   6.457   1.283   5.768
18128WAT     H154626   6.416   1.258   5.681
18128WAT     H254627   6.413   1.367   5.802
18129WAT      O54628   7.258   1.468   9.397
18129WAT     H154629   7.288   1.403   9.466
18129WAT     H254630   7.159   1.464   9.388
18130WAT      O54631   5.254   3.714   2.473
18130WAT     H154632   5.173   3.739   2.526
18130WAT     H254633   5.324   3.785   2.484
18131WAT      O54634   8.649   5.240   6.131
18131WAT     H154635   8.741   5.212   6.102
18131WAT     H254636   8.634   5.212   6.225
18132WAT      O54637   1.821   0.892   5.804
18132WAT     H154638   1.880   0.830   5.855
18132WAT     H254639   1.874   0.971   5.773
18133WAT      O54640   9.711   8.191   1.151
18133WAT     H154641   9.740   8.262   1.216
18133WAT     H254642   9.661   8.234   1.075
18134WAT      O54643   9.517   1.089   2.493
18134WAT     H154644   9.581   1.163   2.514
18134WAT     H254645   9.509   1.028   2.572
18135WAT      O54646   0.355   9.410   8.956
18135WAT     H154647   0.310   9.432   9.043
18135WAT     H254648   0.381   9.313   8.955
18136WAT      O54649   3.057   6.567   7.673
18136WAT     H154650   3.013   6.557   7.584
18136WAT     H254651   3.097   6.658   7.681
18137WAT      O54652   3.533   2.960   7.566
18137WAT     H154653   3.447   2.990   7.525
18137WAT     H254654   3.538   2.860   7.561
18138WAT      O54655   0.636   1.436   6.784
18138WAT     H154656   0.605   1.477   6.870
18138WAT     H254657   0.726   1.472   6.760
18139WAT      O54658   4.553   1.158   5.366
18139WAT     H154659   4.638   1.203   5.341
18139WAT     H254660   4.492   1.224   5.410
18140WAT      O54661   1.097   2.487   1.954
18140WAT     H154662   1.077   2.585   1.955
18140WAT     H254663   1.044   2.441   2.025
18141WAT      O54664   1.459   4.490   7.578
18141WAT     H154665   1.416   4.408   7.616
18141WAT     H254666   1.436   4.569   7.635
18142WAT      O54667   4.560   5.059   3.976
18142WAT     H154668   4.503   4.987   3.938
18142WAT     H254669   4.645   5.067   3.923
18143WAT      O54670   4.435   9.399   2.651
18143WAT     H154671   4.388   9.323   2.695
18143WAT     H254672   4.476   9.369   2.565
18144WAT      O54673   7.713   4.743   5.914
18144WAT     H154674   7.789   4.768   5.974
18144WAT     H254675   7.746   4.740   5.819
18145WAT      O54676   2.487   0.306   7.207
18145WAT     H154677   2.542   0.229   7.237
18145WAT     H254678   2.410   0.319   7.270
18146WAT      O54679   6.208   0.783   5.417
18146WAT     H154680   6.113   0.781   5.388
18146WAT     H254681   6.248   0.872   5.395
18147WAT      O54682   4.368   7.101   2.903
18147WAT     H154683   4.430   7.025   2.922
18147WAT     H254684   4.279   7.065   2.877
18148WAT      O54685   2.739   8.529   6.013
18148WAT     H154686   2.670   8.512   6.082
18148WAT     H254687   2.740   8.627   5.989
18149WAT      O54688   3.611   9.465   2.462
18149WAT     H154689   3.661   9.441   2.545
18149WAT     H254690   3.673   9.508   2.397
18150WAT      O54691   7.803   4.186   8.700
18150WAT     H154692   7.721   4.242   8.695
18150WAT     H254693   7.863   4.207   8.622
18151WAT      O54694   4.284   3.260   6.740
18151WAT     H154695   4.369   3.210   6.722
18151WAT     H254696   4.295   3.317   6.821
18152WAT      O54697   6.976   1.658   6.458
18152WAT     H154698   6.908   1.591   6.488
18152WAT     H254699   7.003   1.639   6.364
18153WAT      O54700   5.761   0.308   6.375
18153WAT     H154701   5.692   0.237   6.359
18153WAT     H254702   5.748   0.347   6.466
18154WAT      O54703   9.509   4.028   4.241
18154WAT     H154704   9.546   4.095   4.177
18154WAT     H254705   9.570   3.949   4.247
18155WAT      O54706   8.139   6.120   7.943
18155WAT     H154707   8.160   6.042   8.002
18155WAT     H254708   8.104   6.196   7.998
18156WAT      O54709   2.917   2.061   5.006
18156WAT     H154710   2.819   2.047   4.995
18156WAT     H254711   2.956   2.095   4.921
18157WAT      O54712   7.514   0.551   7.925
18157WAT     H154713   7.489   0.588   7.836
18157WAT     H254714   7.517   0.625   7.992
18158WAT      O54715   7.204   1.055   5.969
18158WAT     H154716   7.275   1.078   6.036
18158WAT     H254717   7.246   1.040   5.880
18159WAT      O54718   2.971   8.772   5.365
18159WAT     H154719   2.902   8.742   5.299
18159WAT     H254720   2.991   8.869   5.352
18160WAT      O54721   6.798   8.083   1.525
18160WAT     H154722   6.854   8.137   1.462
18160WAT     H254723   6.791   8.130   1.613
18161WAT      O54724   4.280   6.958   1.902
18161WAT     H154725   4.277   6.928   1.997
18161WAT     H254726   4.199   7.014   1.882
18162WAT      O54727   3.563   6.334   0.150
18162WAT     H154728   3.630   6.261   0.164
18162WAT     H254729   3.558   6.357   0.053
18163WAT      O54730   8.319   9.688   0.208
18163WAT     H154731   8.401   9.637   0.181
18163WAT     H254732   8.241   9.625   0.212
18164WAT      O54733   9.530   3.396   8.596
18164WAT     H154734   9.610   3.342   8.623
18164WAT     H254735   9.547   3.439   8.507
18165WAT      O54736   3.902   3.085   8.772
18165WAT     H154737   3.919   2.993   8.809
18165WAT     H254738   3.826   3.081   8.708
18166WAT      O54739   9.701   5.260   7.851
18166WAT     H154740   9.743   5.346   7.879
18166WAT     H254741   9.749   5.223   7.772
18167WAT      O54742   2.651   0.365   4.319
18167WAT     H154743   2.631   0.309   4.400
18167WAT     H254744   2.725   0.322   4.267
18168WAT      O54745   4.183   8.428   0.985
18168WAT     H154746   4.262   8.452   1.041
18168WAT     H254747   4.193   8.334   0.952
18169WAT      O54748   7.004   2.787   3.537
18169WAT     H154749   7.055   2.812   3.619
18169WAT     H254750   7.028   2.849   3.462
18170WAT      O54751   3.229   1.364   9.640
18170WAT     H154752   3.303   1.318   9.591
18170WAT     H254753   3.167   1.408   9.575
18171WAT      O54754   1.944   2.975   1.755
18171WAT     H154755   1.927   2.881   1.787
18171WAT     H254756   1.857   3.019   1.733
18172WAT      O54757   5.802   0.893   1.553
18172WAT     H154758   5.827   0.809   1.505
18172WAT     H254759   5.837   0.890   1.646
18173WAT      O54760   0.952   7.407   3.217
18173WAT     H154761   1.032   7.396   3.159
18173WAT     H254762   0.891   7.329   3.207
18174WAT      O54763   4.094   4.880   3.009
18174WAT     H154764   4.070   4.931   3.092
18174WAT     H254765   4.181   4.915   2.973
18175WAT      O54766   4.843   5.967   2.946
18175WAT     H154767   4.743   5.966   2.946
18175WAT     H254768   4.876   5.991   2.855
18176WAT      O54769   6.436   9.169   7.936
18176WAT     H154770   6.496   9.249   7.925
18176WAT     H254771   6.410   9.161   8.032
18177WAT      O54772   6.198   6.958   9.254
18177WAT     H154773   6.230   7.040   9.302
18177WAT     H254774   6.272   6.891   9.249
18178WAT      O54775   3.407   5.921   7.711
18178WAT     H154776   3.343   5.997   7.693
18178WAT     H254777   3.396   5.889   7.805
18179WAT      O54778   6.840   8.545   5.529
18179WAT     H154779   6.908   8.618   5.535
18179WAT     H254780   6.876   8.470   5.474
18180WAT      O54781   5.361   2.568   9.886
18180WAT     H154782   5.369   2.491   9.823
18180WAT     H254783   5.268   2.569   9.925
18181WAT      O54784   7.304   7.196   9.896
18181WAT     H154785   7.233   7.136   9.860
18181WAT     H254786   7.346   7.248   9.821
18182WAT      O54787   3.894   4.959   8.816
18182WAT     H154788   3.940   5.047   8.823
18182WAT     H254789   3.891   4.931   8.720
18183WAT      O54790   0.094   7.150   9.656
18183WAT     H154791   0.066   7.220   9.721
18183WAT     H254792   0.151   7.192   9.585
18184WAT      O54793   2.921   3.385   2.429
18184WAT     H154794   3.021   3.381   2.424
18184WAT     H254795   2.886   3.445   2.358
18185WAT      O54796   9.503   8.854   3.570
18185WAT     H154797   9.531   8.759   3.581
18185WAT     H254798   9.479   8.892   3.660
18186WAT      O54799   9.771   7.813   8.616
18186WAT     H154800   9.720   7.881   8.667
18186WAT     H254801   9.865   7.810   8.648
18187WAT      O54802   7.564   3.287   1.527
18187WAT     H154803   7.542   3.372   1.575
18187WAT     H254804   7.506   3.213   1.562
18188WAT      O54805   7.300   2.980   2.889
18188WAT     H154806   7.354   2.916   2.834
18188WAT     H254807   7.341   2.990   2.980
18189WAT      O54808   8.034   8.677   0.250
18189WAT     H154809   8.022   8.743   0.324
18189WAT     H254810   8.010   8.586   0.283
18190WAT      O54811   9.765   4.368   6.345
18190WAT     H154812   9.747   4.442   6.279
18190WAT     H254813   9.680   4.320   6.365
18191WAT      O54814   1.571   8.388   3.098
18191WAT     H154815   1.587   8.430   3.009
18191WAT     H254816   1.604   8.449   3.170
18192WAT      O54817   2.958   2.463   1.964
18192WAT     H154818   3.045   2.476   2.012
18192WAT     H254819   2.917   2.552   1.943
18193WAT      O54820   4.865   4.914   4.881
18193WAT     H154821   4.954   4.871   4.865
18193WAT     H254822   4.802   4.889   4.807
18194WAT      O54823   8.471   4.787   2.892
18194WAT     H154824   8.411   4.836   2.955
18194WAT     H254825   8.566   4.800   2.920
18195WAT      O54826   4.543   6.169   1.336
18195WAT     H154827   4.545   6.264   1.368
18195WAT     H254828   4.585   6.163   1.246
18196WAT      O54829   3.602   0.105   3.683
18196WAT     H154830   3.550   0.113   3.768
18196WAT     H254831   3.588   0.014   3.644
18197WAT      O54832   4.954   5.929   9.088
18197WAT     H154833   4.877   5.873   9.118
18197WAT     H254834   5.033   5.870   9.070
18198WAT      O54835   4.662   2.990   0.797
18198WAT     H154836   4.717   2.941   0.729
18198WAT     H254837   4.568   2.997   0.766
18199WAT      O54838   2.504   8.901   4.605
18199WAT     H154839   2.423   8.868   4.556
18199WAT     H254840   2.584   8.849   4.576
18200WAT      O54841   2.432   1.300   4.921
18200WAT     H154842   2.342   1.262   4.900
18200WAT     H254843   2.452   1.286   5.018
18201WAT      O54844   8.402   6.053   2.196
18201WAT     H154845   8.359   5.999   2.269
18201WAT     H254846   8.474   6.110   2.235
18202WAT      O54847   8.039   1.420   7.642
18202WAT     H154848   8.016   1.492   7.708
18202WAT     H254849   8.068   1.462   7.556
18203WAT      O54850   8.186   5.624   7.373
18203WAT     H154851   8.096   5.617   7.330
18203WAT     H254852   8.184   5.696   7.442
18204WAT      O54853   3.147   0.316   1.957
18204WAT     H154854   3.204   0.380   2.008
18204WAT     H254855   3.182   0.307   1.864
18205WAT      O54856   6.723   3.724   7.729
18205WAT     H154857   6.743   3.804   7.672
18205WAT     H254858   6.625   3.721   7.749
18206WAT      O54859   6.232   3.864   5.941
18206WAT     H154860   6.291   3.787   5.964
18206WAT     H254861   6.155   3.868   6.004
18207WAT      O54862   2.645   1.001   8.843
18207WAT     H154863   2.571   1.067   8.855
18207WAT     H254864   2.657   0.949   8.927
18208WAT      O54865   6.515   8.217   2.687
18208WAT     H154866   6.462   8.292   2.726
18208WAT     H254867   6.590   8.194   2.749
18209WAT      O54868   7.774   0.574   2.028
18209WAT     H154869   7.765   0.516   2.109
18209WAT     H254870   7.684   0.613   2.005
18210WAT      O54871   4.491   5.112   6.633
18210WAT     H154872   4.479   5.013   6.622
18210WAT     H254873   4.582   5.131   6.669
18211WAT      O54874   2.054   8.089   2.980
18211WAT     H154875   1.982   8.158   2.978
18211WAT     H254876   2.081   8.072   3.075
18212WAT      O54877   0.481   5.006   3.517
18212WAT     H154878   0.477   5.049   3.427
18212WAT     H254879   0.389   5.005   3.557
18213WAT      O54880   2.250   3.040   8.277
18213WAT     H154881   2.211   3.074   8.362
18213WAT     H254882   2.214   3.093   8.200
18214WAT      O54883   8.617   3.654   2.370
18214WAT     H154884   8.606   3.588   2.295
18214WAT     H254885   8.534   3.653   2.427
18215WAT      O54886   2.433   5.612   5.526
18215WAT     H154887   2.461   5.705   5.550
18215WAT     H254888   2.483   5.546   5.581
18216WAT      O54889   0.497   3.736   5.993
18216WAT     H154890   0.449   3.738   5.906
18216WAT     H254891   0.584   3.784   5.984
18217WAT      O54892   2.961   9.146   9.668
18217WAT     H154893   2.890   9.085   9.704
18217WAT     H254894   3.039   9.091   9.638
18218WAT      O54895   7.047   6.911   1.571
18218WAT     H154896   7.110   6.914   1.649
18218WAT     H254897   6.954   6.925   1.603
18219WAT      O54898   7.751   1.850   7.838
18219WAT     H154899   7.658   1.841   7.873
18219WAT     H254900   7.750   1.908   7.756
18220WAT      O54901   0.249   4.404   0.762
18220WAT     H154902   0.196   4.324   0.734
18220WAT     H254903   0.209   4.487   0.722
18221WAT      O54904   8.188   1.896   7.587
18221WAT     H154905   8.108   1.883   7.530
18221WAT     H254906   8.186   1.987   7.629
18222WAT      O54907   4.086   6.814   8.611
18222WAT     H154908   4.116   6.855   8.697
18222WAT     H254909   4.001   6.762   8.626
18223WAT      O54910   2.007   3.367   6.300
18223WAT     H154911   1.945   3.289   6.307
18223WAT     H254912   2.053   3.381   6.388
18224WAT      O54913   7.846   7.487   5.522
18224WAT     H154914   7.764   7.538   5.550
18224WAT     H254915   7.818   7.399   5.483
18225WAT      O54916   2.052   7.840   2.903
18225WAT     H154917   2.004   7.820   2.817
18225WAT     H254918   2.046   7.938   2.922
18226WAT      O54919   4.077   7.844   6.756
18226WAT     H154920   4.121   7.812   6.840
18226WAT     H254921   4.071   7.768   6.691
18227WAT      O54922   6.740   5.329   9.865
18227WAT     H154923   6.832   5.288   9.861
18227WAT     H254924   6.738   5.398   9.937
18228WAT      O54925   8.619   7.627   3.042
18228WAT     H154926   8.702   7.583   3.008
18228WAT     H254927   8.550   7.557   3.060
18229WAT      O54928   3.826   7.177   1.999
18229WAT     H154929   3.813   7.113   2.075
18229WAT     H254930   3.813   7.271   2.031
18230WAT      O54931   9.804   1.339   3.427
18230WAT     H154932   9.843   1.429   3.408
18230WAT     H254933   9.709   1.350   3.456
18231WAT      O54934   6.022   3.888   4.425
18231WAT     H154935   6.061   3.936   4.346
18231WAT     H254936   5.960   3.949   4.473
18232WAT      O54937   6.725   0.505   4.961
18232WAT     H154938   6.701   0.438   5.032
18232WAT     H254939   6.715   0.597   4.997
18233WAT      O54940   6.337   8.520   7.638
18233WAT     H154941   6.262   8.474   7.591
18233WAT     H254942   6.378   8.589   7.578
18234WAT      O54943   4.433   3.806   7.780
18234WAT     H154944   4.508   3.773   7.837
18234WAT     H254945   4.468   3.832   7.690
18235WAT      O54946   5.831   1.550   4.932
18235WAT     H154947   5.803   1.455   4.946
18235WAT     H254948   5.897   1.577   5.003
18236WAT      O54949   5.815   4.698   7.253
18236WAT     H154950   5.855   4.681   7.343
18236WAT     H254951   5.829   4.794   7.229
18237WAT      O54952   5.863   0.748   0.542
18237WAT     H154953   5.902   0.825   0.592
18237WAT     H254954   5.769   0.731   0.573
18238WAT      O54955   0.669   2.973   4.199
18238WAT     H154956   0.598   3.034   4.163
18238WAT     H254957   0.635   2.928   4.282
18239WAT      O54958   6.274   9.286   5.909
18239WAT     H154959   6.308   9.211   5.851
18239WAT     H254960   6.196   9.330   5.865
18240WAT      O54961   9.136   7.634   9.229
18240WAT     H154962   9.187   7.548   9.230
18240WAT     H254963   9.062   7.628   9.163
18241WAT      O54964   2.526   1.535   5.460
18241WAT     H154965   2.431   1.503   5.460
18241WAT     H254966   2.544   1.585   5.545
18242WAT      O54967   8.117   0.743   0.869
18242WAT     H154968   8.144   0.755   0.773
18242WAT     H254969   8.035   0.797   0.887
18243WAT      O54970   6.768   9.543   5.597
18243WAT     H154971   6.814   9.628   5.569
18243WAT     H254972   6.685   9.565   5.647
18244WAT      O54973   6.771   5.565   4.973
18244WAT     H154974   6.673   5.543   4.973
18244WAT     H254975   6.783   5.660   5.002
18245WAT      O54976   1.264   9.423   1.433
18245WAT     H154977   1.317   9.364   1.495
18245WAT     H254978   1.291   9.519   1.449
18246WAT      O54979   9.284   4.043   3.153
18246WAT     H154980   9.370   4.031   3.103
18246WAT     H254981   9.234   4.120   3.114
18247WAT      O54982   4.206   0.914   3.366
18247WAT     H154983   4.283   0.891   3.425
18247WAT     H254984   4.212   1.010   3.340
18248WAT      O54985   2.976   5.839   6.356
18248WAT     H154986   3.038   5.877   6.425
18248WAT     H254987   3.017   5.848   6.265
18249WAT      O54988   5.095   7.096   1.935
18249WAT     H154989   5.149   7.171   1.974
18249WAT     H254990   5.072   7.118   1.841
18250WAT      O54991   3.732   6.626   5.841
18250WAT     H154992   3.772   6.540   5.871
18250WAT     H254993   3.644   6.608   5.796
18251WAT      O54994   0.191   3.471   1.753
18251WAT     H154995   0.218   3.376   1.773
18251WAT     H254996   0.243   3.533   1.813
18252WAT      O54997   1.480   0.372   5.552
18252WAT     H154998   1.490   0.460   5.598
18252WAT     H254999   1.546   0.365   5.478
18253WAT      O55000   6.071   5.471   9.060
18253WAT     H155001   6.148   5.520   9.101
18253WAT     H255002   5.987   5.495   9.109
18254WAT      O55003   0.312   2.823   3.180
18254WAT     H155004   0.390   2.883   3.160
18254WAT     H255005   0.240   2.876   3.224
18255WAT      O55006   1.856   4.382   9.412
18255WAT     H155007   1.758   4.403   9.404
18255WAT     H255008   1.909   4.464   9.391
18256WAT      O55009   0.952   6.749   1.153
18256WAT     H155010   0.912   6.720   1.239
18256WAT     H255011   0.977   6.846   1.159
18257WAT      O55012   6.512   8.976   4.007
18257WAT     H155013   6.603   8.938   3.994
18257WAT     H255014   6.514   9.075   3.989
18258WAT      O55015   8.961   4.399   3.057
18258WAT     H155016   9.032   4.329   3.046
18258WAT     H255017   8.944   4.415   3.154
18259WAT      O55018   5.707   2.137   2.693
18259WAT     H155019   5.710   2.162   2.790
18259WAT     H255020   5.645   2.198   2.644
18260WAT      O55021   4.577   1.710   6.235
18260WAT     H155022   4.577   1.726   6.334
18260WAT     H255023   4.513   1.637   6.213
18261WAT      O55024   9.813   8.455   8.224
18261WAT     H155025   9.845   8.371   8.180
18261WAT     H255026   9.887   8.493   8.279
18262WAT      O55027   5.952   6.875   7.754
18262WAT     H155028   6.043   6.900   7.721
18262WAT     H255029   5.901   6.830   7.681
18263WAT      O55030   3.789   5.679   0.527
18263WAT     H155031   3.758   5.732   0.448
18263WAT     H255032   3.760   5.584   0.515
18264WAT      O55033   3.548   7.473   3.175
18264WAT     H155034   3.557   7.382   3.136
18264WAT     H255035   3.502   7.533   3.110
18265WAT      O55036   6.671   7.879   1.371
18265WAT     H155037   6.724   7.960   1.398
18265WAT     H255038   6.576   7.905   1.356
18266WAT      O55039   7.153   1.420   0.269
18266WAT     H155040   7.092   1.434   0.191
18266WAT     H255041   7.160   1.322   0.289
18267WAT      O55042   3.172   9.763   7.893
18267WAT     H155043   3.230   9.817   7.953
18267WAT     H255044   3.079   9.800   7.894
18268WAT      O55045   4.734   7.326   7.103
18268WAT     H155046   4.662   7.396   7.107
18268WAT     H255047   4.697   7.239   7.136
18269WAT      O55048   0.400   7.864   9.455
18269WAT     H155049   0.384   7.775   9.499
18269WAT     H255050   0.479   7.908   9.498
18270WAT      O55051   0.170   8.584   2.230
18270WAT     H155052   0.095   8.565   2.166
18270WAT     H255053   0.146   8.662   2.287
18271WAT      O55054   0.938   6.795   0.785
18271WAT     H155055   1.005   6.738   0.833
18271WAT     H255056   0.910   6.749   0.701
18272WAT      O55057   9.075   6.913   2.123
18272WAT     H155058   9.051   6.820   2.150
18272WAT     H255059   9.052   6.927   2.027
18273WAT      O55060   8.192   3.354   5.862
18273WAT     H155061   8.248   3.280   5.900
18273WAT     H255062   8.232   3.442   5.886
18274WAT      O55063   2.439   1.719   8.906
18274WAT     H155064   2.441   1.711   8.806
18274WAT     H255065   2.519   1.770   8.937
18275WAT      O55066   1.251   2.569   1.631
18275WAT     H155067   1.344   2.546   1.659
18275WAT     H255068   1.186   2.518   1.687
18276WAT      O55069   9.353   2.029   9.665
18276WAT     H155070   9.438   2.039   9.717
18276WAT     H255071   9.290   1.970   9.715
18277WAT      O55072   0.896   6.881   9.364
18277WAT     H155073   0.797   6.890   9.352
18277WAT     H255074   0.938   6.971   9.373
18278WAT      O55075   7.556   1.371   3.262
18278WAT     H155076   7.633   1.308   3.254
18278WAT     H255077   7.523   1.372   3.356
18279WAT      O55078   2.569   4.524   3.063
18279WAT     H155079   2.618   4.592   3.118
18279WAT     H255080   2.621   4.504   2.980
18280WAT      O55081   4.428   1.833   9.403
18280WAT     H155082   4.382   1.909   9.357
18280WAT     H255083   4.370   1.752   9.397
18281WAT      O55084   6.190   9.082   4.580
18281WAT     H155085   6.153   9.174   4.588
18281WAT     H255086   6.282   9.079   4.619
18282WAT      O55087   3.851   0.809   7.379
18282WAT     H155088   3.797   0.837   7.459
18282WAT     H255089   3.869   0.888   7.321
18283WAT      O55090   9.362   0.270   3.967
18283WAT     H155091   9.275   0.242   4.008
18283WAT     H255092   9.436   0.254   4.032
18284WAT      O55093   9.684   2.685   1.261
18284WAT     H155094   9.705   2.595   1.298
18284WAT     H255095   9.661   2.677   1.164
18285WAT      O55096   5.722   4.834   9.134
18285WAT     H155097   5.638   4.829   9.081
18285WAT     H255098   5.703   4.872   9.224
18286WAT      O55099   8.287   0.700   3.436
18286WAT     H155100   8.203   0.669   3.393
18286WAT     H255101   8.282   0.799   3.451
18287WAT      O55102   3.646   9.300   3.511
18287WAT     H155103   3.709   9.318   3.435
18287WAT     H255104   3.552   9.315   3.481
18288WAT      O55105   0.820   5.349   4.486
18288WAT     H155106   0.875   5.308   4.413
18288WAT     H255107   0.849   5.313   4.574
18289WAT      O55108   5.882   9.226   2.329
18289WAT     H155109   5.951   9.198   2.262
18289WAT     H255110   5.928   9.260   2.411
18290WAT      O55111   2.231   7.161   1.630
18290WAT     H155112   2.169   7.212   1.570
18290WAT     H255113   2.325   7.187   1.611
18291WAT      O55114   2.216   9.435   0.522
18291WAT     H155115   2.292   9.408   0.581
18291WAT     H255116   2.130   9.420   0.571
18292WAT      O55117   0.221   7.675   8.222
18292WAT     H155118   0.263   7.764   8.203
18292WAT     H255119   0.249   7.644   8.313
18293WAT      O55120   2.527   7.776   6.460
18293WAT     H155121   2.621   7.741   6.456
18293WAT     H255122   2.511   7.818   6.550
18294WAT      O55123   0.813   0.018   5.837
18294WAT     H155124   0.911   0.002   5.827
18294WAT     H255125   0.797   0.094   5.899
18295WAT      O55126   5.187   9.074   9.019
18295WAT     H155127   5.233   8.999   9.068
18295WAT     H255128   5.197   9.159   9.071
18296WAT      O55129   2.115   6.725   8.295
18296WAT     H155130   2.061   6.660   8.349
18296WAT     H255131   2.121   6.812   8.345
18297WAT      O55132   3.517   4.783   8.382
18297WAT     H155133   3.603   4.823   8.351
18297WAT     H255134   3.507   4.797   8.481
18298WAT      O55135   4.398   8.106   9.168
18298WAT     H155136   4.424   8.066   9.081
18298WAT     H255137   4.321   8.169   9.154
18299WAT      O55138   3.020   6.159   2.407
18299WAT     H155139   3.006   6.216   2.326
18299WAT     H255140   3.052   6.069   2.380
18300WAT      O55141   1.164   6.274   4.352
18300WAT     H155142   1.192   6.300   4.260
18300WAT     H255143   1.176   6.176   4.364
18301WAT      O55144   9.275   4.697   2.551
18301WAT     H155145   9.328   4.730   2.473
18301WAT     H255146   9.210   4.628   2.521
18302WAT      O55147   0.690   6.110   5.797
18302WAT     H155148   0.594   6.088   5.781
18302WAT     H255149   0.746   6.067   5.726
18303WAT      O55150   9.287   2.890   9.608
18303WAT     H155151   9.261   2.901   9.512
18303WAT     H255152   9.386   2.880   9.615
18304WAT      O55153   4.386   5.981   8.271
18304WAT     H155154   4.308   6.002   8.212
18304WAT     H255155   4.471   6.000   8.222
18305WAT      O55156   9.249   9.690   7.947
18305WAT     H155157   9.246   9.682   7.847
18305WAT     H255158   9.328   9.745   7.973
18306WAT      O55159   3.860   9.483   2.632
18306WAT     H155160   3.883   9.412   2.699
18306WAT     H255161   3.941   9.504   2.577
18307WAT      O55162   1.464   5.543   9.229
18307WAT     H155163   1.463   5.641   9.248
18307WAT     H255164   1.493   5.528   9.134
18308WAT      O55165   6.885   8.892   0.475
18308WAT     H155166   6.925   8.967   0.422
18308WAT     H255167   6.827   8.929   0.548
18309WAT      O55168   2.433   6.567   7.923
18309WAT     H155169   2.452   6.631   7.848
18309WAT     H255170   2.380   6.490   7.888
18310WAT      O55171   9.077   0.666   2.805
18310WAT     H155172   9.054   0.582   2.756
18310WAT     H255173   8.995   0.702   2.848
18311WAT      O55174   9.033   1.505   4.793
18311WAT     H155175   9.103   1.437   4.815
18311WAT     H255176   8.961   1.502   4.862
18312WAT      O55177   2.427   4.307   4.779
18312WAT     H155178   2.421   4.305   4.879
18312WAT     H255179   2.442   4.215   4.744
18313WAT      O55180   6.255   2.935   4.107
18313WAT     H155181   6.232   2.854   4.053
18313WAT     H255182   6.177   2.961   4.164
18314WAT      O55183   4.847   1.535   8.583
18314WAT     H155184   4.932   1.541   8.531
18314WAT     H255185   4.843   1.610   8.649
18315WAT      O55186   4.284   6.289   6.290
18315WAT     H155187   4.383   6.282   6.304
18315WAT     H255188   4.265   6.339   6.206
18316WAT      O55189   1.100   0.792   0.713
18316WAT     H155190   1.136   0.826   0.627
18316WAT     H255191   1.129   0.852   0.788
18317WAT      O55192   0.713   3.179   7.517
18317WAT     H155193   0.785   3.145   7.456
18317WAT     H255194   0.636   3.212   7.462
18318WAT      O55195   7.426   9.400   8.280
18318WAT     H155196   7.393   9.494   8.275
18318WAT     H255197   7.433   9.373   8.376
18319WAT      O55198   3.818   3.194   3.676
18319WAT     H155199   3.758   3.172   3.753
18319WAT     H255200   3.875   3.115   3.654
18320WAT      O55201   5.988   3.396   6.455
18320WAT     H155202   5.905   3.375   6.505
18320WAT     H255203   6.067   3.355   6.501
18321WAT      O55204   5.247   3.050   0.592
18321WAT     H155205   5.197   3.118   0.644
18321WAT     H255206   5.190   3.015   0.517
18322WAT      O55207   4.107   8.900   3.761
18322WAT     H155208   4.047   8.857   3.693
18322WAT     H255209   4.093   8.999   3.761
18323WAT      O55210   8.138   7.221   2.556
18323WAT     H155211   8.223   7.180   2.592
18323WAT     H255212   8.066   7.210   2.624
18324WAT      O55213   5.318   8.849   2.727
18324WAT     H155214   5.277   8.936   2.701
18324WAT     H255215   5.417   8.861   2.738
18325WAT      O55216   7.972   1.850   3.701
18325WAT     H155217   7.903   1.881   3.767
18325WAT     H255218   7.998   1.756   3.722
18326WAT      O55219   1.976   3.470   8.881
18326WAT     H155220   1.988   3.489   8.783
18326WAT     H255221   2.063   3.438   8.919
18327WAT      O55222   4.920   9.731   9.754
18327WAT     H155223   4.826   9.737   9.789
18327WAT     H255224   4.941   9.812   9.700
18328WAT      O55225   1.721   5.324   6.222
18328WAT     H155226   1.622   5.323   6.241
18328WAT     H255227   1.736   5.302   6.126
18329WAT      O55228   2.581   8.789   0.970
18329WAT     H155229   2.494   8.768   0.924
18329WAT     H255230   2.657   8.759   0.913
18330WAT      O55231   8.742   1.243   3.586
18330WAT     H155232   8.704   1.335   3.578
18330WAT     H255233   8.749   1.201   3.495
18331WAT      O55234   5.891   1.946   3.143
18331WAT     H155235   5.938   1.979   3.225
18331WAT     H255236   5.959   1.913   3.077
18332WAT      O55237   4.738   3.825   3.328
18332WAT     H155238   4.728   3.901   3.264
18332WAT     H255239   4.834   3.800   3.335
18333WAT      O55240   8.573   3.091   9.318
18333WAT     H155241   8.490   3.143   9.340
18333WAT     H255242   8.653   3.150   9.328
18334WAT      O55243   7.809   0.371   2.663
18334WAT     H155244   7.849   0.453   2.623
18334WAT     H255245   7.857   0.290   2.628
18335WAT      O55246   7.443   0.837   4.215
18335WAT     H155247   7.503   0.758   4.204
18335WAT     H255248   7.483   0.917   4.170
18336WAT      O55249   0.233   9.242   1.093
18336WAT     H155250   0.278   9.160   1.057
18336WAT     H255251   0.134   9.226   1.098
18337WAT      O55252   4.355   7.943   0.842
18337WAT     H155253   4.444   7.970   0.804
18337WAT     H255254   4.305   7.889   0.775
18338WAT      O55255   7.998   5.656   7.961
18338WAT     H155256   8.071   5.588   7.956
18338WAT     H255257   7.914   5.613   7.994
18339WAT      O55258   4.631   6.076   8.136
18339WAT     H155259   4.636   5.978   8.115
18339WAT     H255260   4.721   6.107   8.168
18340WAT      O55261   6.414   7.461   0.775
18340WAT     H155262   6.453   7.547   0.805
18340WAT     H255263   6.485   7.403   0.737
18341WAT      O55264   5.637   2.254   5.311
18341WAT     H155265   5.696   2.282   5.235
18341WAT     H255266   5.542   2.255   5.281
18342WAT      O55267   5.105   1.369   5.464
18342WAT     H155268   5.176   1.432   5.496
18342WAT     H255269   5.016   1.414   5.467
18343WAT      O55270   4.731   8.660   7.641
18343WAT     H155271   4.729   8.566   7.605
18343WAT     H255272   4.811   8.670   7.700
18344WAT      O55273   5.781   5.798   6.031
18344WAT     H155274   5.714   5.731   5.999
18344WAT     H255275   5.865   5.789   5.977
18345WAT      O55276   7.970   0.130   1.128
18345WAT     H155277   7.904   0.130   1.053
18345WAT     H255278   8.062   0.144   1.092
18346WAT      O55279   3.842   3.243   4.751
18346WAT     H155280   3.907   3.220   4.823
18346WAT     H255281   3.857   3.336   4.720
18347WAT      O55282   3.431   3.787   7.088
18347WAT     H155283   3.500   3.830   7.030
18347WAT     H255284   3.442   3.818   7.182
18348WAT      O55285   2.665   5.666   0.686
18348WAT     H155286   2.758   5.631   0.697
18348WAT     H255287   2.667   5.766   0.684
18349WAT      O55288   3.625   4.957   0.617
18349WAT     H155289   3.708   4.967   0.562
18349WAT     H255290   3.642   4.989   0.710
18350WAT      O55291   1.279   5.598   2.979
18350WAT     H155292   1.199   5.644   2.939
18350WAT     H255293   1.277   5.501   2.954
18351WAT      O55294   6.698   4.234   8.497
18351WAT     H155295   6.785   4.263   8.537
18351WAT     H255296   6.626   4.236   8.566
18352WAT      O55297   5.699   1.652   7.019
18352WAT     H155298   5.686   1.702   7.104
18352WAT     H255299   5.767   1.700   6.963
18353WAT      O55300   2.786   3.516   0.704
18353WAT     H155301   2.814   3.605   0.740
18353WAT     H255302   2.836   3.498   0.619
18354WAT      O55303   1.511   1.836   1.091
18354WAT     H155304   1.443   1.813   1.022
18354WAT     H255305   1.491   1.925   1.130
18355WAT      O55306   5.537   3.425   5.020
18355WAT     H155307   5.443   3.421   4.987
18355WAT     H255308   5.582   3.506   4.981
18356WAT      O55309   4.418   1.429   4.944
18356WAT     H155310   4.394   1.502   4.881
18356WAT     H255311   4.468   1.358   4.895
18357WAT      O55312   0.107   8.045   8.900
18357WAT     H155313   0.070   7.994   8.978
18357WAT     H255314   0.205   8.060   8.913
18358WAT      O55315   7.277   0.846   1.359
18358WAT     H155316   7.179   0.861   1.371
18358WAT     H255317   7.299   0.750   1.375
18359WAT      O55318   9.329   3.482   7.490
18359WAT     H155319   9.353   3.419   7.564
18359WAT     H255320   9.330   3.432   7.402
18360WAT      O55321   7.491   5.349   3.217
18360WAT     H155322   7.495   5.249   3.213
18360WAT     H255323   7.525   5.380   3.306
18361WAT      O55324   0.602   0.652   7.131
18361WAT     H155325   0.617   0.559   7.097
18361WAT     H255326   0.555   0.648   7.220
18362WAT      O55327   9.541   9.498   2.820
18362WAT     H155328   9.488   9.513   2.736
18362WAT     H255329   9.631   9.460   2.797
18363WAT      O55330   3.933   2.873   7.562
18363WAT     H155331   4.019   2.873   7.613
18363WAT     H255332   3.927   2.956   7.506
18364WAT      O55333   4.188   4.905   6.146
18364WAT     H155334   4.208   4.807   6.149
18364WAT     H255335   4.274   4.955   6.137
18365WAT      O55336   3.856   4.357   6.105
18365WAT     H155337   3.833   4.323   6.196
18365WAT     H255338   3.886   4.452   6.111
18366WAT      O55339   1.232   7.152   2.621
18366WAT     H155340   1.332   7.158   2.624
18366WAT     H255341   1.201   7.094   2.697
18367WAT      O55342   3.085   4.690   5.392
18367WAT     H155343   3.160   4.743   5.432
18367WAT     H255344   3.024   4.658   5.465
18368WAT      O55345   2.060   3.748   9.322
18368WAT     H155346   2.030   3.696   9.242
18368WAT     H255347   2.028   3.842   9.314
18369WAT      O55348   8.254   2.928   6.229
18369WAT     H155349   8.301   2.855   6.179
18369WAT     H255350   8.292   2.936   6.321
18370WAT      O55351   8.672   2.408   6.051
18370WAT     H155352   8.740   2.369   6.113
18370WAT     H255353   8.650   2.501   6.080
18371WAT      O55354   4.359   2.524   9.245
18371WAT     H155355   4.361   2.550   9.342
18371WAT     H255356   4.362   2.607   9.189
18372WAT      O55357   4.552   0.527   4.502
18372WAT     H155358   4.558   0.502   4.405
18372WAT     H255359   4.635   0.575   4.529
18373WAT      O55360   6.633   6.938   2.919
18373WAT     H155361   6.665   6.906   3.008
18373WAT     H255362   6.703   6.918   2.850
18374WAT      O55363   2.529   2.986   5.474
18374WAT     H155364   2.562   3.078   5.495
18374WAT     H255365   2.571   2.955   5.389
18375WAT      O55366   5.296   0.631   2.112
18375WAT     H155367   5.304   0.612   2.014
18375WAT     H255368   5.345   0.560   2.163
18376WAT      O55369   6.346   8.258   4.030
18376WAT     H155370   6.412   8.299   4.094
18376WAT     H255371   6.277   8.326   4.006
18377WAT      O55372   5.432   2.458   0.304
18377WAT     H155373   5.339   2.433   0.278
18377WAT     H255374   5.488   2.468   0.222
18378WAT      O55375   2.203   8.864   9.169
18378WAT     H155376   2.228   8.788   9.109
18378WAT     H255377   2.151   8.932   9.117
18379WAT      O55378   5.036   4.566   2.102
18379WAT     H155379   4.954   4.553   2.158
18379WAT     H255380   5.092   4.639   2.142
18380WAT      O55381   2.542   5.862   3.650
18380WAT     H155382   2.558   5.895   3.743
18380WAT     H255383   2.618   5.804   3.622
18381WAT      O55384   6.271   6.217   8.918
18381WAT     H155385   6.204   6.246   8.987
18381WAT     H255386   6.299   6.296   8.863
18382WAT      O55387   5.733   8.441   7.177
18382WAT     H155388   5.808   8.482   7.125
18382WAT     H255389   5.757   8.347   7.201
18383WAT      O55390   1.391   3.756   4.152
18383WAT     H155391   1.294   3.764   4.129
18383WAT     H255392   1.443   3.730   4.071
18384WAT      O55393   1.043   9.036   7.855
18384WAT     H155394   1.038   8.955   7.796
18384WAT     H255395   1.137   9.069   7.859
18385WAT      O55396   2.831   3.537   4.388
18385WAT     H155397   2.733   3.518   4.396
18385WAT     H255398   2.850   3.575   4.297
18386WAT      O55399   7.053   6.843   2.554
18386WAT     H155400   7.087   6.757   2.591
18386WAT     H255401   7.040   6.835   2.455
18387WAT      O55402   9.198   7.261   5.084
18387WAT     H155403   9.148   7.211   5.013
18387WAT     H255404   9.170   7.226   5.174
18388WAT      O55405   9.824   3.611   9.823
18388WAT     H155406   9.839   3.707   9.847
18388WAT     H255407   9.908   3.559   9.842
18389WAT      O55408   0.760   3.906   1.250
18389WAT     H155409   0.702   3.863   1.320
18389WAT     H255410   0.732   4.001   1.237
18390WAT      O55411   8.752   5.828   2.371
18390WAT     H155412   8.693   5.764   2.323
18390WAT     H255413   8.726   5.832   2.468
18391WAT      O55414   7.293   3.985   7.899
18391WAT     H155415   7.382   4.029   7.916
18391WAT     H255416   7.306   3.904   7.843
18392WAT      O55417   6.399   2.751   7.943
18392WAT     H155418   6.498   2.768   7.943
18392WAT     H255419   6.357   2.803   7.868
18393WAT      O55420   5.681   9.541   1.210
18393WAT     H155421   5.774   9.567   1.185
18393WAT     H255422   5.649   9.600   1.283
18394WAT      O55423   6.763   3.581   4.241
18394WAT     H155424   6.812   3.502   4.279
18394WAT     H255425   6.667   3.557   4.229
18395WAT      O55426   1.180   9.031   6.785
18395WAT     H155427   1.095   9.020   6.733
18395WAT     H255428   1.257   9.034   6.722
18396WAT      O55429   7.933   7.912   8.524
18396WAT     H155430   7.996   7.834   8.524
18396WAT     H255431   7.839   7.878   8.519
18397WAT      O55432   7.493   8.121   2.342
18397WAT     H155433   7.566   8.176   2.302
18397WAT     H255434   7.533   8.050   2.401
18398WAT      O55435   8.410   4.001   0.266
18398WAT     H155436   8.322   4.009   0.312
18398WAT     H255437   8.483   3.995   0.335
18399WAT      O55438   1.949   0.551   1.114
18399WAT     H155439   1.939   0.500   1.199
18399WAT     H255440   1.883   0.627   1.113
18400WAT      O55441   7.685   6.906   4.613
18400WAT     H155442   7.595   6.863   4.622
18400WAT     H255443   7.692   6.981   4.679
18401WAT      O55444   6.740   9.137   6.387
18401WAT     H155445   6.791   9.094   6.312
18401WAT     H255446   6.765   9.233   6.394
18402WAT      O55447   5.754   4.614   1.043
18402WAT     H155448   5.785   4.685   0.978
18402WAT     H255449   5.722   4.535   0.992
18403WAT      O55450   7.252   3.437   5.474
18403WAT     H155451   7.248   3.361   5.409
18403WAT     H255452   7.293   3.405   5.559
18404WAT      O55453   3.618   9.050   3.598
18404WAT     H155454   3.575   8.992   3.529
18404WAT     H255455   3.627   9.143   3.562
18405WAT      O55456   9.117   4.141   9.297
18405WAT     H155457   9.124   4.196   9.213
18405WAT     H255458   9.190   4.168   9.360
18406WAT      O55459   2.662   9.386   0.523
18406WAT     H155460   2.703   9.315   0.466
18406WAT     H255461   2.685   9.476   0.485
18407WAT      O55462   5.211   5.847   4.984
18407WAT     H155463   5.139   5.900   4.938
18407WAT     H255464   5.299   5.892   4.969
18408WAT      O55465   8.011   8.961   7.011
18408WAT     H155466   8.016   9.006   6.922
18408WAT     H255467   8.090   8.900   7.022
18409WAT      O55468   5.759   0.946   3.297
18409WAT     H155469   5.682   0.984   3.246
18409WAT     H255470   5.775   1.001   3.379
18410WAT      O55471   1.164   2.820   9.428
18410WAT     H155472   1.228   2.867   9.489
18410WAT     H255473   1.210   2.801   9.341
18411WAT      O55474   8.646   1.919   3.047
18411WAT     H155475   8.609   1.952   3.134
18411WAT     H255476   8.590   1.953   2.972
18412WAT      O55477   9.701   3.207   9.711
18412WAT     H155478   9.750   3.135   9.664
18412WAT     H255479   9.604   3.184   9.715
18413WAT      O55480   5.463   2.765   2.180
18413WAT     H155481   5.554   2.799   2.204
18413WAT     H255482   5.469   2.711   2.096
18414WAT      O55483   7.241   2.053   6.582
18414WAT     H155484   7.202   2.012   6.664
18414WAT     H255485   7.172   2.053   6.509
18415WAT      O55486   2.303   5.713   1.084
18415WAT     H155487   2.351   5.655   1.018
18415WAT     H255488   2.323   5.682   1.177
18416WAT      O55489   6.758   9.559   2.775
18416WAT     H155490   6.672   9.581   2.729
18416WAT     H255491   6.775   9.625   2.848
18417WAT      O55492   2.715   7.002   5.322
18417WAT     H155493   2.659   7.041   5.395
18417WAT     H255494   2.698   6.903   5.317
18418WAT      O55495   4.142   0.554   2.797
18418WAT     H155496   4.172   0.621   2.865
18418WAT     H255497   4.064   0.504   2.833
18419WAT      O55498   7.569   8.881   4.152
18419WAT     H155499   7.476   8.848   4.167
18419WAT     H255500   7.635   8.811   4.177
18420WAT      O55501   1.758   2.229   9.623
18420WAT     H155502   1.739   2.171   9.703
18420WAT     H255503   1.753   2.173   9.540
18421WAT      O55504   4.095   0.368   9.422
18421WAT     H155505   4.091   0.325   9.332
18421WAT     H255506   4.129   0.302   9.489
18422WAT      O55507   5.986   8.468   7.947
18422WAT     H155508   5.929   8.550   7.940
18422WAT     H255509   5.988   8.436   8.042
18423WAT      O55510   9.431   7.437   7.669
18423WAT     H155511   9.405   7.446   7.765
18423WAT     H255512   9.530   7.451   7.660
18424WAT      O55513   8.710   1.536   5.791
18424WAT     H155514   8.791   1.484   5.820
18424WAT     H255515   8.668   1.579   5.871
18425WAT      O55516   7.495   4.419   5.671
18425WAT     H155517   7.563   4.479   5.629
18425WAT     H255518   7.526   4.392   5.762
18426WAT      O55519   7.455   7.782   2.258
18426WAT     H155520   7.420   7.852   2.196
18426WAT     H255521   7.445   7.813   2.353
18427WAT      O55522   5.605   6.123   0.664
18427WAT     H155523   5.517   6.077   0.671
18427WAT     H255524   5.671   6.078   0.724
18428WAT      O55525   6.155   3.697   4.789
18428WAT     H155526   6.177   3.601   4.777
18428WAT     H255527   6.141   3.716   4.886
18429WAT      O55528   3.175   9.735   5.382
18429WAT     H155529   3.133   9.770   5.298
18429WAT     H255530   3.273   9.751   5.378
18430WAT      O55531   1.291   1.325   9.208
18430WAT     H155532   1.358   1.353   9.276
18430WAT     H255533   1.268   1.403   9.150
18431WAT      O55534   9.641   2.252   8.533
18431WAT     H155535   9.549   2.291   8.537
18431WAT     H255536   9.709   2.326   8.533
18432WAT      O55537   9.842   1.575   3.104
18432WAT     H155538   9.778   1.500   3.087
18432WAT     H255539   9.882   1.565   3.195
18433WAT      O55540   9.884   7.708   5.785
18433WAT     H155541   9.978   7.716   5.817
18433WAT     H255542   9.822   7.703   5.863
18434WAT      O55543   4.527   0.440   7.316
18434WAT     H155544   4.626   0.425   7.324
18434WAT     H255545   4.498   0.510   7.381
18435WAT      O55546   5.092   9.249   2.216
18435WAT     H155547   5.040   9.259   2.131
18435WAT     H255548   5.060   9.316   2.283
18436WAT      O55549   7.474   3.214   8.709
18436WAT     H155550   7.562   3.212   8.662
18436WAT     H255551   7.482   3.163   8.795
18437WAT      O55552   8.571   0.712   2.505
18437WAT     H155553   8.599   0.663   2.422
18437WAT     H255554   8.619   0.674   2.584
18438WAT      O55555   9.152   2.587   4.053
18438WAT     H155556   9.240   2.634   4.059
18438WAT     H255557   9.095   2.632   3.984
18439WAT      O55558   1.764   5.760   7.653
18439WAT     H155559   1.765   5.820   7.573
18439WAT     H255560   1.857   5.747   7.686
18440WAT      O55561   1.981   3.307   0.063
18440WAT     H155562   1.995   3.286   0.160
18440WAT     H255563   2.057   3.365   0.031
18441WAT      O55564   2.956   1.779   8.926
18441WAT     H155565   2.986   1.754   8.834
18441WAT     H255566   3.012   1.856   8.959
18442WAT      O55567   5.150   6.186   5.424
18442WAT     H155568   5.210   6.108   5.441
18442WAT     H255569   5.142   6.201   5.325
18443WAT      O55570   4.116   6.025   0.136
18443WAT     H155571   4.044   6.070   0.083
18443WAT     H255572   4.082   6.006   0.229
18444WAT      O55573   1.037   0.548   0.797
18444WAT     H155574   1.106   0.520   0.865
18444WAT     H255575   1.063   0.636   0.758
18445WAT      O55576   2.677   0.025   2.910
18445WAT     H155577   2.694  -0.066   2.873
18445WAT     H255578   2.637   0.083   2.839
18446WAT      O55579   1.528   5.964   8.845
18446WAT     H155580   1.468   6.043   8.861
18446WAT     H255581   1.579   5.944   8.928
18447WAT      O55582   5.078   0.407   2.460
18447WAT     H155583   5.048   0.495   2.424
18447WAT     H255584   5.113   0.418   2.553
18448WAT      O55585   3.635   0.728   4.767
18448WAT     H155586   3.651   0.802   4.702
18448WAT     H255587   3.568   0.756   4.836
18449WAT      O55588   5.765   1.369   0.612
18449WAT     H155589   5.780   1.346   0.709
18449WAT     H255590   5.672   1.401   0.600
18450WAT      O55591   6.807   9.500   4.086
18450WAT     H155592   6.770   9.566   4.152
18450WAT     H255593   6.760   9.512   3.998
18451WAT      O55594   4.750   9.432   4.486
18451WAT     H155595   4.843   9.452   4.518
18451WAT     H255596   4.685   9.454   4.558
18452WAT      O55597   2.895   5.875   8.424
18452WAT     H155598   2.945   5.868   8.511
18452WAT     H255599   2.797   5.859   8.441
18453WAT      O55600   7.722   6.166   1.845
18453WAT     H155601   7.785   6.219   1.789
18453WAT     H255602   7.773   6.108   1.908
18454WAT      O55603   6.163   1.609   2.352
18454WAT     H155604   6.236   1.570   2.408
18454WAT     H255605   6.098   1.658   2.411
18455WAT      O55606   4.017   0.447   7.714
18455WAT     H155607   3.947   0.439   7.643
18455WAT     H255608   4.089   0.509   7.684
18456WAT      O55609   4.450   7.785   7.657
18456WAT     H155610   4.426   7.710   7.595
18456WAT     H255611   4.480   7.864   7.604
18457WAT      O55612   2.170   0.222   2.782
18457WAT     H155613   2.125   0.132   2.780
18457WAT     H255614   2.263   0.213   2.746
18458WAT      O55615   7.746   7.155   3.177
18458WAT     H155616   7.783   7.099   3.103
18458WAT     H255617   7.737   7.250   3.146
18459WAT      O55618   4.031   8.584   0.816
18459WAT     H155619   4.083   8.534   0.885
18459WAT     H255620   4.089   8.604   0.738
18460WAT      O55621   4.924   7.348   6.878
18460WAT     H155622   4.862   7.331   6.955
18460WAT     H255623   5.015   7.371   6.913
18461WAT      O55624   3.437   8.853   4.004
18461WAT     H155625   3.423   8.952   4.006
18461WAT     H255626   3.500   8.830   3.930
18462WAT      O55627   3.501   1.845   6.167
18462WAT     H155628   3.404   1.820   6.172
18462WAT     H255629   3.549   1.805   6.245
18463WAT      O55630   7.475   6.641   0.717
18463WAT     H155631   7.560   6.692   0.704
18463WAT     H255632   7.449   6.597   0.632
18464WAT      O55633   2.555   3.921   0.133
18464WAT     H155634   2.593   3.840   0.177
18464WAT     H255635   2.487   3.962   0.194
18465WAT      O55636   8.008   2.263   8.647
18465WAT     H155637   8.028   2.218   8.560
18465WAT     H255638   8.056   2.216   8.721
18466WAT      O55639   5.675   2.003   3.384
18466WAT     H155640   5.752   1.942   3.371
18466WAT     H255641   5.636   1.990   3.476
18467WAT      O55642   9.337   9.222   1.438
18467WAT     H155643   9.383   9.174   1.363
18467WAT     H255644   9.357   9.176   1.525
18468WAT      O55645   9.252   7.461   5.947
18468WAT     H155646   9.271   7.480   6.043
18468WAT     H255647   9.303   7.526   5.890
18469WAT      O55648   1.498   3.871   2.414
18469WAT     H155649   1.464   3.946   2.470
18469WAT     H255650   1.430   3.798   2.410
18470WAT      O55651   6.610   9.809   0.124
18470WAT     H155652   6.550   9.789   0.201
18470WAT     H255653   6.621   9.727   0.068
18471WAT      O55654   2.278   3.630   7.395
18471WAT     H155655   2.208   3.639   7.325
18471WAT     H255656   2.364   3.668   7.362
18472WAT      O55657   9.175   8.337   8.741
18472WAT     H155658   9.219   8.391   8.668
18472WAT     H255659   9.246   8.295   8.797
18473WAT      O55660   6.561   1.770   2.206
18473WAT     H155661   6.566   1.836   2.280
18473WAT     H255662   6.652   1.730   2.190
18474WAT      O55663   3.955   3.612   8.787
18474WAT     H155664   3.980   3.528   8.836
18474WAT     H255665   3.948   3.593   8.690
18475WAT      O55666   7.010   9.060   7.024
18475WAT     H155667   7.085   9.002   7.057
18475WAT     H255668   6.923   9.014   7.043
18476WAT      O55669   1.527   9.631   2.797
18476WAT     H155670   1.623   9.658   2.788
18476WAT     H255671   1.473   9.676   2.727
18477WAT      O55672   7.991   0.158   7.418
18477WAT     H155673   8.058   0.085   7.412
18477WAT     H255674   8.020   0.225   7.487
18478WAT      O55675   5.338   1.022   8.442
18478WAT     H155676   5.323   0.924   8.431
18478WAT     H255677   5.330   1.046   8.539
18479WAT      O55678   2.789   4.793   8.877
18479WAT     H155679   2.776   4.783   8.975
18479WAT     H255680   2.702   4.817   8.834
18480WAT      O55681   7.011   7.079   3.083
18480WAT     H155682   7.094   7.129   3.109
18480WAT     H255683   6.982   7.107   2.991
18481WAT      O55684   5.484   6.927   0.394
18481WAT     H155685   5.482   6.855   0.325
18481WAT     H255686   5.549   6.903   0.465
18482WAT      O55687   8.250   0.122   0.719
18482WAT     H155688   8.335   0.109   0.668
18482WAT     H255689   8.179   0.063   0.681
18483WAT      O55690   7.461   3.663   2.103
18483WAT     H155691   7.479   3.722   2.024
18483WAT     H255692   7.375   3.690   2.146
18484WAT      O55693   6.090   6.593   5.220
18484WAT     H155694   6.116   6.673   5.166
18484WAT     H255695   5.992   6.598   5.242
18485WAT      O55696   8.481   4.837   5.040
18485WAT     H155697   8.437   4.926   5.056
18485WAT     H255698   8.420   4.764   5.070
18486WAT      O55699   8.355   1.212   1.147
18486WAT     H155700   8.400   1.257   1.224
18486WAT     H255701   8.377   1.261   1.062
18487WAT      O55702   6.786   0.373   8.541
18487WAT     H155703   6.762   0.276   8.534
18487WAT     H255704   6.794   0.398   8.638
18488WAT      O55705   4.510   0.952   8.571
18488WAT     H155706   4.593   0.963   8.516
18488WAT     H255707   4.443   0.900   8.518
18489WAT      O55708   3.769   6.992   6.699
18489WAT     H155709   3.787   6.960   6.792
18489WAT     H255710   3.851   6.981   6.643
18490WAT      O55711   8.696   5.319   3.786
18490WAT     H155712   8.688   5.394   3.720
18490WAT     H255713   8.763   5.344   3.856
18491WAT      O55714   2.644   2.722   4.458
18491WAT     H155715   2.737   2.755   4.474
18491WAT     H255716   2.642   2.666   4.375
18492WAT      O55717   1.763   7.147   1.589
18492WAT     H155718   1.718   7.164   1.677
18492WAT     H255719   1.720   7.204   1.518
18493WAT      O55720   8.937   2.341   3.674
18493WAT     H155721   9.031   2.333   3.707
18493WAT     H255722   8.918   2.437   3.650
18494WAT      O55723   2.606   1.203   8.370
18494WAT     H155724   2.549   1.143   8.312
18494WAT     H255725   2.701   1.171   8.368
18495WAT      O55726   8.919   5.859   6.771
18495WAT     H155727   8.857   5.883   6.696
18495WAT     H255728   8.957   5.942   6.811
18496WAT      O55729   2.886   8.342   7.861
18496WAT     H155730   2.958   8.404   7.892
18496WAT     H255731   2.925   8.251   7.845
18497WAT      O55732   7.643   3.173   7.659
18497WAT     H155733   7.731   3.217   7.677
18497WAT     H255734   7.593   3.226   7.591
18498WAT      O55735   2.046   8.732   1.936
18498WAT     H155736   2.060   8.772   2.027
18498WAT     H255737   1.976   8.784   1.887
18499WAT      O55738   6.458   3.745   1.843
18499WAT     H155739   6.458   3.836   1.885
18499WAT     H255740   6.381   3.738   1.779
18500WAT      O55741   3.322   3.812   8.629
18500WAT     H155742   3.230   3.797   8.664
18500WAT     H255743   3.362   3.725   8.603
18501WAT      O55744   1.148   6.092   9.262
18501WAT     H155745   1.079   6.020   9.256
18501WAT     H255746   1.181   6.099   9.356
18502WAT      O55747   0.133   6.450   8.514
18502WAT     H155748   0.078   6.396   8.450
18502WAT     H255749   0.223   6.408   8.524
18503WAT      O55750   0.645   0.744   4.553
18503WAT     H155751   0.723   0.738   4.616
18503WAT     H255752   0.562   0.761   4.605
18504WAT      O55753   8.811   7.238   3.664
18504WAT     H155754   8.832   7.182   3.583
18504WAT     H255755   8.836   7.187   3.747
18505WAT      O55756   0.076   8.343   5.811
18505WAT     H155757   0.100   8.249   5.836
18505WAT     H255758   0.139   8.407   5.856
18506WAT      O55759   7.045   4.192   0.704
18506WAT     H155760   6.990   4.180   0.621
18506WAT     H255761   7.022   4.280   0.746
18507WAT      O55762   0.242   6.083   9.307
18507WAT     H155763   0.238   5.986   9.282
18507WAT     H255764   0.155   6.126   9.284
18508WAT      O55765   5.807   0.068   3.843
18508WAT     H155766   5.884   0.068   3.905
18508WAT     H255767   5.721   0.071   3.895
18509WAT      O55768   9.588   8.121   4.927
18509WAT     H155769   9.575   8.215   4.958
18509WAT     H255770   9.513   8.095   4.866
18510WAT      O55771   8.847   1.838   6.315
18510WAT     H155772   8.798   1.833   6.228
18510WAT     H255773   8.938   1.876   6.300
18511WAT      O55774   7.807   1.904   2.224
18511WAT     H155775   7.724   1.960   2.231
18511WAT     H255776   7.785   1.818   2.179
18512WAT      O55777   9.595   9.234   0.864
18512WAT     H155778   9.670   9.215   0.927
18512WAT     H255779   9.627   9.295   0.791
18513WAT      O55780   2.788   2.901   4.136
18513WAT     H155781   2.700   2.936   4.166
18513WAT     H255782   2.860   2.965   4.160
18514WAT      O55783   6.727   2.397   8.803
18514WAT     H155784   6.803   2.408   8.868
18514WAT     H255785   6.707   2.299   8.792
18515WAT      O55786   9.116   7.381   7.984
18515WAT     H155787   9.072   7.338   7.905
18515WAT     H255788   9.078   7.342   8.068
18516WAT      O55789   3.464   6.011   6.956
18516WAT     H155790   3.381   6.047   6.913
18516WAT     H255791   3.457   6.022   7.055
18517WAT      O55792   8.655   5.779   0.001
18517WAT     H155793   8.656   5.875   0.032
18517WAT     H255794   8.660   5.719   0.081
18518WAT      O55795   5.949   8.815   4.351
18518WAT     H155796   5.935   8.724   4.389
18518WAT     H255797   5.904   8.883   4.410
18519WAT      O55798   6.677   7.996   9.755
18519WAT     H155799   6.679   8.054   9.836
18519WAT     H255800   6.760   7.940   9.752
18520WAT      O55801   0.300   1.498   4.211
18520WAT     H155802   0.333   1.552   4.289
18520WAT     H255803   0.375   1.488   4.145
18521WAT      O55804   7.048   7.574   7.892
18521WAT     H155805   7.064   7.499   7.828
18521WAT     H255806   7.118   7.573   7.963
18522WAT      O55807   1.073   5.638   8.214
18522WAT     H155808   1.057   5.595   8.125
18522WAT     H255809   1.080   5.737   8.202
18523WAT      O55810   3.449   6.696   2.437
18523WAT     H155811   3.444   6.601   2.468
18523WAT     H255812   3.544   6.719   2.415
18524WAT      O55813   8.847   7.292   1.789
18524WAT     H155814   8.810   7.385   1.792
18524WAT     H255815   8.934   7.292   1.739
18525WAT      O55816   7.367   5.185   5.962
18525WAT     H155817   7.310   5.267   5.969
18525WAT     H255818   7.339   5.119   6.033
18526WAT      O55819   9.228   5.699   8.915
18526WAT     H155820   9.131   5.698   8.942
18526WAT     H255821   9.250   5.613   8.867
18527WAT      O55822   4.043   9.236   9.819
18527WAT     H155823   3.946   9.230   9.841
18527WAT     H255824   4.087   9.149   9.840
18528WAT      O55825   9.357   6.775   5.136
18528WAT     H155826   9.409   6.733   5.061
18528WAT     H255827   9.262   6.787   5.107
18529WAT      O55828   1.984   4.349   8.468
18529WAT     H155829   2.057   4.417   8.459
18529WAT     H255830   1.923   4.355   8.389
18530WAT      O55831   9.330   0.450   1.167
18530WAT     H155832   9.343   0.370   1.225
18530WAT     H255833   9.271   0.516   1.214
18531WAT      O55834   2.625   5.204   4.802
18531WAT     H155835   2.718   5.235   4.784
18531WAT     H255836   2.613   5.112   4.765
18532WAT      O55837   3.185   0.669   0.859
18532WAT     H155838   3.154   0.622   0.941
18532WAT     H255839   3.231   0.754   0.885
18533WAT      O55840   2.429   0.831   6.798
18533WAT     H155841   2.426   0.831   6.698
18533WAT     H255842   2.374   0.907   6.833
18534WAT      O55843   8.882   4.392   6.302
18534WAT     H155844   8.952   4.427   6.241
18534WAT     H255845   8.859   4.462   6.370
18535WAT      O55846   1.534   7.249   3.212
18535WAT     H155847   1.631   7.272   3.206
18535WAT     H255848   1.486   7.288   3.133
18536WAT      O55849   9.265   7.726   4.453
18536WAT     H155850   9.165   7.730   4.449
18536WAT     H255851   9.296   7.636   4.421
18537WAT      O55852   8.601   5.252   6.571
18537WAT     H155853   8.554   5.196   6.639
18537WAT     H255854   8.548   5.336   6.555
18538WAT      O55855   2.228   2.680   3.103
18538WAT     H155856   2.247   2.597   3.051
18538WAT     H255857   2.300   2.747   3.084
18539WAT      O55858   1.723   5.711   1.990
18539WAT     H155859   1.639   5.741   2.034
18539WAT     H255860   1.801   5.755   2.034
18540WAT      O55861   7.244   6.465   5.561
18540WAT     H155862   7.310   6.416   5.618
18540WAT     H255863   7.173   6.402   5.531
18541WAT      O55864   1.089   8.961   4.317
18541WAT     H155865   1.138   9.032   4.368
18541WAT     H255866   1.050   9.001   4.234
18542WAT      O55867   3.953   7.178   9.407
18542WAT     H155868   4.015   7.191   9.485
18542WAT     H255869   3.919   7.083   9.407
18543WAT      O55870   3.923   4.688   4.300
18543WAT     H155871   3.972   4.652   4.380
18543WAT     H255872   3.928   4.622   4.225
18544WAT      O55873   8.235   3.692   9.513
18544WAT     H155874   8.316   3.646   9.548
18544WAT     H255875   8.196   3.750   9.585
18545WAT      O55876   0.900   6.905   5.256
18545WAT     H155877   0.887   6.868   5.348
18545WAT     H255878   0.835   6.861   5.193
18546WAT      O55879   3.373   0.811   1.456
18546WAT     H155880   3.403   0.867   1.533
18546WAT     H255881   3.430   0.729   1.450
18547WAT      O55882   3.151   2.364   5.283
18547WAT     H155883   3.227   2.364   5.218
18547WAT     H255884   3.085   2.433   5.256
18548WAT      O55885   7.320   3.936   8.576
18548WAT     H155886   7.407   3.899   8.608
18548WAT     H255887   7.288   3.883   8.497
18549WAT      O55888   0.322   4.452   8.895
18549WAT     H155889   0.334   4.519   8.968
18549WAT     H255890   0.410   4.429   8.855
18550WAT      O55891   4.105   1.300   6.439
18550WAT     H155892   4.022   1.342   6.402
18550WAT     H255893   4.168   1.279   6.365
18551WAT      O55894   6.165   1.630   2.884
18551WAT     H155895   6.175   1.570   2.964
18551WAT     H255896   6.254   1.647   2.844
18552WAT      O55897   2.784   7.143   7.154
18552WAT     H155898   2.774   7.044   7.143
18552WAT     H255899   2.814   7.183   7.067
18553WAT      O55900   5.301   3.134   7.024
18553WAT     H155901   5.348   3.198   7.085
18553WAT     H255902   5.331   3.149   6.930
18554WAT      O55903   7.297   9.690   4.378
18554WAT     H155904   7.342   9.671   4.290
18554WAT     H255905   7.364   9.684   4.452
18555WAT      O55906   2.132   7.143   3.886
18555WAT     H155907   2.195   7.065   3.884
18555WAT     H255908   2.065   7.134   3.813
18556WAT      O55909   2.314   6.015   5.420
18556WAT     H155910   2.388   5.993   5.483
18556WAT     H255911   2.350   6.072   5.346
18557WAT      O55912   4.175   4.314   7.640
18557WAT     H155913   4.248   4.382   7.650
18557WAT     H255914   4.087   4.361   7.635
18558WAT      O55915   0.394   7.448   8.935
18558WAT     H155916   0.413   7.383   8.862
18558WAT     H255917   0.298   7.441   8.963
18559WAT      O55918   5.791   4.983   7.190
18559WAT     H155919   5.832   5.071   7.165
18559WAT     H255920   5.737   4.995   7.273
18560WAT      O55921   4.877   6.286   4.150
18560WAT     H155922   4.894   6.369   4.202
18560WAT     H255923   4.786   6.250   4.173
18561WAT      O55924   3.795   9.750   4.528
18561WAT     H155925   3.743   9.665   4.517
18561WAT     H255926   3.799   9.775   4.625
18562WAT      O55927   1.651   0.927   5.581
18562WAT     H155928   1.556   0.948   5.605
18562WAT     H255929   1.698   0.891   5.662
18563WAT      O55930   9.001   3.581   0.118
18563WAT     H155931   8.986   3.531   0.033
18563WAT     H255932   9.098   3.605   0.126
18564WAT      O55933   6.278   5.920   7.793
18564WAT     H155934   6.254   5.882   7.883
18564WAT     H255935   6.344   5.859   7.749
18565WAT      O55936   2.012   6.294   0.010
18565WAT     H155937   2.011   6.355  -0.070
18565WAT     H255938   2.065   6.212  -0.012
18566WAT      O55939   5.054   6.065   3.701
18566WAT     H155940   5.024   6.108   3.785
18566WAT     H255941   5.142   6.020   3.716
18567WAT      O55942   9.080   0.378   2.250
18567WAT     H155943   9.147   0.328   2.197
18567WAT     H255944   9.122   0.413   2.334
18568WAT      O55945   4.220   4.510   3.514
18568WAT     H155946   4.291   4.526   3.445
18568WAT     H255947   4.263   4.494   3.603
18569WAT      O55948   7.113   2.839   6.608
18569WAT     H155949   7.039   2.902   6.634
18569WAT     H255950   7.101   2.752   6.656
18570WAT      O55951   8.928   4.277   9.551
18570WAT     H155952   8.997   4.318   9.610
18570WAT     H255953   8.913   4.182   9.578
18571WAT      O55954   3.535   1.585   1.325
18571WAT     H155955   3.496   1.673   1.351
18571WAT     H255956   3.462   1.520   1.307
18572WAT      O55957   5.514   0.148   1.957
18572WAT     H155958   5.531   0.235   2.003
18572WAT     H255959   5.562   0.146   1.870
18573WAT      O55960   3.320   2.831   5.771
18573WAT     H155961   3.235   2.779   5.773
18573WAT     H255962   3.396   2.769   5.791
18574WAT      O55963   1.139   5.372   1.216
18574WAT     H155964   1.068   5.307   1.190
18574WAT     H255965   1.113   5.419   1.300
18575WAT      O55966   8.525   4.033   0.881
18575WAT     H155967   8.503   3.964   0.812
18575WAT     H255968   8.517   3.993   0.972
18576WAT      O55969   9.170   9.318   5.341
18576WAT     H155970   9.115   9.234   5.335
18576WAT     H255971   9.176   9.347   5.436
18577WAT      O55972   5.539   6.679   8.325
18577WAT     H155973   5.580   6.595   8.362
18577WAT     H255974   5.466   6.655   8.261
18578WAT      O55975   0.840   5.166   7.170
18578WAT     H155976   0.903   5.206   7.237
18578WAT     H255977   0.883   5.165   7.080
18579WAT      O55978   9.399   2.610   9.253
18579WAT     H155979   9.458   2.565   9.186
18579WAT     H255980   9.417   2.572   9.344
18580WAT      O55981   9.773   2.602   2.005
18580WAT     H155982   9.699   2.555   1.958
18580WAT     H255983   9.737   2.650   2.086
18581WAT      O55984   1.319   1.144   7.538
18581WAT     H155985   1.397   1.122   7.597
18581WAT     H255986   1.309   1.243   7.531
18582WAT      O55987   6.565   4.602   1.328
18582WAT     H155988   6.525   4.678   1.379
18582WAT     H255989   6.493   4.558   1.273
18583WAT      O55990   3.075   2.671   9.489
18583WAT     H155991   3.112   2.653   9.398
18583WAT     H255992   3.040   2.586   9.529
18584WAT      O55993   2.140   7.949   6.025
18584WAT     H155994   2.162   8.031   6.079
18584WAT     H255995   2.215   7.883   6.032
18585WAT      O55996   3.474   0.614   7.242
18585WAT     H155997   3.558   0.562   7.256
18585WAT     H255998   3.446   0.607   7.146
18586WAT      O55999   6.753   3.249   0.575
18586WAT     H156000   6.761   3.209   0.666
18586WAT     H256001   6.809   3.197   0.511
18587WAT      O56002   3.647   7.960   6.255
18587WAT     H156003   3.567   7.998   6.303
18587WAT     H256004   3.694   7.896   6.315
18588WAT      O56005   1.562   8.066   2.578
18588WAT     H156006   1.606   8.140   2.628
18588WAT     H256007   1.478   8.100   2.535
18589WAT      O56008   9.434   6.668   2.008
18589WAT     H156009   9.343   6.626   2.009
18589WAT     H256010   9.434   6.749   2.066
18590WAT      O56011   0.040   3.778   7.544
18590WAT     H156012  -0.021   3.855   7.522
18590WAT     H256013   0.097   3.803   7.622
18591WAT      O56014   2.265   3.178   9.204
18591WAT     H156015   2.204   3.125   9.264
18591WAT     H256016   2.311   3.248   9.258
18592WAT      O56017   9.084   4.079   2.244
18592WAT     H156018   9.148   4.113   2.174
18592WAT     H256019   9.129   4.008   2.298
18593WAT      O56020   5.042   6.577   9.245
18593WAT     H156021   5.106   6.576   9.322
18593WAT     H256022   5.080   6.632   9.170
18594WAT      O56023   7.905   2.996   3.511
18594WAT     H156024   7.920   2.975   3.415
18594WAT     H256025   7.922   2.915   3.567
18595WAT      O56026   1.069   6.843   6.410
18595WAT     H156027   1.071   6.807   6.317
18595WAT     H256028   1.160   6.879   6.434
18596WAT      O56029   3.204   8.904   6.623
18596WAT     H156030   3.291   8.866   6.656
18596WAT     H256031   3.194   8.884   6.525
18597WAT      O56032   7.442   2.133   4.637
18597WAT     H156033   7.378   2.180   4.577
18597WAT     H256034   7.527   2.185   4.643
18598WAT      O56035   9.771   7.095   6.581
18598WAT     H156036   9.840   7.084   6.510
18598WAT     H256037   9.716   7.011   6.587
18599WAT      O56038   6.751   3.126   7.025
18599WAT     H156039   6.760   3.034   6.987
18599WAT     H256040   6.815   3.188   6.980
18600WAT      O56041   3.389   6.902   8.250
18600WAT     H156042   3.353   6.926   8.340
18600WAT     H256043   3.400   6.986   8.195
18601WAT      O56044   4.341   9.207   6.116
18601WAT     H156045   4.261   9.157   6.081
18601WAT     H256046   4.424   9.167   6.077
18602WAT      O56047   2.916   0.323   6.023
18602WAT     H156048   2.816   0.321   6.013
18602WAT     H256049   2.957   0.354   5.937
18603WAT      O56050   1.065   7.751   3.048
18603WAT     H156051   1.160   7.735   3.076
18603WAT     H256052   1.004   7.736   3.126
18604WAT      O56053   9.613   1.410   1.594
18604WAT     H156054   9.565   1.356   1.663
18604WAT     H256055   9.547   1.463   1.541
18605WAT      O56056   6.317   9.116   4.176
18605WAT     H156057   6.398   9.061   4.156
18605WAT     H256058   6.260   9.068   4.244
18606WAT      O56059   5.422   6.609   6.120
18606WAT     H156060   5.352   6.631   6.051
18606WAT     H256061   5.396   6.649   6.208
18607WAT      O56062   7.800   0.972   2.436
18607WAT     H156063   7.882   0.917   2.419
18607WAT     H256064   7.828   1.061   2.474
18608WAT      O56065   4.480   6.486   1.300
18608WAT     H156066   4.416   6.562   1.312
18608WAT     H256067   4.550   6.490   1.372
18609WAT      O56068   9.342   4.730   9.038
18609WAT     H156069   9.355   4.812   9.094
18609WAT     H256070   9.273   4.748   8.968
18610WAT      O56071   6.768   6.793   9.619
18610WAT     H156072   6.700   6.779   9.691
18610WAT     H256073   6.830   6.716   9.617
18611WAT      O56074   0.906   3.100   0.163
18611WAT     H156075   0.907   3.193   0.199
18611WAT     H256076   0.999   3.075   0.134
18612WAT      O56077   8.861   1.798   0.151
18612WAT     H156078   8.762   1.807   0.164
18612WAT     H256079   8.882   1.712   0.105
18613WAT      O56080   3.423   4.430   4.088
18613WAT     H156081   3.438   4.463   3.995
18613WAT     H256082   3.493   4.362   4.111
18614WAT      O56083   7.583   6.398   8.030
18614WAT     H156084   7.555   6.352   8.115
18614WAT     H256085   7.594   6.331   7.957
18615WAT      O56086   4.096   7.588   5.014
18615WAT     H156087   4.168   7.609   4.949
18615WAT     H256088   4.017   7.550   4.966
18616WAT      O56089   3.180   9.463   2.869
18616WAT     H156090   3.236   9.456   2.952
18616WAT     H256091   3.180   9.375   2.821
18617WAT      O56092   0.733   5.356   4.137
18617WAT     H156093   0.812   5.301   4.165
18617WAT     H256094   0.740   5.447   4.178
18618WAT      O56095   1.306   3.560   9.103
18618WAT     H156096   1.236   3.490   9.086
18618WAT     H256097   1.393   3.516   9.122
18619WAT      O56098   5.708   6.332   4.318
18619WAT     H156099   5.763   6.251   4.339
18619WAT     H256100   5.624   6.303   4.271
18620WAT      O56101   9.359   4.201   5.246
18620WAT     H156102   9.444   4.198   5.298
18620WAT     H256103   9.304   4.120   5.266
18621WAT      O56104   4.186   2.971   3.835
18621WAT     H156105   4.110   3.032   3.856
18621WAT     H256106   4.268   3.025   3.814
18622WAT      O56107   4.882   3.506   5.650
18622WAT     H156108   4.914   3.565   5.724
18622WAT     H256109   4.873   3.413   5.683
18623WAT      O56110   6.795   5.888   2.305
18623WAT     H156111   6.874   5.938   2.339
18623WAT     H256112   6.788   5.799   2.351
18624WAT      O56113   3.183   7.988   1.364
18624WAT     H156114   3.257   8.003   1.298
18624WAT     H256115   3.122   8.067   1.363
18625WAT      O56116   5.209   1.129   5.297
18625WAT     H156117   5.182   1.208   5.353
18625WAT     H256118   5.301   1.143   5.261
18626WAT      O56119   1.823   0.038   2.372
18626WAT     H156120   1.750  -0.003   2.317
18626WAT     H256121   1.855   0.122   2.326
18627WAT      O56122   5.418   5.336   3.597
18627WAT     H156123   5.347   5.344   3.666
18627WAT     H256124   5.464   5.247   3.607
18628WAT      O56125   8.477   3.752   5.653
18628WAT     H156126   8.441   3.787   5.567
18628WAT     H256127   8.412   3.773   5.727
18629WAT      O56128   7.522   6.979   3.950
18629WAT     H156129   7.507   7.076   3.931
18629WAT     H256130   7.439   6.927   3.931
18630WAT      O56131   9.017   9.286   5.972
18630WAT     H156132   9.008   9.293   5.872
18630WAT     H256133   8.927   9.276   6.013
18631WAT      O56134   8.046   4.730   3.155
18631WAT     H156135   7.972   4.720   3.089
18631WAT     H256136   8.016   4.788   3.231
18632WAT      O56137   9.425   5.216   6.341
18632WAT     H156138   9.390   5.168   6.421
18632WAT     H256139   9.513   5.258   6.364
18633WAT      O56140   6.534   2.752   4.882
18633WAT     H156141   6.501   2.666   4.920
18633WAT     H256142   6.519   2.752   4.783
18634WAT      O56143   2.984   3.837   5.750
18634WAT     H156144   2.892   3.834   5.788
18634WAT     H256145   2.981   3.876   5.658
18635WAT      O56146   8.186   3.020   0.220
18635WAT     H156147   8.115   3.030   0.289
18635WAT     H256148   8.205   3.108   0.178
18636WAT      O56149   0.121   5.565   5.136
18636WAT     H156150   0.041   5.519   5.098
18636WAT     H256151   0.157   5.510   5.212
18637WAT      O56152   2.715   0.384   5.101
18637WAT     H156153   2.669   0.451   5.042
18637WAT     H256154   2.680   0.293   5.082
18638WAT      O56155   5.537   9.006   3.684
18638WAT     H156156   5.474   9.076   3.651
18638WAT     H256157   5.522   8.990   3.781
18639WAT      O56158   5.343   2.512   3.071
18639WAT     H156159   5.438   2.480   3.072
18639WAT     H256160   5.315   2.530   2.977
18640WAT      O56161   8.758   9.027   0.522
18640WAT     H156162   8.662   9.021   0.495
18640WAT     H256163   8.805   8.941   0.499
18641WAT      O56164   4.999   7.696   6.312
18641WAT     H156165   4.904   7.694   6.281
18641WAT     H256166   5.046   7.775   6.272
18642WAT      O56167   3.616   4.971   5.278
18642WAT     H156168   3.701   5.019   5.257
18642WAT     H256169   3.595   4.907   5.203
18643WAT      O56170   7.515   8.355   6.171
18643WAT     H156171   7.537   8.370   6.074
18643WAT     H256172   7.518   8.257   6.191
18644WAT      O56173   5.672   2.960   1.600
18644WAT     H156174   5.605   2.888   1.580
18644WAT     H256175   5.726   2.978   1.518
18645WAT      O56176   8.907   5.588   7.055
18645WAT     H156177   8.844   5.554   6.985
18645WAT     H256178   8.991   5.533   7.053
18646WAT      O56179   3.082   3.758   1.746
18646WAT     H156180   2.993   3.796   1.722
18646WAT     H256181   3.153   3.801   1.689
18647WAT      O56182   3.350   4.630   9.457
18647WAT     H156183   3.423   4.695   9.435
18647WAT     H256184   3.297   4.609   9.375
18648WAT      O56185   7.782   0.285   9.438
18648WAT     H156186   7.726   0.342   9.498
18648WAT     H256187   7.744   0.284   9.346
18649WAT      O56188   7.558   0.587   9.146
18649WAT     H156189   7.485   0.552   9.088
18649WAT     H256190   7.520   0.651   9.213
18650WAT      O56191   8.631   5.462   6.834
18650WAT     H156192   8.685   5.397   6.887
18650WAT     H256193   8.559   5.413   6.785
18651WAT      O56194   5.593   1.293   2.295
18651WAT     H156195   5.641   1.380   2.305
18651WAT     H256196   5.659   1.218   2.301
18652WAT      O56197   0.375   5.964   0.593
18652WAT     H156198   0.288   5.938   0.634
18652WAT     H256199   0.409   5.888   0.537
18653WAT      O56200   3.555   8.934   2.993
18653WAT     H156201   3.574   8.974   2.903
18653WAT     H256202   3.563   9.004   3.064
18654WAT      O56203   0.203   2.005   0.016
18654WAT     H156204   0.143   2.074  -0.023
18654WAT     H256205   0.151   1.945   0.076
18655WAT      O56206   3.214   9.321   8.461
18655WAT     H156207   3.149   9.318   8.385
18655WAT     H256208   3.251   9.413   8.469
18656WAT      O56209   9.715   0.386   9.021
18656WAT     H156210   9.686   0.337   8.938
18656WAT     H256211   9.735   0.481   8.999
18657WAT      O56212   7.352   3.937   9.502
18657WAT     H156213   7.330   4.018   9.448
18657WAT     H256214   7.371   3.963   9.596
18658WAT      O56215   5.747   3.041   4.739
18658WAT     H156216   5.757   3.001   4.830
18658WAT     H256217   5.713   3.135   4.747
18659WAT      O56218   6.336   6.187   3.212
18659WAT     H156219   6.288   6.226   3.134
18659WAT     H256220   6.274   6.128   3.264
18660WAT      O56221   6.749   9.388   1.585
18660WAT     H156222   6.723   9.326   1.511
18660WAT     H256223   6.757   9.481   1.549
18661WAT      O56224   6.510   1.841   7.104
18661WAT     H156225   6.481   1.748   7.128
18661WAT     H256226   6.608   1.842   7.087
18662WAT      O56227   4.730   5.771   3.493
18662WAT     H156228   4.739   5.819   3.406
18662WAT     H256229   4.799   5.698   3.498
18663WAT      O56230   0.240   9.705   8.093
18663WAT     H156231   0.214   9.699   8.189
18663WAT     H256232   0.158   9.710   8.036
18664WAT      O56233   2.574   0.348   1.830
18664WAT     H156234   2.638   0.425   1.822
18664WAT     H256235   2.587   0.286   1.752
18665WAT      O56236   9.420   4.537   2.209
18665WAT     H156237   9.374   4.624   2.226
18665WAT     H256238   9.517   4.553   2.192
18666WAT      O56239   8.568   8.314   8.585
18666WAT     H156240   8.539   8.223   8.615
18666WAT     H256241   8.653   8.307   8.534
18667WAT      O56242   0.122   9.056   1.530
18667WAT     H156243   0.153   9.135   1.477
18667WAT     H256244   0.097   9.085   1.622
18668WAT      O56245   1.361   0.064   3.953
18668WAT     H156246   1.331   0.149   3.908
18668WAT     H256247   1.313  -0.014   3.913
18669WAT      O56248   6.414   9.753   2.436
18669WAT     H156249   6.321   9.744   2.400
18669WAT     H256250   6.480   9.735   2.364
18670WAT      O56251   9.817   2.168   1.255
18670WAT     H156252   9.749   2.240   1.267
18670WAT     H256253   9.892   2.203   1.198
18671WAT      O56254   4.579   9.097   9.131
18671WAT     H156255   4.672   9.062   9.121
18671WAT     H256256   4.583   9.194   9.155
18672WAT      O56257   1.745   7.443   3.324
18672WAT     H156258   1.707   7.513   3.264
18672WAT     H256259   1.844   7.456   3.331
18673WAT      O56260   0.517   3.429   0.090
18673WAT     H156261   0.573   3.382   0.021
18673WAT     H256262   0.562   3.425   0.178
18674WAT      O56263   2.110   8.436   1.476
18674WAT     H156264   2.013   8.449   1.497
18674WAT     H256265   2.120   8.370   1.402
18675WAT      O56266   1.381   8.890   7.453
18675WAT     H156267   1.299   8.947   7.450
18675WAT     H256268   1.422   8.886   7.361
18676WAT      O56269   0.038   3.294   0.563
18676WAT     H156270   0.095   3.376   0.563
18676WAT     H256271   0.015   3.270   0.658
18677WAT      O56272   8.898   6.285   8.933
18677WAT     H156273   8.991   6.276   8.968
18677WAT     H256274   8.852   6.361   8.979
18678WAT      O56275   7.151   9.455   8.439
18678WAT     H156276   7.161   9.550   8.468
18678WAT     H256277   7.100   9.451   8.353
18679WAT      O56278   5.348   3.960   2.959
18679WAT     H156279   5.340   3.888   2.889
18679WAT     H256280   5.351   4.049   2.914
18680WAT      O56281   6.233   5.144   4.181
18680WAT     H156282   6.331   5.124   4.182
18680WAT     H256283   6.201   5.154   4.276
18681WAT      O56284   4.991   5.608   4.267
18681WAT     H156285   5.030   5.533   4.321
18681WAT     H256286   5.039   5.693   4.288
18682WAT      O56287   2.625   0.653   7.952
18682WAT     H156288   2.669   0.572   7.914
18682WAT     H256289   2.541   0.627   7.999
18683WAT      O56290   2.043   7.335   5.171
18683WAT     H156291   2.136   7.370   5.173
18683WAT     H256292   2.045   7.235   5.172
18684WAT      O56293   1.582   0.761   6.107
18684WAT     H156294   1.592   0.683   6.046
18684WAT     H256295   1.592   0.846   6.054
18685WAT      O56296   7.935   2.083   4.680
18685WAT     H156297   7.859   2.116   4.736
18685WAT     H256298   8.011   2.057   4.740
18686WAT      O56299   6.525   6.542   7.137
18686WAT     H156300   6.484   6.453   7.158
18686WAT     H256301   6.582   6.572   7.214
18687WAT      O56302   2.580   9.782   5.140
18687WAT     H156303   2.674   9.770   5.171
18687WAT     H256304   2.526   9.701   5.164
18688WAT      O56305   0.017   0.718   0.861
18688WAT     H156306  -0.013   0.623   0.871
18688WAT     H256307   0.105   0.721   0.815
18689WAT      O56308   4.479   6.351   4.395
18689WAT     H156309   4.390   6.390   4.372
18689WAT     H256310   4.485   6.335   4.494
18690WAT      O56311   8.666   8.240   9.259
18690WAT     H156312   8.710   8.329   9.275
18690WAT     H256313   8.717   8.189   9.189
18691WAT      O56314   6.890   4.064   2.349
18691WAT     H156315   6.844   4.075   2.437
18691WAT     H256316   6.934   4.150   2.323
18692WAT      O56317   5.072   9.434   1.330
18692WAT     H156318   4.981   9.427   1.291
18692WAT     H256319   5.073   9.507   1.399
18693WAT      O56320   9.778   1.427   7.933
18693WAT     H156321   9.877   1.426   7.944
18693WAT     H256322   9.748   1.520   7.910
18694WAT      O56323   3.797   8.044   8.171
18694WAT     H156324   3.889   8.077   8.192
18694WAT     H256325   3.741   8.121   8.140
18695WAT      O56326   2.342   0.580   4.107
18695WAT     H156327   2.284   0.587   4.188
18695WAT     H256328   2.386   0.491   4.106
18696WAT      O56329   3.711   0.082   2.649
18696WAT     H156330   3.745   0.111   2.559
18696WAT     H256331   3.780   0.025   2.693
18697WAT      O56332   9.868   3.569   1.017
18697WAT     H156333   9.801   3.506   1.057
18697WAT     H256334   9.873   3.652   1.073
18698WAT      O56335   5.428   2.741   6.054
18698WAT     H156336   5.399   2.835   6.036
18698WAT     H256337   5.356   2.678   6.026
18699WAT      O56338   9.626   6.095   1.176
18699WAT     H156339   9.626   6.014   1.234
18699WAT     H256340   9.718   6.112   1.141
18700WAT      O56341   1.354   2.320   0.053
18700WAT     H156342   1.284   2.304  -0.016
18700WAT     H256343   1.429   2.373   0.013
18701WAT      O56344   1.256   5.195   4.365
18701WAT     H156345   1.292   5.237   4.448
18701WAT     H256346   1.332   5.170   4.305
18702WAT      O56347   2.847   5.718   0.052
18702WAT     H156348   2.839   5.621   0.071
18702WAT     H256349   2.895   5.731  -0.035
18703WAT      O56350   1.705   7.706   1.822
18703WAT     H156351   1.707   7.614   1.784
18703WAT     H256352   1.785   7.757   1.791
18704WAT      O56353   2.422   3.512   0.084
18704WAT     H156354   2.432   3.512   0.183
18704WAT     H256355   2.488   3.449   0.043
18705WAT      O56356   2.953   5.995   0.892
18705WAT     H156357   3.041   6.016   0.851
18705WAT     H256358   2.883   6.057   0.855
18706WAT      O56359   7.553   8.837   8.882
18706WAT     H156360   7.528   8.763   8.820
18706WAT     H256361   7.497   8.832   8.965
18707WAT      O56362   9.861   5.509   0.327
18707WAT     H156363   9.896   5.602   0.339
18707WAT     H256364   9.913   5.462   0.256
18708WAT      O56365   0.366   2.859   7.338
18708WAT     H156366   0.287   2.855   7.399
18708WAT     H256367   0.447   2.885   7.390
18709WAT      O56368   6.251   7.865   9.126
18709WAT     H156369   6.305   7.788   9.092
18709WAT     H256370   6.219   7.846   9.219
18710WAT      O56371   9.390   6.162   0.083
18710WAT     H156372   9.441   6.104   0.147
18710WAT     H256373   9.381   6.254   0.121
18711WAT      O56374   0.815   4.279   2.186
18711WAT     H156375   0.907   4.318   2.187
18711WAT     H256376   0.748   4.353   2.178
18712WAT      O56377   5.047   8.488   3.464
18712WAT     H156378   5.064   8.394   3.434
18712WAT     H256379   4.966   8.490   3.523
18713WAT      O56380   4.469   5.824   8.460
18713WAT     H156381   4.430   5.898   8.405
18713WAT     H256382   4.401   5.791   8.526
18714WAT      O56383   1.841   4.916   2.780
18714WAT     H156384   1.807   4.822   2.789
18714WAT     H256385   1.840   4.960   2.870
18715WAT      O56386   5.183   5.166   4.237
18715WAT     H156387   5.187   5.104   4.315
18715WAT     H256388   5.188   5.114   4.152
18716WAT      O56389   8.870   9.119   9.172
18716WAT     H156390   8.889   9.022   9.191
18716WAT     H256391   8.783   9.145   9.214
18717WAT      O56392   2.562   0.641   4.329
18717WAT     H156393   2.579   0.542   4.321
18717WAT     H256394   2.594   0.673   4.418
18718WAT      O56395   6.705   4.815   4.403
18718WAT     H156396   6.684   4.755   4.479
18718WAT     H256397   6.699   4.910   4.433
18719WAT      O56398   9.523   8.315   0.629
18719WAT     H156399   9.547   8.232   0.680
18719WAT     H256400   9.517   8.392   0.692
18720WAT      O56401   2.235   7.718   0.969
18720WAT     H156402   2.247   7.774   1.051
18720WAT     H256403   2.291   7.756   0.895
18721WAT      O56404   6.641   9.274   4.153
18721WAT     H156405   6.702   9.260   4.075
18721WAT     H256406   6.665   9.360   4.199
18722WAT      O56407   7.692   2.166   5.280
18722WAT     H156408   7.658   2.240   5.223
18722WAT     H256409   7.764   2.201   5.340
18723WAT      O56410   8.673   8.179   6.244
18723WAT     H156411   8.613   8.171   6.324
18723WAT     H256412   8.754   8.121   6.257
18724WAT      O56413   1.872   8.244   7.378
18724WAT     H156414   1.859   8.232   7.280
18724WAT     H256415   1.880   8.154   7.422
18725WAT      O56416   2.821   7.112   8.334
18725WAT     H156417   2.807   7.199   8.287
18725WAT     H256418   2.799   7.037   8.272
18726WAT      O56419   0.580   6.278   3.811
18726WAT     H156420   0.500   6.332   3.838
18726WAT     H256421   0.660   6.337   3.807
18727WAT      O56422   7.159   1.996   4.224
18727WAT     H156423   7.177   1.934   4.147
18727WAT     H256424   7.099   2.070   4.194
18728WAT      O56425   4.371   6.834   3.508
18728WAT     H156426   4.301   6.900   3.478
18728WAT     H256427   4.373   6.757   3.444
18729WAT      O56428   2.922   5.317   0.776
18729WAT     H156429   2.834   5.269   0.775
18729WAT     H256430   2.957   5.319   0.870
18730WAT      O56431   2.635   3.933   8.020
18730WAT     H156432   2.567   3.859   8.013
18730WAT     H256433   2.709   3.916   7.956
18731WAT      O56434   0.356   2.483   3.517
18731WAT     H156435   0.261   2.512   3.519
18731WAT     H256436   0.363   2.391   3.479
18732WAT      O56437   4.489   8.218   9.629
18732WAT     H156438   4.544   8.135   9.634
18732WAT     H256439   4.397   8.200   9.663
18733WAT      O56440   3.102   0.308   6.512
18733WAT     H156441   3.137   0.230   6.564
18733WAT     H256442   3.014   0.336   6.548
18734WAT      O56443   6.857   8.315   4.006
18734WAT     H156444   6.904   8.368   3.936
18734WAT     H256445   6.775   8.273   3.967
18735WAT      O56446   9.424   6.972   7.990
18735WAT     H156447   9.517   6.952   7.960
18735WAT     H256448   9.367   6.993   7.911
18736WAT      O56449   1.046   3.751   0.074
18736WAT     H156450   1.101   3.745   0.157
18736WAT     H256451   1.080   3.825   0.016
18737WAT      O56452   6.386   9.132   4.868
18737WAT     H156453   6.409   9.070   4.793
18737WAT     H256454   6.412   9.091   4.955
18738WAT      O56455   3.194   9.390   1.710
18738WAT     H156456   3.096   9.386   1.696
18738WAT     H256457   3.222   9.322   1.778
18739WAT      O56458   3.430   5.382   0.760
18739WAT     H156459   3.427   5.478   0.731
18739WAT     H256460   3.523   5.359   0.788
18740WAT      O56461   5.481   8.278   6.498
18740WAT     H156462   5.419   8.273   6.420
18740WAT     H256463   5.569   8.316   6.468
18741WAT      O56464   7.466   7.932   3.632
18741WAT     H156465   7.534   7.902   3.565
18741WAT     H256466   7.497   8.016   3.676
18742WAT      O56467   9.298   7.863   0.889
18742WAT     H156468   9.299   7.946   0.945
18742WAT     H256469   9.375   7.805   0.916
18743WAT      O56470   7.527   3.603   1.108
18743WAT     H156471   7.544   3.643   1.198
18743WAT     H256472   7.466   3.663   1.056
18744WAT      O56473   0.806   2.740   9.263
18744WAT     H156474   0.862   2.657   9.257
18744WAT     H256475   0.772   2.764   9.172
18745WAT      O56476   5.223   7.157   8.943
18745WAT     H156477   5.150   7.146   9.010
18745WAT     H256478   5.311   7.137   8.987
18746WAT      O56479   6.527   2.676   5.528
18746WAT     H156480   6.518   2.605   5.597
18746WAT     H256481   6.603   2.736   5.551
18747WAT      O56482   6.099   8.884   4.802
18747WAT     H156483   6.173   8.927   4.750
18747WAT     H256484   6.011   8.903   4.759
18748WAT      O56485   7.528   9.635   6.699
18748WAT     H156486   7.621   9.623   6.663
18748WAT     H256487   7.531   9.702   6.774
18749WAT      O56488   0.275   8.195   9.557
18749WAT     H156489   0.374   8.191   9.565
18749WAT     H256490   0.249   8.198   9.460
18750WAT      O56491   7.341   7.420   4.875
18750WAT     H156492   7.264   7.401   4.935
18750WAT     H256493   7.425   7.385   4.917
18751WAT      O56494   0.823   0.507   7.555
18751WAT     H156495   0.894   0.522   7.487
18751WAT     H256496   0.761   0.435   7.523
18752WAT      O56497   5.524   1.267   1.321
18752WAT     H156498   5.551   1.317   1.403
18752WAT     H256499   5.604   1.251   1.263
18753WAT      O56500   1.401   2.071   6.528
18753WAT     H156501   1.314   2.024   6.546
18753WAT     H256502   1.385   2.169   6.527
18754WAT      O56503   6.092   0.892   8.747
18754WAT     H156504   6.012   0.924   8.697
18754WAT     H256505   6.075   0.800   8.782
18755WAT      O56506   4.517   3.313   0.080
18755WAT     H156507   4.567   3.322   0.166
18755WAT     H256508   4.535   3.392   0.022
18756WAT      O56509   8.833   5.299   6.991
18756WAT     H156510   8.882   5.354   7.059
18756WAT     H256511   8.836   5.203   7.019
18757WAT      O56512   6.767   9.593   6.746
18757WAT     H156513   6.682   9.637   6.773
18757WAT     H256514   6.818   9.653   6.684
18758WAT      O56515   0.194   7.026   1.842
18758WAT     H156516   0.174   6.933   1.872
18758WAT     H256517   0.289   7.049   1.865
18759WAT      O56518   8.715   7.144   9.558
18759WAT     H156519   8.662   7.229   9.562
18759WAT     H256520   8.791   7.149   9.623
18760WAT      O56521   3.661   9.234   0.958
18760WAT     H156522   3.727   9.304   0.984
18760WAT     H256523   3.710   9.150   0.933
18761WAT      O56524   5.018   5.974   4.133
18761WAT     H156525   4.932   5.937   4.167
18761WAT     H256526   5.001   6.035   4.057
18762WAT      O56527   2.279   7.695   3.009
18762WAT     H156528   2.203   7.747   2.969
18762WAT     H256529   2.323   7.751   3.079
18763WAT      O56530   4.791   6.383   0.469
18763WAT     H156531   4.785   6.290   0.433
18763WAT     H256532   4.755   6.385   0.562
18764WAT      O56533   4.623   4.785   2.311
18764WAT     H156534   4.671   4.866   2.276
18764WAT     H256535   4.533   4.779   2.269
18765WAT      O56536   7.251   6.969   2.127
18765WAT     H156537   7.255   7.008   2.035
18765WAT     H256538   7.328   7.004   2.181
18766WAT      O56539   7.134   4.988   3.514
18766WAT     H156540   7.205   5.052   3.486
18766WAT     H256541   7.066   4.979   3.441
18767WAT      O56542   0.879   2.989   7.867
18767WAT     H156543   0.837   2.898   7.863
18767WAT     H256544   0.808   3.058   7.881
18768WAT      O56545   4.854   0.842   1.695
18768WAT     H156546   4.917   0.913   1.665
18768WAT     H256547   4.830   0.857   1.791
18769WAT      O56548   9.271   8.179   5.103
18769WAT     H156549   9.325   8.096   5.088
18769WAT     H256550   9.180   8.154   5.135
18770WAT      O56551   8.391   4.709   2.637
18770WAT     H156552   8.436   4.773   2.575
18770WAT     H256553   8.425   4.724   2.730
18771WAT      O56554   8.754   3.357   4.738
18771WAT     H156555   8.727   3.286   4.672
18771WAT     H256556   8.799   3.314   4.816
18772WAT      O56557   3.955   2.827   3.504
18772WAT     H156558   3.940   2.825   3.603
18772WAT     H256559   3.867   2.822   3.457
18773WAT      O56560   5.600   7.930   5.979
18773WAT     H156561   5.614   7.831   5.970
18773WAT     H256562   5.604   7.955   6.075
18774WAT      O56563   9.489   7.214   3.718
18774WAT     H156564   9.466   7.278   3.645
18774WAT     H256565   9.427   7.136   3.714
18775WAT      O56566   4.095   9.360   3.001
18775WAT     H156567   4.155   9.299   2.950
18775WAT     H256568   4.000   9.333   2.986
18776WAT      O56569   8.880   4.696   4.174
18776WAT     H156570   8.872   4.660   4.267
18776WAT     H256571   8.904   4.621   4.112
18777WAT      O56572   4.578   7.950   4.897
18777WAT     H156573   4.571   7.853   4.874
18777WAT     H256574   4.488   7.992   4.891
18778WAT      O56575   2.760   5.708   1.483
18778WAT     H156576   2.803   5.692   1.394
18778WAT     H256577   2.690   5.638   1.499
18779WAT      O56578   6.821   7.553   8.500
18779WAT     H156579   6.741   7.503   8.534
18779WAT     H256580   6.820   7.553   8.400
18780WAT      O56581   4.813   7.905   6.136
18780WAT     H156582   4.749   7.846   6.186
18780WAT     H256583   4.878   7.946   6.200
18781WAT      O56584   1.364   2.543   3.011
18781WAT     H156585   1.364   2.445   2.990
18781WAT     H256586   1.441   2.564   3.071
18782WAT      O56587   2.643   4.953   5.629
18782WAT     H156588   2.609   4.966   5.536
18782WAT     H256589   2.598   5.019   5.690
18783WAT      O56590   2.938   4.124   9.510
18783WAT     H156591   2.927   4.173   9.596
18783WAT     H256592   3.035   4.123   9.485
18784WAT      O56593   4.759   9.152   8.616
18784WAT     H156594   4.785   9.228   8.676
18784WAT     H256595   4.839   9.093   8.600
18785WAT      O56596   2.941   4.694   4.968
18785WAT     H156597   2.844   4.719   4.978
18785WAT     H256598   2.948   4.612   4.911
18786WAT      O56599   4.867   8.492   3.659
18786WAT     H156600   4.911   8.419   3.711
18786WAT     H256601   4.864   8.575   3.714
18787WAT      O56602   7.178   0.828   5.554
18787WAT     H156603   7.202   0.863   5.464
18787WAT     H256604   7.115   0.751   5.545
18788WAT      O56605   4.211   5.833   3.444
18788WAT     H156606   4.288   5.855   3.505
18788WAT     H256607   4.224   5.880   3.356
18789WAT      O56608   7.280   8.355   2.193
18789WAT     H156609   7.228   8.307   2.264
18789WAT     H256610   7.217   8.401   2.131
18790WAT      O56611   5.420   7.966   6.374
18790WAT     H156612   5.516   7.957   6.349
18790WAT     H256613   5.390   8.061   6.359
18791WAT      O56614   3.732   2.400   4.421
18791WAT     H156615   3.734   2.330   4.493
18791WAT     H256616   3.731   2.356   4.331
18792WAT      O56617   0.319   5.948   3.700
18792WAT     H156618   0.343   5.879   3.631
18792WAT     H256619   0.274   5.903   3.777
18793WAT      O56620   3.849   5.624   1.870
18793WAT     H156621   3.928   5.581   1.826
18793WAT     H256622   3.798   5.677   1.802
18794WAT      O56623   9.056   4.969   0.042
18794WAT     H156624   9.098   5.052   0.005
18794WAT     H256625   9.060   4.971   0.142
18795WAT      O56626   5.734   5.972   6.663
18795WAT     H156627   5.800   5.909   6.623
18795WAT     H256628   5.697   6.031   6.592
18796WAT      O56629   2.914   2.375   8.030
18796WAT     H156630   3.001   2.380   7.982
18796WAT     H256631   2.865   2.292   8.003
18797WAT      O56632   2.353   7.962   4.782
18797WAT     H156633   2.281   7.932   4.845
18797WAT     H256634   2.363   8.062   4.788
18798WAT      O56635   1.257   6.740   4.211
18798WAT     H156636   1.164   6.748   4.248
18798WAT     H256637   1.313   6.816   4.245
18799WAT      O56638   1.416   5.966   3.395
18799WAT     H156639   1.482   6.040   3.387
18799WAT     H256640   1.430   5.900   3.321
18800WAT      O56641   8.700   4.355   3.551
18800WAT     H156642   8.683   4.261   3.520
18800WAT     H256643   8.626   4.383   3.612
18801WAT      O56644   0.968   8.047   2.297
18801WAT     H156645   0.929   8.026   2.207
18801WAT     H256646   0.986   7.961   2.346
18802WAT      O56647   1.023   0.065   9.206
18802WAT     H156648   1.040   0.093   9.301
18802WAT     H256649   0.940   0.009   9.203
18803WAT      O56650   7.489   4.671   2.750
18803WAT     H156651   7.469   4.662   2.652
18803WAT     H256652   7.512   4.582   2.788
18804WAT      O56653   8.382   2.708   9.065
18804WAT     H156654   8.439   2.685   8.986
18804WAT     H256655   8.322   2.785   9.042
18805WAT      O56656   8.851   4.866   5.134
18805WAT     H156657   8.785   4.811   5.185
18805WAT     H256658   8.858   4.957   5.175
18806WAT      O56659   3.260   6.374   1.775
18806WAT     H156660   3.205   6.313   1.832
18806WAT     H256661   3.208   6.400   1.694
18807WAT      O56662   5.062   2.661   6.145
18807WAT     H156663   4.977   2.633   6.191
18807WAT     H256664   5.040   2.694   6.053
18808WAT      O56665   8.757   4.651   0.413
18808WAT     H156666   8.790   4.596   0.336
18808WAT     H256667   8.728   4.591   0.487
18809WAT      O56668   5.231   0.550   4.638
18809WAT     H156669   5.163   0.531   4.567
18809WAT     H256670   5.312   0.590   4.597
18810WAT      O56671   9.176   8.755   2.463
18810WAT     H156672   9.100   8.769   2.526
18810WAT     H256673   9.149   8.691   2.391
18811WAT      O56674   9.376   8.596   2.577
18811WAT     H156675   9.307   8.661   2.545
18811WAT     H256676   9.442   8.578   2.504
18812WAT      O56677   1.756   7.622   2.829
18812WAT     H156678   1.731   7.642   2.923
18812WAT     H256679   1.786   7.706   2.784
18813WAT      O56680   6.958   2.680   4.518
18813WAT     H156681   7.045   2.683   4.469
18813WAT     H256682   6.975   2.679   4.616
18814WAT      O56683   2.007   5.445   3.754
18814WAT     H156684   2.009   5.345   3.751
18814WAT     H256685   1.975   5.474   3.844
18815WAT      O56686   6.854   4.486   2.296
18815WAT     H156687   6.874   4.524   2.206
18815WAT     H256688   6.775   4.424   2.289
18816WAT      O56689   6.445   2.017   8.608
18816WAT     H156690   6.491   1.968   8.535
18816WAT     H256691   6.447   1.962   8.692
18817WAT      O56692   0.189   4.954   5.097
18817WAT     H156693   0.138   4.889   5.040
18817WAT     H256694   0.150   4.956   5.189
18818WAT      O56695   0.661   4.987   9.671
18818WAT     H156696   0.575   4.943   9.699
18818WAT     H256697   0.729   4.916   9.649
18819WAT      O56698   0.142   5.870   2.187
18819WAT     H156699   0.084   5.858   2.268
18819WAT     H256700   0.170   5.780   2.153
18820WAT      O56701   8.226   7.761   5.256
18820WAT     H156702   8.220   7.669   5.218
18820WAT     H256703   8.308   7.768   5.313
18821WAT      O56704   2.534   2.617   1.872
18821WAT     H156705   2.481   2.539   1.839
18821WAT     H256706   2.540   2.613   1.972
18822WAT      O56707   9.425   1.723   8.619
18822WAT     H156708   9.328   1.736   8.636
18822WAT     H256709   9.471   1.812   8.621
18823WAT      O56710   2.627   6.732   2.714
18823WAT     H156711   2.632   6.763   2.809
18823WAT     H256712   2.647   6.808   2.652
18824WAT      O56713   5.518   8.705   1.787
18824WAT     H156714   5.609   8.664   1.774
18824WAT     H256715   5.491   8.697   1.882
18825WAT      O56716   5.573   2.261   8.992
18825WAT     H156717   5.655   2.257   9.049
18825WAT     H256718   5.568   2.180   8.934
18826WAT      O56719   5.487   2.552   8.907
18826WAT     H156720   5.584   2.573   8.909
18826WAT     H256721   5.474   2.452   8.910
18827WAT      O56722   6.225   3.594   3.521
18827WAT     H156723   6.304   3.655   3.528
18827WAT     H256724   6.187   3.578   3.613
18828WAT      O56725   4.535   9.066   5.984
18828WAT     H156726   4.569   8.996   6.047
18828WAT     H256727   4.513   9.023   5.896
18829WAT      O56728   7.243   0.345   7.827
18829WAT     H156729   7.332   0.366   7.866
18829WAT     H256730   7.248   0.354   7.727
18830WAT      O56731   8.354   7.683   9.209
18830WAT     H156732   8.417   7.706   9.135
18830WAT     H256733   8.261   7.679   9.173
18831WAT      O56734   2.966   3.969   4.396
18831WAT     H156735   3.045   3.933   4.346
18831WAT     H256736   2.989   3.974   4.493
18832WAT      O56737   2.060   1.530   6.714
18832WAT     H156738   2.020   1.439   6.724
18832WAT     H256739   2.127   1.545   6.787
18833WAT      O56740   3.220   7.896   9.063
18833WAT     H156741   3.150   7.957   9.102
18833WAT     H256742   3.255   7.836   9.134
18834WAT      O56743   0.346   9.728   0.571
18834WAT     H156744   0.397   9.719   0.657
18834WAT     H256745   0.391   9.675   0.500
18835WAT      O56746   0.053   4.169   6.207
18835WAT     H156747   0.030   4.266   6.220
18835WAT     H256748  -0.024   4.113   6.237
18836WAT      O56749   5.984   0.251   6.649
18836WAT     H156750   5.936   0.166   6.628
18836WAT     H256751   5.918   0.325   6.659
18837WAT      O56752   5.009   6.754   3.483
18837WAT     H156753   4.916   6.719   3.495
18837WAT     H256754   5.007   6.853   3.469
18838WAT      O56755   9.666   0.240   5.822
18838WAT     H156756   9.593   0.235   5.890
18838WAT     H256757   9.692   0.335   5.807
18839WAT      O56758   4.134   9.792   7.952
18839WAT     H156759   4.052   9.805   7.897
18839WAT     H256760   4.166   9.698   7.942
18840WAT      O56761   3.158   2.278   5.534
18840WAT     H156762   3.164   2.307   5.439
18840WAT     H256763   3.216   2.336   5.591
18841WAT      O56764   9.587   4.959   0.858
18841WAT     H156765   9.635   4.896   0.919
18841WAT     H256766   9.572   5.046   0.905
18842WAT      O56767   5.446   8.108   5.576
18842WAT     H156768   5.494   8.194   5.561
18842WAT     H256769   5.404   8.108   5.667
18843WAT      O56770   1.918   7.545   6.996
18843WAT     H156771   1.898   7.610   7.069
18843WAT     H256772   1.976   7.471   7.032
18844WAT      O56773   3.809   8.159   2.389
18844WAT     H156774   3.745   8.216   2.440
18844WAT     H256775   3.794   8.063   2.414
18845WAT      O56776   6.752   1.881   5.313
18845WAT     H156777   6.699   1.798   5.327
18845WAT     H256778   6.765   1.928   5.400
18846WAT      O56779   7.301   9.116   7.661
18846WAT     H156780   7.209   9.077   7.654
18846WAT     H256781   7.311   9.191   7.596
18847WAT      O56782   2.381   0.057   9.550
18847WAT     H156783   2.344  -0.019   9.603
18847WAT     H256784   2.307   0.109   9.509
18848WAT      O56785   1.493   3.783   0.633
18848WAT     H156786   1.452   3.870   0.660
18848WAT     H256787   1.524   3.788   0.538
18849WAT      O56788   0.258   2.264   7.182
18849WAT     H156789   0.299   2.345   7.226
18849WAT     H256790   0.294   2.256   7.089
18850WAT      O56791   7.596   0.823   8.651
18850WAT     H156792   7.623   0.903   8.597
18850WAT     H256793   7.609   0.843   8.748
18851WAT      O56794   4.280   5.731   6.915
18851WAT     H156795   4.279   5.763   7.010
18851WAT     H256796   4.368   5.687   6.896
18852WAT      O56797   1.655   9.543   6.303
18852WAT     H156798   1.657   9.481   6.225
18852WAT     H256799   1.748   9.557   6.337
18853WAT      O56800   2.815   4.612   9.675
18853WAT     H156801   2.901   4.627   9.726
18853WAT     H256802   2.763   4.697   9.673
18854WAT      O56803   6.467   7.204   0.473
18854WAT     H156804   6.551   7.172   0.429
18854WAT     H256805   6.446   7.297   0.442
18855WAT      O56806   6.644   4.040   7.556
18855WAT     H156807   6.669   3.961   7.500
18855WAT     H256808   6.726   4.080   7.595
18856WAT      O56809   1.592   7.288   7.863
18856WAT     H156810   1.623   7.292   7.958
18856WAT     H256811   1.648   7.223   7.812
18857WAT      O56812   1.092   2.561   7.923
18857WAT     H156813   1.096   2.518   8.014
18857WAT     H256814   1.012   2.620   7.917
18858WAT      O56815   0.176   1.881   7.600
18858WAT     H156816   0.119   1.958   7.630
18858WAT     H256817   0.135   1.840   7.518
18859WAT      O56818   4.154   6.551   1.537
18859WAT     H156819   4.117   6.625   1.482
18859WAT     H256820   4.146   6.574   1.634
18860WAT      O56821   4.682   4.149   2.786
18860WAT     H156822   4.771   4.191   2.798
18860WAT     H256823   4.693   4.054   2.755
18861WAT      O56824   0.930   0.481   0.303
18861WAT     H156825   1.008   0.452   0.248
18861WAT     H256826   0.901   0.572   0.275
18862WAT      O56827   2.864   8.407   8.559
18862WAT     H156828   2.835   8.500   8.581
18862WAT     H256829   2.881   8.400   8.461
18863WAT      O56830   0.757   8.318   5.933
18863WAT     H156831   0.685   8.349   5.872
18863WAT     H256832   0.749   8.365   6.021
18864WAT      O56833   7.442   7.565   4.321
18864WAT     H156834   7.413   7.637   4.384
18864WAT     H256835   7.536   7.583   4.292
18865WAT      O56836   1.622   2.793   7.562
18865WAT     H156837   1.589   2.857   7.632
18865WAT     H256838   1.668   2.844   7.489
18866WAT      O56839   0.450   6.223   1.645
18866WAT     H156840   0.371   6.248   1.700
18866WAT     H256841   0.435   6.250   1.550
18867WAT      O56842   4.392   0.878   0.267
18867WAT     H156843   4.425   0.790   0.234
18867WAT     H256844   4.461   0.949   0.251
18868WAT      O56845   6.252   5.429   0.332
18868WAT     H156846   6.308   5.474   0.262
18868WAT     H256847   6.155   5.440   0.309
18869WAT      O56848   1.929   6.516   8.374
18869WAT     H156849   1.975   6.432   8.403
18869WAT     H256850   1.871   6.549   8.448
18870WAT      O56851   0.196   2.383   6.237
18870WAT     H156852   0.204   2.439   6.319
18870WAT     H256853   0.147   2.434   6.166
18871WAT      O56854   8.317   6.696   8.740
18871WAT     H156855   8.314   6.704   8.840
18871WAT     H256856   8.411   6.676   8.712
18872WAT      O56857   3.047   1.730   6.731
18872WAT     H156858   3.076   1.794   6.803
18872WAT     H256859   3.117   1.725   6.660
18873WAT      O56860   0.872   6.317   9.169
18873WAT     H156861   0.793   6.257   9.168
18873WAT     H256862   0.909   6.322   9.262
18874WAT      O56863   9.430   2.398   5.084
18874WAT     H156864   9.371   2.386   5.164
18874WAT     H256865   9.443   2.310   5.039
18875WAT      O56866   1.217   4.732   0.666
18875WAT     H156867   1.183   4.673   0.594
18875WAT     H256868   1.306   4.700   0.698
18876WAT      O56869   4.225   7.510   3.364
18876WAT     H156870   4.264   7.422   3.391
18876WAT     H256871   4.135   7.496   3.323
18877WAT      O56872   3.734   0.391   3.235
18877WAT     H156873   3.785   0.306   3.253
18877WAT     H256874   3.676   0.378   3.155
18878WAT      O56875   3.533   7.573   8.119
18878WAT     H156876   3.588   7.519   8.055
18878WAT     H256877   3.529   7.527   8.208
18879WAT      O56878   2.709   0.425   1.114
18879WAT     H156879   2.687   0.448   1.019
18879WAT     H256880   2.784   0.359   1.115
18880WAT      O56881   2.109   6.000   7.748
18880WAT     H156882   2.064   6.077   7.792
18880WAT     H256883   2.208   6.012   7.751
18881WAT      O56884   6.924   0.953   3.110
18881WAT     H156885   6.888   0.974   3.201
18881WAT     H256886   6.928   1.036   3.055
18882WAT      O56887   2.262   0.353   5.200
18882WAT     H156888   2.338   0.288   5.198
18882WAT     H256889   2.218   0.357   5.110
18883WAT      O56890   7.019   3.078   5.010
18883WAT     H156891   6.968   3.154   5.049
18883WAT     H256892   6.954   3.006   4.982
18884WAT      O56893   2.079   7.789   1.577
18884WAT     H156894   2.142   7.730   1.526
18884WAT     H256895   2.035   7.852   1.514
18885WAT      O56896   8.071   6.786   2.875
18885WAT     H156897   8.020   6.809   2.959
18885WAT     H256898   8.066   6.687   2.860
18886WAT      O56899   4.979   4.850   1.739
18886WAT     H156900   4.952   4.838   1.643
18886WAT     H256901   4.959   4.766   1.790
18887WAT      O56902   8.091   9.504   8.888
18887WAT     H156903   8.082   9.576   8.819
18887WAT     H256904   8.020   9.435   8.874
18888WAT      O56905   9.409   1.820   6.822
18888WAT     H156906   9.434   1.843   6.728
18888WAT     H256907   9.470   1.749   6.857
18889WAT      O56908   0.926   6.256   2.391
18889WAT     H156909   0.965   6.237   2.481
18889WAT     H256910   0.857   6.328   2.399
18890WAT      O56911   1.995   2.207   3.343
18890WAT     H156912   2.059   2.281   3.322
18890WAT     H256913   2.033   2.150   3.416
18891WAT      O56914   0.183   8.397   7.210
18891WAT     H156915   0.180   8.489   7.171
18891WAT     H256916   0.091   8.358   7.210
18892WAT      O56917   7.484   8.902   9.271
18892WAT     H156918   7.433   8.882   9.188
18892WAT     H256919   7.431   8.873   9.351
18893WAT      O56920   9.109   5.003   3.891
18893WAT     H156921   9.159   5.070   3.946
18893WAT     H256922   9.152   4.996   3.801
18894WAT      O56923   4.628   2.954   4.940
18894WAT     H156924   4.546   2.928   4.890
18894WAT     H256925   4.701   2.977   4.875
18895WAT      O56926   4.985   3.316   4.648
18895WAT     H156927   5.048   3.272   4.583
18895WAT     H256928   5.031   3.394   4.691
18896WAT      O56929   6.143   7.246   9.374
18896WAT     H156930   6.194   7.330   9.356
18896WAT     H256931   6.045   7.267   9.375
18897WAT      O56932   8.673   8.785   5.328
18897WAT     H156933   8.714   8.875   5.314
18897WAT     H256934   8.610   8.765   5.253
18898WAT      O56935   0.561   2.841   9.750
18898WAT     H156936   0.497   2.859   9.825
18898WAT     H256937   0.646   2.891   9.767
18899WAT      O56938   2.020   8.243   9.684
18899WAT     H156939   2.067   8.204   9.605
18899WAT     H256940   2.087   8.271   9.752
18900WAT      O56941   3.105   2.844   1.134
18900WAT     H156942   3.071   2.936   1.150
18900WAT     H256943   3.071   2.783   1.206
18901WAT      O56944   2.644   7.111   5.092
18901WAT     H156945   2.674   7.059   5.171
18901WAT     H256946   2.720   7.164   5.056
18902WAT      O56947   2.507   1.634   0.302
18902WAT     H156948   2.554   1.572   0.239
18902WAT     H256949   2.440   1.583   0.356
18903WAT      O56950   1.098   3.982   9.812
18903WAT     H156951   1.167   4.044   9.774
18903WAT     H256952   1.037   3.951   9.740
18904WAT      O56953   6.784   1.605   0.610
18904WAT     H156954   6.865   1.576   0.558
18904WAT     H256955   6.701   1.575   0.561
18905WAT      O56956   4.784   7.163   1.346
18905WAT     H156957   4.868   7.109   1.358
18905WAT     H256958   4.725   7.152   1.426
18906WAT      O56959   8.251   2.391   0.359
18906WAT     H156960   8.207   2.303   0.344
18906WAT     H256961   8.193   2.449   0.417
18907WAT      O56962   2.863   2.632   7.391
18907WAT     H156963   2.767   2.627   7.418
18907WAT     H256964   2.899   2.723   7.412
18908WAT      O56965   0.374   7.640   9.628
18908WAT     H156966   0.381   7.666   9.725
18908WAT     H256967   0.289   7.590   9.613
18909WAT      O56968   6.840   4.554   7.905
18909WAT     H156969   6.907   4.582   7.836
18909WAT     H256970   6.796   4.635   7.943
18910WAT      O56971   4.797   3.708   0.330
18910WAT     H156972   4.825   3.632   0.271
18910WAT     H256973   4.821   3.687   0.425
18911WAT      O56974   2.153   5.899   5.718
18911WAT     H156975   2.153   5.804   5.748
18911WAT     H256976   2.100   5.907   5.633
18912WAT      O56977   7.711   0.367   5.687
18912WAT     H156978   7.775   0.292   5.700
18912WAT     H256979   7.668   0.390   5.774
18913WAT      O56980   5.722   8.193   9.222
18913WAT     H156981   5.632   8.151   9.205
18913WAT     H256982   5.773   8.137   9.287
18914WAT      O56983   7.076   8.913   4.616
18914WAT     H156984   7.121   9.002   4.618
18914WAT     H256985   6.980   8.924   4.593
18915WAT      O56986   0.975   0.052   2.229
18915WAT     H156987   1.027   0.074   2.147
18915WAT     H256988   0.879   0.078   2.215
18916WAT      O56989   3.068   6.792   1.112
18916WAT     H156990   3.029   6.851   1.183
18916WAT     H256991   3.095   6.705   1.153
18917WAT      O56992   4.604   4.251   9.857
18917WAT     H156993   4.648   4.311   9.790
18917WAT     H256994   4.646   4.161   9.852
18918WAT      O56995   1.533   5.998   6.627
18918WAT     H156996   1.622   6.016   6.586
18918WAT     H256997   1.465   5.987   6.554
18919WAT      O56998   0.938   1.618   3.049
18919WAT     H156999   0.947   1.536   3.106
18919WAT     H257000   1.010   1.683   3.073
18920WAT      O57001   9.601   5.349   5.228
18920WAT     H157002   9.507   5.320   5.247
18920WAT     H257003   9.644   5.381   5.312
18921WAT      O57004   2.327   7.382   9.100
18921WAT     H157005   2.311   7.445   9.176
18921WAT     H257006   2.403   7.321   9.123
18922WAT      O57007   1.132   5.652   9.778
18922WAT     H157008   1.202   5.586   9.750
18922WAT     H257009   1.076   5.676   9.698
18923WAT      O57010   1.231   4.584   5.274
18923WAT     H157011   1.188   4.609   5.361
18923WAT     H257012   1.221   4.486   5.258
18924WAT      O57013   8.138   4.403   6.757
18924WAT     H157014   8.088   4.318   6.742
18924WAT     H257015   8.185   4.399   6.845
18925WAT      O57016   6.672   6.016   8.110
18925WAT     H157017   6.658   5.930   8.061
18925WAT     H257018   6.585   6.043   8.153
18926WAT      O57019   8.861   6.319   2.009
18926WAT     H157020   8.876   6.347   1.914
18926WAT     H257021   8.819   6.393   2.060
18927WAT      O57022   1.338   1.562   9.615
18927WAT     H157023   1.246   1.529   9.634
18927WAT     H257024   1.384   1.499   9.552
18928WAT      O57025   1.243   8.873   0.659
18928WAT     H157026   1.233   8.966   0.694
18928WAT     H257027   1.309   8.823   0.716
18929WAT      O57028   8.171   1.245   5.801
18929WAT     H157029   8.122   1.274   5.883
18929WAT     H257030   8.269   1.242   5.819
18930WAT      O57031   3.372   3.826   4.954
18930WAT     H157032   3.386   3.742   5.007
18930WAT     H257033   3.384   3.905   5.015
18931WAT      O57034   0.505   4.412   5.865
18931WAT     H157035   0.517   4.458   5.953
18931WAT     H257036   0.460   4.474   5.800
18932WAT      O57037   9.538   4.807   1.839
18932WAT     H157038   9.492   4.718   1.850
18932WAT     H257039   9.492   4.859   1.767
18933WAT      O57040   6.796   7.611   5.201
18933WAT     H157041   6.859   7.537   5.223
18933WAT     H257042   6.714   7.573   5.158
18934WAT      O57043   4.730   4.454   1.827
18934WAT     H157044   4.680   4.482   1.745
18934WAT     H257045   4.803   4.520   1.845
18935WAT      O57046   2.461   3.393   8.684
18935WAT     H157047   2.430   3.386   8.589
18935WAT     H257048   2.530   3.465   8.691
18936WAT      O57049   7.468   0.051   1.877
18936WAT     H157050   7.487  -0.010   1.953
18936WAT     H257051   7.503   0.142   1.897
18937WAT      O57052   7.301   4.389   2.968
18937WAT     H157053   7.353   4.454   3.022
18937WAT     H257054   7.340   4.381   2.877
18938WAT      O57055   5.512   1.579   5.561
18938WAT     H157056   5.539   1.577   5.465
18938WAT     H257057   5.422   1.621   5.569
18939WAT      O57058   6.074   6.255   0.266
18939WAT     H157059   6.022   6.196   0.328
18939WAT     H257060   6.021   6.269   0.181
18940WAT      O57061   6.674   4.483   0.664
18940WAT     H157062   6.703   4.406   0.607
18940WAT     H257063   6.653   4.561   0.606
18941WAT      O57064   4.950   6.030   9.424
18941WAT     H157065   5.049   6.014   9.429
18941WAT     H257066   4.926   6.056   9.330
18942WAT      O57067   9.301   8.891   5.073
18942WAT     H157068   9.233   8.959   5.101
18942WAT     H257069   9.389   8.913   5.115
18943WAT      O57070   8.194   6.329   3.754
18943WAT     H157071   8.217   6.301   3.661
18943WAT     H257072   8.094   6.324   3.767
18944WAT      O57073   6.658   4.813   4.150
18944WAT     H157074   6.669   4.816   4.249
18944WAT     H257075   6.748   4.818   4.106
18945WAT      O57076   9.114   8.862   3.521
18945WAT     H157077   9.156   8.774   3.541
18945WAT     H257078   9.015   8.858   3.538
18946WAT      O57079   7.276   1.310   1.871
18946WAT     H157080   7.246   1.382   1.934
18946WAT     H257081   7.216   1.308   1.791
18947WAT      O57082   7.761   3.048   6.584
18947WAT     H157083   7.796   2.978   6.646
18947WAT     H257084   7.733   3.004   6.498
18948WAT      O57085   3.894   6.407   8.609
18948WAT     H157086   3.862   6.382   8.517
18948WAT     H257087   3.826   6.465   8.653
18949WAT      O57088   2.943   4.529   7.183
18949WAT     H157089   2.846   4.540   7.161
18949WAT     H257090   2.974   4.439   7.152
18950WAT      O57091   9.025   5.443   3.434
18950WAT     H157092   9.046   5.355   3.475
18950WAT     H257093   8.928   5.464   3.449
18951WAT      O57094   2.573   5.680   7.386
18951WAT     H157095   2.594   5.635   7.472
18951WAT     H257096   2.614   5.629   7.310
18952WAT      O57097   5.788   0.065   1.240
18952WAT     H157098   5.742   0.106   1.161
18952WAT     H257099   5.723   0.011   1.293
18953WAT      O57100   8.919   8.903   5.876
18953WAT     H157101   8.874   8.967   5.813
18953WAT     H257102   8.855   8.832   5.902
18954WAT      O57103   9.008   5.437   8.716
18954WAT     H157104   9.056   5.386   8.787
18954WAT     H257105   9.021   5.392   8.628
18955WAT      O57106   0.854   9.751   9.565
18955WAT     H157107   0.826   9.846   9.569
18955WAT     H257108   0.925   9.734   9.634
18956WAT      O57109   6.501   5.824   5.727
18956WAT     H157110   6.589   5.851   5.689
18956WAT     H257111   6.472   5.890   5.795
18957WAT      O57112   7.954   4.122   3.067
18957WAT     H157113   8.009   4.040   3.051
18957WAT     H257114   8.004   4.185   3.127
18958WAT      O57115   8.751   3.071   5.963
18958WAT     H157116   8.775   2.981   5.926
18958WAT     H257117   8.810   3.140   5.922
18959WAT      O57118   0.825   6.637   5.511
18959WAT     H157119   0.745   6.682   5.551
18959WAT     H257120   0.805   6.613   5.416
18960WAT      O57121   2.616   7.863   2.646
18960WAT     H157122   2.559   7.936   2.607
18960WAT     H257123   2.576   7.774   2.625
18961WAT      O57124   4.925   9.844   6.190
18961WAT     H157125   4.902   9.753   6.155
18961WAT     H257126   4.934   9.840   6.289
18962WAT      O57127   7.788   5.850   7.248
18962WAT     H157128   7.836   5.934   7.272
18962WAT     H257129   7.845   5.771   7.271
18963WAT      O57130   3.880   9.330   5.438
18963WAT     H157131   3.782   9.337   5.423
18963WAT     H257132   3.899   9.323   5.536
18964WAT      O57133   8.020   6.472   3.304
18964WAT     H157134   8.068   6.532   3.367
18964WAT     H257135   8.085   6.409   3.261
18965WAT      O57136   2.982   0.814   5.863
18965WAT     H157137   2.999   0.841   5.768
18965WAT     H257138   2.985   0.895   5.921
18966WAT      O57139   6.450   2.460   6.143
18966WAT     H157140   6.507   2.387   6.181
18966WAT     H257141   6.377   2.482   6.208
18967WAT      O57142   5.830   0.727   1.942
18967WAT     H157143   5.826   0.816   1.896
18967WAT     H257144   5.825   0.654   1.874
18968WAT      O57145   2.212   6.277   7.291
18968WAT     H157146   2.139   6.322   7.239
18968WAT     H257147   2.235   6.190   7.247
18969WAT      O57148   5.741   9.824   8.716
18969WAT     H157149   5.719   9.778   8.630
18969WAT     H257150   5.668   9.806   8.782
18970WAT      O57151   9.876   0.436   4.905
18970WAT     H157152   9.907   0.470   4.994
18970WAT     H257153   9.848   0.340   4.914
18971WAT      O57154   1.192   8.298   7.673
18971WAT     H157155   1.281   8.307   7.630
18971WAT     H257156   1.120   8.307   7.603
18972WAT      O57157   1.073   0.544   5.485
18972WAT     H157158   0.977   0.535   5.509
18972WAT     H257159   1.082   0.600   5.402
18973WAT      O57160   1.192   8.822   8.114
18973WAT     H157161   1.098   8.820   8.078
18973WAT     H257162   1.256   8.823   8.038
18974WAT      O57163   0.906   9.383   6.125
18974WAT     H157164   0.941   9.317   6.058
18974WAT     H257165   0.856   9.456   6.077
18975WAT      O57166   1.773   0.966   2.546
18975WAT     H157167   1.863   0.994   2.578
18975WAT     H257168   1.778   0.873   2.509
18976WAT      O57169   2.813   7.074   8.613
18976WAT     H157170   2.777   7.158   8.652
18976WAT     H257171   2.799   7.074   8.514
18977WAT      O57172   3.111   8.165   9.129
18977WAT     H157173   3.122   8.259   9.097
18977WAT     H257174   3.052   8.164   9.210
18978WAT      O57175   6.162   2.953   7.848
18978WAT     H157176   6.151   2.890   7.771
18978WAT     H257177   6.128   2.909   7.931
18979WAT      O57178   3.874   5.058   4.901
18979WAT     H157179   3.836   4.966   4.913
18979WAT     H257180   3.973   5.052   4.887
18980WAT      O57181   1.760   2.945   5.767
18980WAT     H157182   1.781   2.848   5.764
18980WAT     H257183   1.833   2.994   5.815
18981WAT      O57184   1.724   2.365   2.650
18981WAT     H157185   1.755   2.336   2.741
18981WAT     H257186   1.757   2.301   2.581
18982WAT      O57187   7.845   6.481   4.817
18982WAT     H157188   7.840   6.552   4.747
18982WAT     H257189   7.780   6.501   4.890
18983WAT      O57190   0.410   6.954   6.040
18983WAT     H157191   0.398   7.042   5.995
18983WAT     H257192   0.494   6.911   6.007
18984WAT      O57193   2.066   7.964   5.756
18984WAT     H157194   2.053   7.974   5.855
18984WAT     H257195   2.149   7.910   5.740
18985WAT      O57196   9.681   7.544   5.609
18985WAT     H157197   9.597   7.598   5.601
18985WAT     H257198   9.753   7.600   5.648
18986WAT      O57199   2.606   9.836   9.804
18986WAT     H157200   2.575   9.830   9.709
18986WAT     H257201   2.702   9.808   9.809
18987WAT      O57202   8.425   9.257   0.548
18987WAT     H157203   8.365   9.321   0.595
18987WAT     H257204   8.430   9.282   0.451
18988WAT      O57205   7.602   1.469   1.046
18988WAT     H157206   7.564   1.380   1.022
18988WAT     H257207   7.552   1.506   1.125
18989WAT      O57208   6.625   3.070   0.817
18989WAT     H157209   6.626   3.151   0.876
18989WAT     H257210   6.685   3.000   0.855
18990WAT      O57211   4.417   2.629   5.724
18990WAT     H157212   4.511   2.631   5.690
18990WAT     H257213   4.354   2.651   5.649
18991WAT      O57214   4.331   8.886   7.545
18991WAT     H157215   4.353   8.983   7.559
18991WAT     H257216   4.374   8.854   7.461
18992WAT      O57217   7.705   0.294   6.063
18992WAT     H157218   7.803   0.289   6.045
18992WAT     H257219   7.661   0.350   5.993
18993WAT      O57220   7.066   3.922   5.124
18993WAT     H157221   7.027   4.006   5.162
18993WAT     H257222   7.147   3.895   5.177
18994WAT      O57223   2.916   7.789   6.161
18994WAT     H157224   2.950   7.882   6.174
18994WAT     H257225   2.885   7.753   6.249
18995WAT      O57226   6.783   6.631   8.259
18995WAT     H157227   6.770   6.729   8.243
18995WAT     H257228   6.859   6.618   8.323
18996WAT      O57229   1.269   3.943   5.523
18996WAT     H157230   1.271   3.951   5.623
18996WAT     H257231   1.327   3.868   5.495
18997WAT      O57232   8.430   8.198   9.131
18997WAT     H157233   8.459   8.253   9.052
18997WAT     H257234   8.498   8.207   9.204
18998WAT      O57235   4.668   7.408   3.294
18998WAT     H157236   4.743   7.451   3.244
18998WAT     H257237   4.696   7.394   3.389
18999WAT      O57238   2.339   4.273   2.810
18999WAT     H157239   2.253   4.251   2.857
18999WAT     H257240   2.409   4.292   2.878
19000WAT      O57241   4.458   2.570   7.078
19000WAT     H157242   4.449   2.670   7.081
19000WAT     H257243   4.435   2.538   6.986
19001WAT      O57244   9.400   6.668   4.044
19001WAT     H157245   9.412   6.625   3.955
19001WAT     H257246   9.302   6.669   4.068
19002WAT      O57247   9.727   5.807   8.759
19002WAT     H157248   9.711   5.711   8.784
19002WAT     H257249   9.780   5.811   8.675
19003WAT      O57250   6.633   2.928   9.181
19003WAT     H157251   6.590   2.942   9.091
19003WAT     H257252   6.631   2.831   9.204
19004WAT      O57253   1.351   6.573   1.007
19004WAT     H157254   1.308   6.596   1.094
19004WAT     H257255   1.416   6.498   1.020
19005WAT      O57256   5.647   9.651   7.946
19005WAT     H157257   5.636   9.727   8.010
19005WAT     H257258   5.580   9.658   7.873
19006WAT      O57259   0.846   7.149   3.152
19006WAT     H157260   0.801   7.182   3.069
19006WAT     H257261   0.797   7.070   3.187
19007WAT      O57262   1.638   1.946   6.418
19007WAT     H157263   1.719   1.958   6.475
19007WAT     H257264   1.567   2.011   6.447
19008WAT      O57265   3.020   2.592   6.043
19008WAT     H157266   3.094   2.635   5.992
19008WAT     H257267   3.049   2.502   6.076
19009WAT      O57268   8.384   3.511   1.602
19009WAT     H157269   8.427   3.499   1.692
19009WAT     H257270   8.339   3.426   1.576
19010WAT      O57271   4.206   4.126   8.785
19010WAT     H157272   4.238   4.055   8.723
19010WAT     H257273   4.280   4.190   8.804
19011WAT      O57274   4.588   9.748   4.621
19011WAT     H157275   4.574   9.649   4.628
19011WAT     H257276   4.675   9.767   4.576
19012WAT      O57277   8.318   5.695   3.858
19012WAT     H157278   8.409   5.656   3.846
19012WAT     H257279   8.262   5.633   3.913
19013WAT      O57280   6.221   3.664   8.759
19013WAT     H157281   6.181   3.663   8.668
19013WAT     H257282   6.169   3.602   8.819
19014WAT      O57283   5.822   7.986   8.872
19014WAT     H157284   5.736   8.023   8.836
19014WAT     H257285   5.856   7.914   8.812
19015WAT      O57286   4.258   0.013   9.469
19015WAT     H157287   4.283   0.104   9.501
19015WAT     H257288   4.341  -0.044   9.462
19016WAT      O57289   7.080   6.130   5.720
19016WAT     H157290   7.077   6.193   5.643
19016WAT     H257291   7.078   6.036   5.687
19017WAT      O57292   6.656   8.200   3.855
19017WAT     H157293   6.614   8.244   3.776
19017WAT     H257294   6.605   8.117   3.878
19018WAT      O57295   9.456   4.424   9.785
19018WAT     H157296   9.424   4.329   9.786
19018WAT     H257297   9.388   4.482   9.831
19019WAT      O57298   8.740   3.176   8.331
19019WAT     H157299   8.740   3.092   8.386
19019WAT     H257300   8.759   3.153   8.235
19020WAT      O57301   5.261   6.486   1.875
19020WAT     H157302   5.201   6.408   1.893
19020WAT     H257303   5.283   6.490   1.778
19021WAT      O57304   8.059   7.220   6.165
19021WAT     H157305   8.048   7.171   6.078
19021WAT     H257306   8.012   7.170   6.238
19022WAT      O57307   8.250   8.503   9.090
19022WAT     H157308   8.346   8.507   9.062
19022WAT     H257309   8.202   8.585   9.058
19023WAT      O57310   4.494   9.738   6.638
19023WAT     H157311   4.518   9.745   6.735
19023WAT     H257312   4.450   9.824   6.609
19024WAT      O57313   1.262   6.657   4.535
19024WAT     H157314   1.222   6.675   4.446
19024WAT     H257315   1.350   6.611   4.524
19025WAT      O57316   7.265   1.492   3.220
19025WAT     H157317   7.263   1.584   3.259
19025WAT     H257318   7.356   1.453   3.230
19026WAT      O57319   1.134   6.693   7.033
19026WAT     H157320   1.151   6.613   6.976
19026WAT     H257321   1.187   6.686   7.117
19027WAT      O57322   2.048   1.459   4.373
19027WAT     H157323   2.142   1.430   4.350
19027WAT     H257324   2.008   1.506   4.294
19028WAT      O57325   3.708   0.574   5.986
19028WAT     H157326   3.687   0.632   6.065
19028WAT     H257327   3.634   0.580   5.920
19029WAT      O57328   1.926   6.161   1.571
19029WAT     H157329   1.832   6.165   1.536
19029WAT     H257330   1.930   6.097   1.648
19030WAT      O57331   8.828   6.439   0.038
19030WAT     H157332   8.876   6.526   0.049
19030WAT     H257333   8.861   6.394  -0.045
19031WAT      O57334   3.782   2.831   6.606
19031WAT     H157335   3.789   2.823   6.705
19031WAT     H257336   3.743   2.919   6.582
19032WAT      O57337   0.956   2.639   5.892
19032WAT     H157338   0.984   2.576   5.964
19032WAT     H257339   0.946   2.589   5.806
19033WAT      O57340   9.683   8.102   6.647
19033WAT     H157341   9.780   8.079   6.661
19033WAT     H257342   9.668   8.124   6.550
19034WAT      O57343   4.657   1.664   9.207
19034WAT     H157344   4.674   1.755   9.246
19034WAT     H257345   4.682   1.594   9.273
19035WAT      O57346   1.856   9.360   4.624
19035WAT     H157347   1.931   9.339   4.562
19035WAT     H257348   1.788   9.415   4.577
19036WAT      O57349   6.111   9.704   4.794
19036WAT     H157350   6.055   9.685   4.714
19036WAT     H257351   6.205   9.721   4.765
19037WAT      O57352   8.298   9.270   5.879
19037WAT     H157353   8.329   9.228   5.964
19037WAT     H257354   8.249   9.201   5.824
19038WAT      O57355   3.059   0.935   8.360
19038WAT     H157356   2.964   0.924   8.331
19038WAT     H257357   3.088   1.030   8.345
19039WAT      O57358   2.576   8.024   7.815
19039WAT     H157359   2.643   7.950   7.822
19039WAT     H257360   2.617   8.109   7.846
19040WAT      O57361   8.953   1.717   0.747
19040WAT     H157362   9.035   1.733   0.692
19040WAT     H257363   8.972   1.647   0.816
19041WAT      O57364   8.842   2.891   4.469
19041WAT     H157365   8.793   2.864   4.385
19041WAT     H257366   8.909   2.821   4.493
19042WAT      O57367   1.515   7.242   4.143
19042WAT     H157368   1.423   7.208   4.125
19042WAT     H257369   1.577   7.164   4.156
19043WAT      O57370   0.851   0.023   3.835
19043WAT     H157371   0.935   0.077   3.839
19043WAT     H257372   0.871  -0.072   3.860
19044WAT      O57373   5.188   6.785   4.717
19044WAT     H157374   5.271   6.793   4.662
19044WAT     H257375   5.200   6.836   4.802
19045WAT      O57376   0.855   4.975   2.199
19045WAT     H157377   0.888   5.027   2.120
19045WAT     H257378   0.764   5.009   2.225
19046WAT      O57379   0.820   2.672   9.635
19046WAT     H157380   0.723   2.652   9.619
19046WAT     H257381   0.836   2.770   9.624
19047WAT      O57382   8.354   0.407   0.524
19047WAT     H157383   8.266   0.401   0.572
19047WAT     H257384   8.338   0.397   0.425
19048WAT      O57385   5.269   4.330   1.838
19048WAT     H157386   5.198   4.330   1.909
19048WAT     H257387   5.357   4.353   1.878
19049WAT      O57388   6.350   5.679   7.441
19049WAT     H157389   6.433   5.653   7.392
19049WAT     H257390   6.277   5.696   7.375
19050WAT      O57391   4.794   9.722   6.578
19050WAT     H157392   4.830   9.639   6.534
19050WAT     H257393   4.694   9.722   6.573
19051WAT      O57394   8.247   8.254   8.475
19051WAT     H157395   8.273   8.334   8.528
19051WAT     H257396   8.193   8.283   8.396
19052WAT      O57397   1.834   1.210   8.633
19052WAT     H157398   1.920   1.252   8.663
19052WAT     H257399   1.813   1.132   8.692
19053WAT      O57400   3.595   3.761   1.003
19053WAT     H157401   3.669   3.828   0.998
19053WAT     H257402   3.568   3.734   0.911
19054WAT      O57403   1.170   4.993   0.949
19054WAT     H157404   1.175   5.033   0.858
19054WAT     H257405   1.262   4.979   0.985
19055WAT      O57406   4.386   6.771   8.611
19055WAT     H157407   4.289   6.747   8.613
19055WAT     H257408   4.416   6.794   8.704
19056WAT      O57409   6.306   2.996   0.223
19056WAT     H157410   6.269   2.923   0.281
19056WAT     H257411   6.392   3.029   0.262
19057WAT      O57412   8.642   6.793   9.828
19057WAT     H157413   8.550   6.782   9.791
19057WAT     H257414   8.709   6.775   9.756
19058WAT      O57415   6.178   2.192   5.649
19058WAT     H157416   6.200   2.210   5.745
19058WAT     H257417   6.237   2.247   5.590
19059WAT      O57418   5.527   1.294   8.695
19059WAT     H157419   5.439   1.307   8.740
19059WAT     H257420   5.576   1.381   8.691
19060WAT      O57421   7.238   0.667   3.782
19060WAT     H157422   7.332   0.701   3.783
19060WAT     H257423   7.199   0.679   3.690
19061WAT      O57424   3.343   8.855   9.438
19061WAT     H157425   3.409   8.912   9.389
19061WAT     H257426   3.364   8.759   9.422
19062WAT      O57427   0.489   3.891   0.116
19062WAT     H157428   0.530   3.879   0.026
19062WAT     H257429   0.560   3.910   0.184
19063WAT      O57430   3.708   3.098   6.910
19063WAT     H157431   3.741   3.104   6.816
19063WAT     H257432   3.742   3.177   6.962
19064WAT      O57433   2.478   5.255   0.280
19064WAT     H157434   2.563   5.297   0.311
19064WAT     H257435   2.478   5.158   0.304
19065WAT      O57436   3.211   4.761   5.772
19065WAT     H157437   3.179   4.848   5.809
19065WAT     H257438   3.158   4.687   5.811
19066WAT      O57439   3.985   6.023   2.413
19066WAT     H157440   3.889   6.053   2.414
19066WAT     H257441   4.038   6.081   2.352
19067WAT      O57442   5.145   8.851   7.387
19067WAT     H157443   5.073   8.915   7.416
19067WAT     H257444   5.197   8.890   7.312
19068WAT      O57445   0.642   6.403   6.136
19068WAT     H157446   0.566   6.457   6.171
19068WAT     H257447   0.702   6.463   6.082
19069WAT      O57448   5.896   9.734   9.040
19069WAT     H157449   5.950   9.690   8.969
19069WAT     H257450   5.821   9.785   8.999
19070WAT      O57451   5.670   1.352   3.863
19070WAT     H157452   5.670   1.333   3.765
19070WAT     H257453   5.579   1.332   3.901
19071WAT      O57454   0.392   0.118   9.426
19071WAT     H157455   0.346   0.145   9.510
19071WAT     H257456   0.474   0.174   9.413
19072WAT      O57457   8.156   9.788   8.881
19072WAT     H157458   8.122   9.802   8.974
19072WAT     H257459   8.252   9.761   8.884
19073WAT      O57460   7.966   9.403   2.500
19073WAT     H157461   8.036   9.392   2.569
19073WAT     H257462   7.926   9.494   2.507
19074WAT      O57463   0.662   5.953   5.450
19074WAT     H157464   0.729   5.879   5.457
19074WAT     H257465   0.591   5.928   5.385
19075WAT      O57466   1.852   2.606   5.907
19075WAT     H157467   1.879   2.700   5.926
19075WAT     H257468   1.913   2.543   5.956
19076WAT      O57469   9.182   1.587   1.525
19076WAT     H157470   9.135   1.499   1.526
19076WAT     H257471   9.176   1.630   1.616
19077WAT      O57472   0.589   3.458   8.056
19077WAT     H157473   0.631   3.380   8.103
19077WAT     H257474   0.516   3.426   7.995
19078WAT      O57475   8.712   5.003   3.300
19078WAT     H157476   8.762   5.088   3.315
19078WAT     H257477   8.706   4.953   3.386
19079WAT      O57478   5.669   5.627   6.344
19079WAT     H157479   5.763   5.661   6.342
19079WAT     H257480   5.606   5.701   6.325
19080WAT      O57481   8.587   2.910   5.005
19080WAT     H157482   8.653   2.868   4.943
19080WAT     H257483   8.548   2.991   4.961
19081WAT      O57484   9.580   3.565   3.139
19081WAT     H157485   9.627   3.515   3.212
19081WAT     H257486   9.481   3.560   3.153
19082WAT      O57487   9.803   2.923   4.852
19082WAT     H157488   9.790   2.825   4.837
19082WAT     H257489   9.850   2.963   4.774
19083WAT      O57490   3.661   1.972   4.566
19083WAT     H157491   3.685   1.910   4.491
19083WAT     H257492   3.660   1.921   4.652
19084WAT      O57493   9.198   5.783   0.872
19084WAT     H157494   9.139   5.716   0.828
19084WAT     H257495   9.285   5.789   0.823
19085WAT      O57496   5.703   0.793   5.519
19085WAT     H157497   5.669   0.846   5.442
19085WAT     H257498   5.650   0.817   5.601
19086WAT      O57499   0.695   8.054   3.325
19086WAT     H157500   0.651   8.130   3.277
19086WAT     H257501   0.626   7.986   3.351
19087WAT      O57502   6.714   2.288   5.160
19087WAT     H157503   6.738   2.359   5.226
19087WAT     H257504   6.776   2.211   5.170
19088WAT      O57505   8.447   3.498   1.872
19088WAT     H157506   8.488   3.544   1.951
19088WAT     H257507   8.395   3.418   1.904
19089WAT      O57508   1.205   2.097   0.732
19089WAT     H157509   1.286   2.079   0.788
19089WAT     H257510   1.232   2.111   0.637
19090WAT      O57511   8.405   7.667   4.446
19090WAT     H157512   8.328   7.718   4.407
19090WAT     H257513   8.444   7.719   4.522
19091WAT      O57514   0.469   4.063   4.928
19091WAT     H157515   0.513   4.126   4.864
19091WAT     H257516   0.435   4.113   5.007
19092WAT      O57517   7.884   9.419   6.399
19092WAT     H157518   7.840   9.462   6.478
19092WAT     H257519   7.832   9.338   6.372
19093WAT      O57520   8.855   3.034   9.552
19093WAT     H157521   8.846   3.053   9.650
19093WAT     H257522   8.952   3.040   9.526
19094WAT      O57523   3.208   5.074   3.968
19094WAT     H157524   3.270   5.151   3.983
19094WAT     H257525   3.244   4.992   4.013
19095WAT      O57526   1.594   8.910   7.229
19095WAT     H157527   1.552   8.931   7.141
19095WAT     H257528   1.693   8.924   7.223
19096WAT      O57529   6.788   7.926   8.330
19096WAT     H157530   6.760   7.831   8.318
19096WAT     H257531   6.747   7.982   8.258
19097WAT      O57532   8.119   4.020   8.596
19097WAT     H157533   8.210   4.060   8.611
19097WAT     H257534   8.105   3.946   8.662
19098WAT      O57535   4.818   5.452   1.377
19098WAT     H157536   4.842   5.537   1.330
19098WAT     H257537   4.720   5.435   1.367
19099WAT      O57538   9.373   2.369   8.901
19099WAT     H157539   9.444   2.323   8.847
19099WAT     H257540   9.323   2.301   8.955
19100WAT      O57541   2.318   8.749   8.059
19100WAT     H157542   2.314   8.813   7.982
19100WAT     H257543   2.259   8.670   8.040
19101WAT      O57544   8.666   5.566   4.274
19101WAT     H157545   8.581   5.581   4.324
19101WAT     H257546   8.710   5.654   4.257
19102WAT      O57547   6.865   3.702   4.565
19102WAT     H157548   6.825   3.792   4.583
19102WAT     H257549   6.807   3.632   4.605
19103WAT      O57550   0.249   1.313   2.462
19103WAT     H157551   0.157   1.303   2.423
19103WAT     H257552   0.316   1.276   2.397
19104WAT      O57553   6.224   1.826   8.044
19104WAT     H157554   6.235   1.729   8.024
19104WAT     H257555   6.257   1.845   8.137
19105WAT      O57556   7.179   1.510   9.833
19105WAT     H157557   7.115   1.523   9.909
19105WAT     H257558   7.246   1.440   9.858
19106WAT      O57559   6.602   1.115   6.198
19106WAT     H157560   6.533   1.076   6.137
19106WAT     H257561   6.689   1.070   6.182
19107WAT      O57562   6.432   3.854   1.311
19107WAT     H157563   6.371   3.788   1.267
19107WAT     H257564   6.503   3.882   1.246
19108WAT      O57565   7.793   4.783   0.114
19108WAT     H157566   7.821   4.864   0.164
19108WAT     H257567   7.719   4.737   0.163
19109WAT      O57568   3.317   1.703   9.476
19109WAT     H157569   3.399   1.645   9.484
19109WAT     H257570   3.302   1.752   9.562
19110WAT      O57571   6.171   3.459   3.782
19110WAT     H157572   6.169   3.360   3.799
19110WAT     H257573   6.266   3.488   3.769
19111WAT      O57574   8.624   7.089   1.272
19111WAT     H157575   8.684   7.070   1.193
19111WAT     H257576   8.603   7.003   1.319
19112WAT      O57577   1.047   1.350   1.541
19112WAT     H157578   1.116   1.366   1.470
19112WAT     H257579   1.092   1.344   1.630
19113WAT      O57580   8.343   7.253   8.813
19113WAT     H157581   8.336   7.153   8.821
19113WAT     H257582   8.401   7.276   8.735
19114WAT      O57583   2.634   8.889   3.489
19114WAT     H157584   2.669   8.827   3.559
19114WAT     H257585   2.536   8.875   3.479
19115WAT      O57586   6.590   9.051   6.020
19115WAT     H157587   6.507   9.040   5.966
19115WAT     H257588   6.628   9.142   6.004
19116WAT      O57589   0.289   2.400   2.491
19116WAT     H157590   0.266   2.485   2.538
19116WAT     H257591   0.307   2.328   2.558
19117WAT      O57592   6.550   7.091   8.773
19117WAT     H157593   6.582   7.072   8.866
19117WAT     H257594   6.624   7.073   8.709
19118WAT      O57595   6.048   0.230   3.700
19118WAT     H157596   5.977   0.300   3.709
19118WAT     H257597   6.033   0.159   3.769
19119WAT      O57598   3.203   3.474   4.931
19119WAT     H157599   3.250   3.540   4.991
19119WAT     H257600   3.258   3.390   4.925
19120WAT      O57601   7.802   4.989   4.336
19120WAT     H157602   7.811   5.028   4.244
19120WAT     H257603   7.792   5.063   4.403
19121WAT      O57604   5.240   6.502   2.990
19121WAT     H157605   5.191   6.487   3.077
19121WAT     H257606   5.333   6.467   2.998
19122WAT      O57607   9.534   1.803   2.637
19122WAT     H157608   9.581   1.728   2.684
19122WAT     H257609   9.592   1.884   2.639
19123WAT      O57610   7.765   7.143   2.165
19123WAT     H157611   7.781   7.198   2.084
19123WAT     H257612   7.672   7.108   2.164
19124WAT      O57613   8.144   3.512   9.195
19124WAT     H157614   8.224   3.571   9.196
19124WAT     H257615   8.129   3.475   9.287
19125WAT      O57616   0.495   9.414   3.022
19125WAT     H157617   0.550   9.492   2.990
19125WAT     H257618   0.421   9.397   2.956
19126WAT      O57619   1.304   8.383   1.685
19126WAT     H157620   1.251   8.468   1.696
19126WAT     H257621   1.371   8.377   1.760
19127WAT      O57622   6.550   3.026   9.485
19127WAT     H157623   6.481   3.096   9.471
19127WAT     H257624   6.640   3.062   9.460
19128WAT      O57625   0.333   1.268   8.371
19128WAT     H157626   0.419   1.218   8.383
19128WAT     H257627   0.351   1.363   8.348
19129WAT      O57628   0.537   8.107   5.514
19129WAT     H157629   0.626   8.075   5.548
19129WAT     H257630   0.511   8.054   5.433
19130WAT      O57631   6.286   4.587   9.731
19130WAT     H157632   6.261   4.529   9.808
19130WAT     H257633   6.360   4.649   9.758
19131WAT      O57634   0.262   4.591   6.175
19131WAT     H157635   0.348   4.640   6.157
19131WAT     H257636   0.272   4.495   6.150
19132WAT      O57637   7.893   0.264   1.352
19132WAT     H157638   7.894   0.191   1.420
19132WAT     H257639   7.932   0.230   1.266
19133WAT      O57640   1.318   7.889   3.250
19133WAT     H157641   1.380   7.910   3.325
19133WAT     H257642   1.351   7.932   3.165
19134WAT      O57643   6.898   8.989   8.539
19134WAT     H157644   6.896   8.895   8.573
19134WAT     H257645   6.834   8.998   8.462
19135WAT      O57646   4.630   7.662   7.122
19135WAT     H157647   4.564   7.726   7.082
19135WAT     H257648   4.710   7.713   7.154
19136WAT      O57649   2.451   8.530   3.516
19136WAT     H157650   2.423   8.434   3.526
19136WAT     H257651   2.537   8.534   3.465
19137WAT      O57652   1.377   8.057   1.821
19137WAT     H157653   1.326   8.120   1.880
19137WAT     H257654   1.316   8.018   1.753
19138WAT      O57655   5.093   8.153   0.927
19138WAT     H157656   4.996   8.136   0.947
19138WAT     H257657   5.150   8.105   0.994
19139WAT      O57658   9.671   4.187   4.443
19139WAT     H157659   9.753   4.130   4.452
19139WAT     H257660   9.614   4.152   4.369
19140WAT      O57661   1.060   4.127   6.344
19140WAT     H157662   0.975   4.172   6.319
19140WAT     H257663   1.136   4.192   6.339
19141WAT      O57664   8.588   6.084   4.358
19141WAT     H157665   8.592   6.042   4.449
19141WAT     H257666   8.551   6.177   4.366
19142WAT      O57667   6.772   6.341   3.333
19142WAT     H157668   6.675   6.367   3.324
19142WAT     H257669   6.828   6.406   3.282
19143WAT      O57670   4.168   5.304   3.653
19143WAT     H157671   4.191   5.223   3.708
19143WAT     H257672   4.074   5.295   3.619
19144WAT      O57673   8.409   5.308   0.759
19144WAT     H157674   8.435   5.322   0.664
19144WAT     H257675   8.329   5.248   0.763
19145WAT      O57676   4.634   9.545   0.509
19145WAT     H157677   4.557   9.510   0.456
19145WAT     H257678   4.709   9.478   0.508
19146WAT      O57679   0.957   8.130   3.885
19146WAT     H157680   0.967   8.051   3.947
19146WAT     H257681   1.027   8.124   3.813
19147WAT      O57682   1.191   1.869   4.465
19147WAT     H157683   1.149   1.790   4.420
19147WAT     H257684   1.272   1.840   4.515
19148WAT      O57685   7.970   3.307   2.377
19148WAT     H157686   8.038   3.269   2.441
19148WAT     H257687   8.015   3.330   2.291
19149WAT      O57688   8.993   7.283   4.912
19149WAT     H157689   8.946   7.201   4.881
19149WAT     H257690   8.943   7.364   4.881
19150WAT      O57691   3.075   1.929   9.832
19150WAT     H157692   3.114   1.932   9.924
19150WAT     H257693   3.002   1.861   9.829
19151WAT      O57694   3.854   8.735   0.934
19151WAT     H157695   3.784   8.678   0.976
19151WAT     H257696   3.923   8.677   0.890
19152WAT      O57697   9.285   3.833   1.896
19152WAT     H157698   9.200   3.787   1.869
19152WAT     H257699   9.290   3.837   1.996
19153WAT      O57700   3.460   4.593   3.284
19153WAT     H157701   3.495   4.522   3.344
19153WAT     H257702   3.487   4.574   3.190
19154WAT      O57703   1.058   4.863   8.716
19154WAT     H157704   1.016   4.884   8.804
19154WAT     H257705   1.021   4.776   8.682
19155WAT      O57706   2.423   6.621   4.534
19155WAT     H157707   2.352   6.691   4.542
19155WAT     H257708   2.503   6.649   4.586
19156WAT      O57709   3.229   9.645   7.453
19156WAT     H157710   3.221   9.585   7.374
19156WAT     H257711   3.322   9.639   7.490
19157WAT      O57712   9.292   2.480   2.539
19157WAT     H157713   9.205   2.513   2.574
19157WAT     H257714   9.285   2.464   2.441
19158WAT      O57715   7.913   2.029   7.304
19158WAT     H157716   7.817   2.052   7.319
19158WAT     H257717   7.937   1.949   7.359
19159WAT      O57718   2.323   9.136   2.298
19159WAT     H157719   2.237   9.114   2.346
19159WAT     H257720   2.391   9.067   2.320
19160WAT      O57721   4.918   3.040   1.961
19160WAT     H157722   4.828   3.043   1.918
19160WAT     H257723   4.986   3.078   1.899
19161WAT      O57724   5.958   4.251   7.338
19161WAT     H157725   5.905   4.286   7.261
19161WAT     H257726   5.936   4.154   7.352
19162WAT      O57727   4.900   6.989   2.076
19162WAT     H157728   4.973   7.033   2.023
19162WAT     H257729   4.909   7.015   2.172
19163WAT      O57730   6.990   5.983   5.315
19163WAT     H157731   6.911   5.928   5.287
19163WAT     H257732   7.018   5.957   5.407
19164WAT      O57733   8.882   9.330   3.592
19164WAT     H157734   8.958   9.319   3.527
19164WAT     H257735   8.831   9.244   3.597
19165WAT      O57736   0.719   9.338   3.473
19165WAT     H157737   0.755   9.248   3.496
19165WAT     H257738   0.638   9.357   3.529
19166WAT      O57739   2.198   4.563   0.573
19166WAT     H157740   2.133   4.523   0.638
19166WAT     H257741   2.235   4.647   0.610
19167WAT      O57742   9.428   9.414   6.282
19167WAT     H157743   9.488   9.437   6.205
19167WAT     H257744   9.368   9.491   6.302
19168WAT      O57745   8.522   0.568   0.994
19168WAT     H157746   8.547   0.627   0.918
19168WAT     H257747   8.601   0.513   1.022
19169WAT      O57748   2.292   5.220   9.769
19169WAT     H157749   2.323   5.270   9.850
19169WAT     H257750   2.342   5.134   9.762
19170WAT      O57751   4.160   0.614   8.141
19170WAT     H157752   4.211   0.692   8.106
19170WAT     H257753   4.118   0.565   8.064
19171WAT      O57754   0.011   2.178   1.600
19171WAT     H157755  -0.072   2.217   1.641
19171WAT     H257756   0.056   2.247   1.544
19172WAT      O57757   5.774   9.493   3.984
19172WAT     H157758   5.814   9.558   3.918
19172WAT     H257759   5.842   9.471   4.054
19173WAT      O57760   9.148   8.322   6.421
19173WAT     H157761   9.054   8.296   6.443
19173WAT     H257762   9.151   8.357   6.327
19174WAT      O57763   0.053   2.353   8.788
19174WAT     H157764  -0.020   2.340   8.855
19174WAT     H257765   0.118   2.421   8.822
19175WAT      O57766   6.314   0.291   3.125
19175WAT     H157767   6.330   0.242   3.212
19175WAT     H257768   6.219   0.279   3.097
19176WAT      O57769   4.480   0.046   5.856
19176WAT     H157770   4.384   0.020   5.862
19176WAT     H257771   4.488   0.143   5.834
19177WAT      O57772   3.890   0.662   9.397
19177WAT     H157773   3.816   0.685   9.334
19177WAT     H257774   3.911   0.741   9.455
19178WAT      O57775   9.650   0.463   4.225
19178WAT     H157776   9.620   0.404   4.150
19178WAT     H257777   9.573   0.518   4.257
19179WAT      O57778   5.692   5.867   7.856
19179WAT     H157779   5.643   5.801   7.914
19179WAT     H257780   5.762   5.913   7.910
19180WAT      O57781   8.544   8.366   6.984
19180WAT     H157782   8.507   8.418   7.061
19180WAT     H257783   8.566   8.428   6.909
19181WAT      O57784   7.066   4.759   3.063
19181WAT     H157785   6.975   4.776   3.027
19181WAT     H257786   7.059   4.716   3.153
19182WAT      O57787   8.619   1.882   9.874
19182WAT     H157788   8.611   1.967   9.927
19182WAT     H257789   8.577   1.895   9.784
19183WAT      O57790   5.597   5.300   9.575
19183WAT     H157791   5.498   5.304   9.563
19183WAT     H257792   5.622   5.348   9.660
19184WAT      O57793   3.557   7.660   1.582
19184WAT     H157794   3.554   7.582   1.644
19184WAT     H257795   3.623   7.727   1.616
19185WAT      O57796   8.428   7.252   5.605
19185WAT     H157797   8.406   7.157   5.583
19185WAT     H257798   8.343   7.306   5.607
19186WAT      O57799   6.709   8.942   7.613
19186WAT     H157800   6.745   8.850   7.625
19186WAT     H257801   6.783   9.009   7.624
19187WAT      O57802   0.568   9.129   4.264
19187WAT     H157803   0.558   9.216   4.215
19187WAT     H257804   0.493   9.120   4.330
19188WAT      O57805   7.187   3.256   9.093
19188WAT     H157806   7.245   3.282   9.016
19188WAT     H257807   7.161   3.338   9.144
19189WAT      O57808   8.188   6.217   4.260
19189WAT     H157809   8.212   6.160   4.339
19189WAT     H257810   8.218   6.311   4.278
19190WAT      O57811   4.476   7.362   4.401
19190WAT     H157812   4.565   7.406   4.395
19190WAT     H257813   4.474   7.302   4.481
19191WAT      O57814   6.728   8.554   8.717
19191WAT     H157815   6.653   8.573   8.654
19191WAT     H257816   6.735   8.456   8.732
19192WAT      O57817   4.020   4.571   7.286
19192WAT     H157818   4.039   4.616   7.198
19192WAT     H257819   3.988   4.478   7.270
19193WAT      O57820   2.172   3.490   9.834
19193WAT     H157821   2.092   3.545   9.810
19193WAT     H257822   2.221   3.535   9.909
19194WAT      O57823   4.461   8.330   4.547
19194WAT     H157824   4.505   8.313   4.459
19194WAT     H257825   4.371   8.371   4.533
19195WAT      O57826   7.535   8.298   8.066
19195WAT     H157827   7.545   8.379   8.124
19195WAT     H257828   7.456   8.310   8.006
19196WAT      O57829   1.555   6.014   9.505
19196WAT     H157830   1.627   6.076   9.538
19196WAT     H257831   1.527   5.953   9.578
19197WAT      O57832   8.369   7.191   7.092
19197WAT     H157833   8.321   7.186   7.179
19197WAT     H257834   8.369   7.101   7.048
19198WAT      O57835   2.106   6.556   7.094
19198WAT     H157836   2.114   6.645   7.048
19198WAT     H257837   2.190   6.539   7.147
19199WAT      O57838   7.197   7.757   3.749
19199WAT     H157839   7.246   7.788   3.667
19199WAT     H257840   7.131   7.827   3.776
19200WAT      O57841   0.447   0.236   2.439
19200WAT     H157842   0.354   0.268   2.418
19200WAT     H257843   0.513   0.295   2.394
19201WAT      O57844   9.708   0.920   5.968
19201WAT     H157845   9.661   0.842   5.928
19201WAT     H257846   9.806   0.911   5.954
19202WAT      O57847   8.741   8.235   2.257
19202WAT     H157848   8.809   8.198   2.320
19202WAT     H257849   8.682   8.299   2.306
19203WAT      O57850   3.179   3.488   1.339
19203WAT     H157851   3.226   3.527   1.418
19203WAT     H257852   3.080   3.505   1.347
19204WAT      O57853   9.449   0.842   0.953
19204WAT     H157854   9.408   0.792   0.876
19204WAT     H257855   9.392   0.922   0.974
19205WAT      O57856   3.736   9.553   8.353
19205WAT     H157857   3.831   9.584   8.357
19205WAT     H257858   3.732   9.457   8.379
19206WAT      O57859   5.043   2.205   5.184
19206WAT     H157860   5.028   2.265   5.105
19206WAT     H257861   5.138   2.214   5.214
19207WAT      O57862   2.885   9.121   2.260
19207WAT     H157863   2.909   9.211   2.296
19207WAT     H257864   2.904   9.118   2.161
19208WAT      O57865   5.334   6.483   7.298
19208WAT     H157866   5.393   6.505   7.220
19208WAT     H257867   5.279   6.402   7.277
19209WAT      O57868   3.483   0.456   5.027
19209WAT     H157869   3.410   0.424   5.087
19209WAT     H257870   3.449   0.461   4.933
19210WAT      O57871   4.212   2.165   7.931
19210WAT     H157872   4.178   2.072   7.947
19210WAT     H257873   4.311   2.162   7.918
19211WAT      O57874   5.673   6.045   2.660
19211WAT     H157875   5.625   5.969   2.704
19211WAT     H257876   5.716   6.102   2.730
19212WAT      O57877   8.998   7.050   9.276
19212WAT     H157878   8.900   7.070   9.287
19212WAT     H257879   9.011   6.951   9.268
19213WAT      O57880   4.273   0.054   3.819
19213WAT     H157881   4.244  -0.040   3.802
19213WAT     H257882   4.299   0.097   3.733
19214WAT      O57883   8.973   9.702   7.949
19214WAT     H157884   9.066   9.736   7.966
19214WAT     H257885   8.976   9.624   7.887
19215WAT      O57886   4.104   4.589   9.130
19215WAT     H157887   4.072   4.672   9.174
19215WAT     H257888   4.077   4.589   9.034
19216WAT      O57889   4.155   6.579   5.789
19216WAT     H157890   4.134   6.484   5.814
19216WAT     H257891   4.124   6.640   5.862
19217WAT      O57892   3.218   1.853   2.458
19217WAT     H157893   3.296   1.791   2.452
19217WAT     H257894   3.239   1.927   2.522
19218WAT      O57895   3.418   4.331   7.683
19218WAT     H157896   3.474   4.370   7.756
19218WAT     H257897   3.388   4.404   7.622
19219WAT      O57898   4.251   8.635   9.464
19219WAT     H157899   4.310   8.613   9.542
19219WAT     H257900   4.308   8.660   9.385
19220WAT      O57901   8.198   6.804   2.442
19220WAT     H157902   8.124   6.754   2.486
19220WAT     H257903   8.173   6.823   2.346
19221WAT      O57904   9.709   7.604   4.431
19221WAT     H157905   9.621   7.606   4.384
19221WAT     H257906   9.754   7.693   4.421
19222WAT      O57907   7.663   9.640   1.344
19222WAT     H157908   7.754   9.675   1.320
19222WAT     H257909   7.605   9.715   1.374
19223WAT      O57910   4.491   4.068   2.968
19223WAT     H157911   4.539   4.129   2.904
19223WAT     H257912   4.404   4.110   2.994
19224WAT      O57913   1.319   8.538   8.165
19224WAT     H157914   1.270   8.623   8.187
19224WAT     H257915   1.417   8.551   8.184
19225WAT      O57916   4.822   0.590   2.653
19225WAT     H157917   4.794   0.653   2.580
19225WAT     H257918   4.767   0.506   2.646
19226WAT      O57919   8.256   3.831   4.859
19226WAT     H157920   8.298   3.906   4.808
19226WAT     H257921   8.200   3.868   4.933
19227WAT      O57922   6.072   0.865   7.484
19227WAT     H157923   6.142   0.864   7.555
19227WAT     H257924   5.984   0.891   7.523
19228WAT      O57925   1.744   6.836   9.465
19228WAT     H157926   1.765   6.837   9.367
19228WAT     H257927   1.830   6.831   9.517
19229WAT      O57928   7.017   8.319   7.816
19229WAT     H157929   7.020   8.418   7.821
19229WAT     H257930   6.982   8.282   7.902
19230WAT      O57931   6.056   2.513   6.970
19230WAT     H157932   6.017   2.588   7.023
19230WAT     H257933   6.070   2.543   6.875
19231WAT      O57934   2.262   2.173   9.107
19231WAT     H157935   2.172   2.137   9.083
19231WAT     H257936   2.311   2.107   9.163
19232WAT      O57937   1.511   9.215   3.582
19232WAT     H157938   1.609   9.230   3.595
19232WAT     H257939   1.494   9.187   3.487
19233WAT      O57940   5.002   6.955   5.132
19233WAT     H157941   4.914   6.987   5.097
19233WAT     H257942   5.026   7.006   5.215
19234WAT      O57943   3.570   6.239   4.748
19234WAT     H157944   3.542   6.159   4.695
19234WAT     H257945   3.669   6.248   4.746
19235WAT      O57946   6.996   0.529   3.298
19235WAT     H157947   6.929   0.587   3.252
19235WAT     H257948   6.948   0.461   3.354
19236WAT      O57949   6.042   7.095   0.214
19236WAT     H157950   6.132   7.126   0.183
19236WAT     H257951   6.050   7.006   0.258
19237WAT      O57952   6.854   7.553   9.027
19237WAT     H157953   6.876   7.624   9.094
19237WAT     H257954   6.821   7.472   9.074
19238WAT      O57955   0.446   8.741   5.532
19238WAT     H157956   0.468   8.692   5.447
19238WAT     H257957   0.441   8.839   5.514
19239WAT      O57958   6.237   3.910   8.165
19239WAT     H157959   6.185   3.911   8.250
19239WAT     H257960   6.334   3.896   8.185
19240WAT      O57961   4.019   8.754   9.084
19240WAT     H157962   4.098   8.777   9.029
19240WAT     H257963   3.940   8.808   9.054
19241WAT      O57964   2.645   4.818   3.854
19241WAT     H157965   2.664   4.827   3.757
19241WAT     H257966   2.647   4.722   3.880
19242WAT      O57967   6.334   8.346   8.954
19242WAT     H157968   6.315   8.285   9.031
19242WAT     H257969   6.302   8.304   8.869
19243WAT      O57970   5.752   4.982   0.436
19243WAT     H157971   5.850   4.988   0.418
19243WAT     H257972   5.706   5.063   0.398
19244WAT      O57973   6.901   7.514   7.611
19244WAT     H157974   6.948   7.425   7.607
19244WAT     H257975   6.811   7.506   7.568
19245WAT      O57976   6.942   3.045   7.918
19245WAT     H157977   6.936   2.945   7.922
19245WAT     H257978   6.940   3.082   8.010
19246WAT      O57979   5.975   1.383   7.358
19246WAT     H157980   5.908   1.371   7.285
19246WAT     H257981   6.012   1.294   7.384
19247WAT      O57982   7.037   7.178   1.962
19247WAT     H157983   6.995   7.258   1.918
19247WAT     H257984   6.965   7.119   1.998
19248WAT      O57985   0.010   2.153   7.406
19248WAT     H157986   0.107   2.160   7.430
19248WAT     H257987  -0.044   2.208   7.469
19249WAT      O57988   9.747   4.438   6.955
19249WAT     H157989   9.816   4.486   7.010
19249WAT     H257990   9.785   4.418   6.865
19250WAT      O57991   4.644   8.956   5.185
19250WAT     H157992   4.717   8.894   5.156
19250WAT     H257993   4.641   8.959   5.285
19251WAT      O57994   5.492   5.528   1.776
19251WAT     H157995   5.520   5.516   1.681
19251WAT     H257996   5.484   5.439   1.820
19252WAT      O57997   1.879   4.186   0.074
19252WAT     H157998   1.813   4.183   0.149
19252WAT     H257999   1.853   4.119   0.005
19253WAT      O58000   1.535   3.272   3.202
19253WAT     H158001   1.459   3.301   3.260
19253WAT     H258002   1.513   3.185   3.158
19254WAT      O58003   5.368   0.118   1.609
19254WAT     H158004   5.374   0.216   1.595
19254WAT     H258005   5.335   0.100   1.702
19255WAT      O58006   6.654   7.874   8.602
19255WAT     H158007   6.720   7.938   8.564
19255WAT     H258008   6.629   7.806   8.534
19256WAT      O58009   9.704   7.209   2.179
19256WAT     H158010   9.788   7.177   2.136
19256WAT     H258011   9.687   7.304   2.153
19257WAT      O58012   0.534   9.510   6.106
19257WAT     H158013   0.588   9.441   6.154
19257WAT     H258014   0.590   9.592   6.092
19258WAT      O58015   3.886   0.801   8.311
19258WAT     H158016   3.939   0.733   8.361
19258WAT     H258017   3.837   0.757   8.236
19259WAT      O58018   2.682   4.517   9.394
19259WAT     H158019   2.681   4.453   9.316
19259WAT     H258020   2.777   4.541   9.415
19260WAT      O58021   8.733   1.921   5.510
19260WAT     H158022   8.664   1.952   5.445
19260WAT     H258023   8.799   1.995   5.527
19261WAT      O58024   4.637   1.598   8.430
19261WAT     H158025   4.701   1.575   8.504
19261WAT     H258026   4.686   1.603   8.344
19262WAT      O58027   4.896   9.473   4.836
19262WAT     H158028   4.917   9.376   4.848
19262WAT     H258029   4.944   9.526   4.906
19263WAT      O58030   5.205   6.372   3.857
19263WAT     H158031   5.193   6.428   3.775
19263WAT     H258032   5.302   6.370   3.881
19264WAT      O58033   4.118   5.338   2.091
19264WAT     H158034   4.200   5.388   2.064
19264WAT     H258035   4.082   5.376   2.176
19265WAT      O58036   6.098   4.177   8.435
19265WAT     H158037   6.147   4.250   8.387
19265WAT     H258038   6.000   4.187   8.418
19266WAT      O58039   6.990   6.834   2.286
19266WAT     H158040   7.045   6.911   2.252
19266WAT     H258041   6.893   6.858   2.282
19267WAT      O58042   0.974   2.278   5.630
19267WAT     H158043   1.021   2.294   5.543
19267WAT     H258044   0.886   2.326   5.630
19268WAT      O58045   7.545   1.794   3.154
19268WAT     H158046   7.513   1.800   3.248
19268WAT     H258047   7.470   1.815   3.091
19269WAT      O58048   0.331   3.715   7.131
19269WAT     H158049   0.404   3.647   7.125
19269WAT     H258050   0.269   3.693   7.207
19270WAT      O58051   1.228   1.106   9.047
19270WAT     H158052   1.207   1.014   9.082
19270WAT     H258053   1.257   1.164   9.123
19271WAT      O58054   5.775   6.897   4.503
19271WAT     H158055   5.836   6.927   4.429
19271WAT     H258056   5.792   6.952   4.584
19272WAT      O58057   0.373   0.381   6.881
19272WAT     H158058   0.368   0.287   6.913
19272WAT     H258059   0.289   0.429   6.905
19273WAT      O58060   6.293   0.126   1.687
19273WAT     H158061   6.308   0.093   1.780
19273WAT     H258062   6.309   0.052   1.622
19274WAT      O58063   6.800   0.523   0.391
19274WAT     H158064   6.720   0.517   0.452
19274WAT     H258065   6.773   0.495   0.299
19275WAT      O58066   3.694   3.763   5.312
19275WAT     H158067   3.648   3.674   5.324
19275WAT     H258068   3.791   3.753   5.334
19276WAT      O58069   4.780   0.240   6.483
19276WAT     H158070   4.796   0.300   6.405
19276WAT     H258071   4.834   0.156   6.472
19277WAT      O58072   6.802   5.661   7.542
19277WAT     H158073   6.898   5.637   7.560
19277WAT     H258074   6.772   5.615   7.459
19278WAT      O58075   7.222   4.160   5.019
19278WAT     H158076   7.287   4.085   5.030
19278WAT     H258077   7.267   4.237   4.973
19279WAT      O58078   0.515   3.860   0.837
19279WAT     H158079   0.491   3.956   0.819
19279WAT     H258080   0.608   3.856   0.875
19280WAT      O58081   0.103   3.983   6.017
19280WAT     H158082   0.044   3.925   6.073
19280WAT     H258083   0.124   4.067   6.066
19281WAT      O58084   7.514   8.456   2.242
19281WAT     H158085   7.438   8.392   2.229
19281WAT     H258086   7.483   8.531   2.301
19282WAT      O58087   7.493   8.850   0.051
19282WAT     H158088   7.448   8.771   0.093
19282WAT     H258089   7.454   8.934   0.089
19283WAT      O58090   9.619   1.000   7.288
19283WAT     H158091   9.604   1.099   7.283
19283WAT     H258092   9.686   0.981   7.360
19284WAT      O58093   3.835   5.721   4.658
19284WAT     H158094   3.844   5.819   4.641
19284WAT     H258095   3.873   5.670   4.582
19285WAT      O58096   6.970   0.047   0.121
19285WAT     H158097   6.916  -0.037   0.114
19285WAT     H258098   7.057   0.027   0.165
19286WAT      O58099   6.829   0.522   4.693
19286WAT     H158100   6.799   0.528   4.788
19286WAT     H258101   6.810   0.608   4.646
19287WAT      O58102   5.515   1.602   6.014
19287WAT     H158103   5.431   1.631   6.060
19287WAT     H258104   5.500   1.515   5.969
19288WAT      O58105   7.909   4.048   0.262
19288WAT     H158106   7.931   3.966   0.314
19288WAT     H258107   7.918   4.128   0.321
19289WAT      O58108   7.800   1.318   7.335
19289WAT     H158109   7.720   1.259   7.345
19289WAT     H258110   7.883   1.261   7.337
19290WAT      O58111   5.327   0.801   1.195
19290WAT     H158112   5.397   0.825   1.263
19290WAT     H258113   5.252   0.867   1.201
19291WAT      O58114   2.526   7.110   6.202
19291WAT     H158115   2.519   7.197   6.154
19291WAT     H258116   2.604   7.058   6.166
19292WAT      O58117   7.359   4.195   0.254
19292WAT     H158118   7.354   4.255   0.334
19292WAT     H258119   7.304   4.113   0.270
19293WAT      O58120   2.753   4.524   5.418
19293WAT     H158121   2.768   4.460   5.494
19293WAT     H258122   2.803   4.492   5.338
19294WAT      O58123   5.476   8.410   7.105
19294WAT     H158124   5.417   8.352   7.161
19294WAT     H258125   5.570   8.406   7.141
19295WAT      O58126   7.339   4.348   0.476
19295WAT     H158127   7.272   4.416   0.507
19295WAT     H258128   7.320   4.261   0.522
19296WAT      O58129   1.530   0.322   4.230
19296WAT     H158130   1.481   0.329   4.317
19296WAT     H258131   1.569   0.231   4.221
19297WAT      O58132   0.686   1.625   3.845
19297WAT     H158133   0.700   1.693   3.918
19297WAT     H258134   0.707   1.534   3.880
19298WAT      O58135   3.813   0.565   2.633
19298WAT     H158136   3.861   0.478   2.647
19298WAT     H258137   3.719   0.546   2.604
19299WAT      O58138   3.810   6.069   2.042
19299WAT     H158139   3.906   6.039   2.040
19299WAT     H258140   3.796   6.140   1.973
19300WAT      O58141   4.518   2.009   0.996
19300WAT     H158142   4.474   1.956   1.069
19300WAT     H258143   4.605   2.045   1.029
19301WAT      O58144   3.137   6.159   6.373
19301WAT     H158145   3.153   6.256   6.358
19301WAT     H258146   3.213   6.120   6.425
19302WAT      O58147   6.977   0.870   7.118
19302WAT     H158148   6.880   0.848   7.127
19302WAT     H258149   7.018   0.814   7.047
19303WAT      O58150   2.958   1.667   9.769
19303WAT     H158151   2.890   1.643   9.838
19303WAT     H258152   2.939   1.616   9.685
19304WAT      O58153   8.898   7.274   6.479
19304WAT     H158154   8.988   7.287   6.439
19304WAT     H258155   8.827   7.297   6.412
19305WAT      O58156   0.483   3.333   6.908
19305WAT     H158157   0.525   3.327   6.817
19305WAT     H258158   0.549   3.302   6.977
19306WAT      O58159   3.882   6.747   0.631
19306WAT     H158160   3.792   6.757   0.588
19306WAT     H258161   3.953   6.774   0.566
19307WAT      O58162   3.336   7.511   1.143
19307WAT     H158163   3.327   7.565   1.227
19307WAT     H258164   3.286   7.556   1.070
19308WAT      O58165   4.046   5.794   3.036
19308WAT     H158166   4.094   5.829   2.956
19308WAT     H258167   4.085   5.833   3.119
19309WAT      O58168   7.592   1.903   4.533
19309WAT     H158169   7.545   1.983   4.570
19309WAT     H258170   7.538   1.821   4.549
19310WAT      O58171   0.270   8.485   9.857
19310WAT     H158172   0.247   8.527   9.945
19310WAT     H258173   0.278   8.386   9.869
19311WAT      O58174   3.235   6.713   2.619
19311WAT     H158175   3.157   6.775   2.615
19311WAT     H258176   3.311   6.751   2.566
19312WAT      O58177   9.635   5.303   6.461
19312WAT     H158178   9.735   5.308   6.456
19312WAT     H258179   9.604   5.353   6.542
19313WAT      O58180   0.900   0.468   1.193
19313WAT     H158181   0.942   0.539   1.250
19313WAT     H258182   0.843   0.512   1.123
19314WAT      O58183   7.742   4.362   9.779
19314WAT     H158184   7.702   4.308   9.705
19314WAT     H258185   7.756   4.456   9.748
19315WAT      O58186   0.246   1.462   3.226
19315WAT     H158187   0.336   1.445   3.186
19315WAT     H258188   0.190   1.379   3.219
19316WAT      O58189   7.176   2.817   9.353
19316WAT     H158190   7.164   2.888   9.422
19316WAT     H258191   7.255   2.760   9.377
19317WAT      O58192   8.159   2.148   0.286
19317WAT     H158193   8.225   2.073   0.282
19317WAT     H258194   8.141   2.183   0.194
19318WAT      O58195   1.264   3.358   4.166
19318WAT     H158196   1.360   3.371   4.141
19318WAT     H258197   1.226   3.284   4.111
19319WAT      O58198   0.307   3.725   4.678
19319WAT     H158199   0.400   3.708   4.645
19319WAT     H258200   0.308   3.801   4.743
19320WAT      O58201   6.786   8.044   5.254
19320WAT     H158202   6.827   7.974   5.313
19320WAT     H258203   6.849   8.067   5.180
19321WAT      O58204   6.498   3.961   0.783
19321WAT     H158205   6.572   3.905   0.820
19321WAT     H258206   6.437   3.989   0.857
19322WAT      O58207   7.891   8.347   2.871
19322WAT     H158208   7.845   8.414   2.930
19322WAT     H258209   7.913   8.390   2.783
19323WAT      O58210   7.495   8.880   3.530
19323WAT     H158211   7.479   8.827   3.613
19323WAT     H258212   7.523   8.973   3.554
19324WAT      O58213   7.549   9.829   2.131
19324WAT     H158214   7.510   9.899   2.189
19324WAT     H258215   7.642   9.808   2.162
19325WAT      O58216   8.346   4.211   1.424
19325WAT     H158217   8.319   4.115   1.429
19325WAT     H258218   8.376   4.232   1.331
19326WAT      O58219   9.551   8.610   7.756
19326WAT     H158220   9.630   8.558   7.725
19326WAT     H258221   9.573   8.655   7.843
19327WAT      O58222   6.383   4.719   5.585
19327WAT     H158223   6.330   4.671   5.654
19327WAT     H258224   6.394   4.660   5.504
19328WAT      O58225   8.259   5.137   4.808
19328WAT     H158226   8.319   5.141   4.729
19328WAT     H258227   8.180   5.078   4.787
19329WAT      O58228   2.251   1.273   1.652
19329WAT     H158229   2.336   1.325   1.660
19329WAT     H258230   2.272   1.178   1.627
19330WAT      O58231   1.322   6.465   5.659
19330WAT     H158232   1.307   6.478   5.561
19330WAT     H258233   1.420   6.453   5.677
19331WAT      O58234   6.286   6.177   5.066
19331WAT     H158235   6.318   6.085   5.043
19331WAT     H258236   6.237   6.215   4.989
19332WAT      O58237   1.287   9.172   1.920
19332WAT     H158238   1.341   9.222   1.852
19332WAT     H258239   1.218   9.233   1.959
19333WAT      O58240   0.613   1.936   8.273
19333WAT     H158241   0.621   2.020   8.327
19333WAT     H258242   0.532   1.886   8.303
19334WAT      O58243   5.838   9.792   2.531
19334WAT     H158244   5.922   9.744   2.507
19334WAT     H258245   5.859   9.886   2.556
19335WAT      O58246   8.389   5.495   1.527
19335WAT     H158247   8.485   5.516   1.545
19335WAT     H258248   8.382   5.435   1.446
19336WAT      O58249   4.214   2.530   5.532
19336WAT     H158250   4.195   2.439   5.496
19336WAT     H258251   4.160   2.598   5.482
19337WAT      O58252   6.493   1.278   6.875
19337WAT     H158253   6.411   1.247   6.923
19337WAT     H258254   6.530   1.359   6.921
19338WAT      O58255   1.090   4.014   7.842
19338WAT     H158256   1.116   3.979   7.752
19338WAT     H258257   1.164   3.997   7.907
19339WAT      O58258   4.409   1.161   0.033
19339WAT     H158259   4.335   1.220   0.064
19339WAT     H258260   4.455   1.121   0.112
19340WAT      O58261   3.264   9.496   7.866
19340WAT     H158262   3.222   9.587   7.861
19340WAT     H258263   3.363   9.505   7.857
19341WAT      O58264   9.185   6.334   9.569
19341WAT     H158265   9.176   6.410   9.633
19341WAT     H258266   9.160   6.366   9.477
19342WAT      O58267   0.321   4.166   5.116
19342WAT     H158268   0.224   4.161   5.138
19342WAT     H258269   0.343   4.258   5.081
19343WAT      O58270   6.156   4.164   0.038
19343WAT     H158271   6.196   4.121  -0.043
19343WAT     H258272   6.137   4.094   0.107
19344WAT      O58273   0.116   4.158   6.900
19344WAT     H158274   0.056   4.124   6.972
19344WAT     H258275   0.143   4.252   6.921
19345WAT      O58276   4.008   7.421   1.498
19345WAT     H158277   3.966   7.330   1.488
19345WAT     H258278   3.945   7.481   1.547
19346WAT      O58279   3.338   5.919   4.417
19346WAT     H158280   3.318   5.942   4.321
19346WAT     H258281   3.291   5.833   4.440
19347WAT      O58282   4.681   2.127   9.668
19347WAT     H158283   4.592   2.086   9.686
19347WAT     H258284   4.682   2.221   9.704
19348WAT      O58285   1.637   1.827   9.063
19348WAT     H158286   1.594   1.748   9.107
19348WAT     H258287   1.568   1.897   9.046
19349WAT      O58288   5.218   1.245   6.871
19349WAT     H158289   5.238   1.254   6.774
19349WAT     H258290   5.152   1.171   6.885
19350WAT      O58291   8.642   2.488   9.271
19350WAT     H158292   8.579   2.550   9.318
19350WAT     H258293   8.672   2.530   9.186
19351WAT      O58294   2.939   8.867   0.830
19351WAT     H158295   2.864   8.805   0.808
19351WAT     H258296   2.956   8.865   0.929
19352WAT      O58297   9.826   8.284   6.324
19352WAT     H158298   9.877   8.240   6.250
19352WAT     H258299   9.887   8.346   6.373
19353WAT      O58300   5.606   4.621   0.707
19353WAT     H158301   5.537   4.574   0.652
19353WAT     H258302   5.621   4.713   0.670
19354WAT      O58303   9.648   0.838   9.452
19354WAT     H158304   9.744   0.829   9.426
19354WAT     H258305   9.590   0.829   9.371
19355WAT      O58306   3.338   5.313   8.292
19355WAT     H158307   3.310   5.219   8.310
19355WAT     H258308   3.261   5.364   8.253
19356WAT      O58309   5.278   2.469   7.481
19356WAT     H158310   5.294   2.382   7.435
19356WAT     H258311   5.283   2.456   7.580
19357WAT      O58312   4.617   5.677   4.113
19357WAT     H158313   4.680   5.672   4.035
19357WAT     H258314   4.607   5.773   4.141
19358WAT      O58315   4.683   4.850   2.680
19358WAT     H158316   4.618   4.925   2.676
19358WAT     H258317   4.646   4.771   2.631
19359WAT      O58318   9.882   3.215   2.403
19359WAT     H158319   9.848   3.224   2.496
19359WAT     H258320   9.876   3.304   2.357
19360WAT      O58321   6.547   6.084   0.777
19360WAT     H158322   6.560   6.173   0.822
19360WAT     H258323   6.488   6.097   0.697
19361WAT      O58324   3.515   0.550   9.070
19361WAT     H158325   3.422   0.513   9.064
19361WAT     H258326   3.529   0.616   8.997
19362WAT      O58327   4.646   3.061   1.743
19362WAT     H158328   4.637   3.142   1.800
19362WAT     H258329   4.602   2.983   1.787
19363WAT      O58330   3.717   6.828   0.830
19363WAT     H158331   3.727   6.927   0.821
19363WAT     H258332   3.792   6.782   0.782
19364WAT      O58333   9.564   3.331   3.333
19364WAT     H158334   9.589   3.421   3.369
19364WAT     H258335   9.535   3.272   3.409
19365WAT      O58336   6.306   0.424   9.048
19365WAT     H158337   6.385   0.481   9.025
19365WAT     H258338   6.323   0.330   9.020
19366WAT      O58339   0.269   7.564   8.494
19366WAT     H158340   0.365   7.590   8.485
19366WAT     H258341   0.253   7.523   8.584
19367WAT      O58342   3.621   8.283   5.918
19367WAT     H158343   3.597   8.378   5.937
19367WAT     H258344   3.656   8.275   5.825
19368WAT      O58345   3.466   4.718   6.578
19368WAT     H158346   3.559   4.721   6.616
19368WAT     H258347   3.472   4.709   6.479
19369WAT      O58348   1.627   4.783   5.062
19369WAT     H158349   1.633   4.685   5.083
19369WAT     H258350   1.531   4.812   5.066
19370WAT      O58351   7.915   7.335   6.529
19370WAT     H158352   7.878   7.354   6.438
19370WAT     H258353   7.866   7.390   6.597
19371WAT      O58354   3.371   1.274   8.259
19371WAT     H158355   3.440   1.274   8.331
19371WAT     H258356   3.377   1.359   8.206
19372WAT      O58357   3.908   1.415   5.114
19372WAT     H158358   3.829   1.376   5.067
19372WAT     H258359   3.990   1.399   5.060
19373WAT      O58360   0.939   3.552   8.960
19373WAT     H158361   1.009   3.488   8.929
19373WAT     H258362   0.981   3.641   8.980
19374WAT      O58363   1.915   8.228   5.139
19374WAT     H158364   1.981   8.272   5.078
19374WAT     H258365   1.870   8.153   5.091
19375WAT      O58366   2.952   4.705   7.387
19375WAT     H158367   2.925   4.797   7.357
19375WAT     H258368   2.963   4.646   7.308
19376WAT      O58369   4.862   7.502   1.813
19376WAT     H158370   4.836   7.463   1.901
19376WAT     H258371   4.918   7.584   1.828
19377WAT      O58372   1.244   2.817   7.925
19377WAT     H158373   1.198   2.729   7.910
19377WAT     H258374   1.219   2.881   7.852
19378WAT      O58375   1.049   8.728   9.130
19378WAT     H158376   1.112   8.677   9.189
19378WAT     H258377   1.083   8.726   9.036
19379WAT      O58378   5.833   5.386   4.225
19379WAT     H158379   5.860   5.290   4.224
19379WAT     H258380   5.738   5.395   4.195
19380WAT      O58381   1.662   4.398   2.681
19380WAT     H158382   1.683   4.303   2.699
19380WAT     H258383   1.686   4.420   2.586
19381WAT      O58384   2.558   3.186   9.686
19381WAT     H158385   2.610   3.191   9.771
19381WAT     H258386   2.594   3.253   9.621
19382WAT      O58387   4.756   2.397   7.936
19382WAT     H158388   4.816   2.373   7.859
19382WAT     H258389   4.688   2.463   7.905
19383WAT      O58390   4.364   4.823   8.767
19383WAT     H158391   4.327   4.868   8.848
19383WAT     H258392   4.326   4.867   8.685
19384WAT      O58393   4.827   1.925   9.787
19384WAT     H158394   4.783   2.013   9.770
19384WAT     H258395   4.760   1.860   9.824
19385WAT      O58396   4.609   9.648   5.907
19385WAT     H158397   4.579   9.733   5.863
19385WAT     H258398   4.529   9.595   5.935
19386WAT      O58399   4.121   4.171   0.640
19386WAT     H158400   4.118   4.072   0.646
19386WAT     H258401   4.208   4.199   0.600
19387WAT      O58402   5.376   8.038   8.801
19387WAT     H158403   5.366   8.002   8.894
19387WAT     H258404   5.295   8.091   8.776
19388WAT      O58405   6.797   3.221   7.298
19388WAT     H158406   6.790   3.214   7.198
19388WAT     H258407   6.848   3.143   7.333
19389WAT      O58408   6.908   4.525   8.581
19389WAT     H158409   6.997   4.550   8.619
19389WAT     H258410   6.836   4.548   8.646
19390WAT      O58411   5.115   8.627   1.653
19390WAT     H158412   5.127   8.626   1.752
19390WAT     H258413   5.131   8.720   1.618
19391WAT      O58414   5.370   9.592   5.881
19391WAT     H158415   5.342   9.505   5.922
19391WAT     H258416   5.459   9.581   5.837
19392WAT      O58417   8.449   5.827   8.176
19392WAT     H158418   8.413   5.894   8.111
19392WAT     H258419   8.542   5.854   8.203
19393WAT      O58420   3.395   9.073   2.390
19393WAT     H158421   3.495   9.081   2.390
19393WAT     H258422   3.367   9.001   2.326
19394WAT      O58423   6.612   4.553   3.588
19394WAT     H158424   6.559   4.583   3.508
19394WAT     H258425   6.610   4.453   3.592
19395WAT      O58426   7.934   2.988   4.561
19395WAT     H158427   7.946   2.898   4.605
19395WAT     H258428   7.936   3.059   4.631
19396WAT      O58429   6.113   2.841   4.962
19396WAT     H158430   6.210   2.823   4.980
19396WAT     H258431   6.064   2.852   5.048
19397WAT      O58432   5.814   9.472   8.038
19397WAT     H158433   5.753   9.537   7.991
19397WAT     H258434   5.902   9.517   8.055
19398WAT      O58435   1.604   2.454   5.002
19398WAT     H158436   1.599   2.372   5.060
19398WAT     H258437   1.572   2.534   5.055
19399WAT      O58438   7.563   1.038   5.421
19399WAT     H158439   7.570   0.964   5.355
19399WAT     H258440   7.635   1.028   5.490
19400WAT      O58441   3.231   8.490   0.811
19400WAT     H158442   3.184   8.555   0.871
19400WAT     H258443   3.326   8.519   0.800
19401WAT      O58444   5.509   2.556   1.155
19401WAT     H158445   5.495   2.560   1.056
19401WAT     H258446   5.553   2.640   1.186
19402WAT      O58447   1.092   3.204   7.852
19402WAT     H158448   1.029   3.131   7.877
19402WAT     H258449   1.067   3.288   7.901
19403WAT      O58450   8.369   6.908   9.706
19403WAT     H158451   8.430   6.872   9.635
19403WAT     H258452   8.413   6.987   9.749
19404WAT      O58453   4.446   9.591   8.403
19404WAT     H158454   4.489   9.510   8.366
19404WAT     H258455   4.472   9.671   8.350
19405WAT      O58456   9.210   1.891   4.078
19405WAT     H158457   9.128   1.839   4.054
19405WAT     H258458   9.254   1.848   4.157
19406WAT      O58459   9.274   2.983   5.322
19406WAT     H158460   9.339   2.986   5.398
19406WAT     H258461   9.192   3.034   5.347
19407WAT      O58462   4.979   6.328   4.509
19407WAT     H158463   5.027   6.322   4.421
19407WAT     H258464   4.994   6.419   4.548
19408WAT      O58465   1.334   9.515   7.721
19408WAT     H158466   1.280   9.587   7.677
19408WAT     H258467   1.323   9.430   7.670
19409WAT      O58468   2.749   9.632   2.784
19409WAT     H158469   2.838   9.607   2.824
19409WAT     H258470   2.723   9.563   2.717
19410WAT      O58471   6.405   6.811   6.680
19410WAT     H158472   6.491   6.815   6.731
19410WAT     H258473   6.339   6.875   6.720
19411WAT      O58474   7.668   0.941   6.709
19411WAT     H158475   7.614   0.954   6.792
19411WAT     H258476   7.701   0.847   6.705
19412WAT      O58477   4.566   4.979   4.666
19412WAT     H158478   4.622   5.061   4.679
19412WAT     H258479   4.564   4.926   4.750
19413WAT      O58480   8.559   7.702   9.020
19413WAT     H158481   8.579   7.614   8.976
19413WAT     H258482   8.491   7.752   8.967
19414WAT      O58483   2.103   8.708   5.904
19414WAT     H158484   2.042   8.673   5.833
19414WAT     H258485   2.090   8.657   5.989
19415WAT      O58486   6.856   8.386   6.547
19415WAT     H158487   6.883   8.434   6.464
19415WAT     H258488   6.885   8.439   6.627
19416WAT      O58489   5.624   0.626   3.069
19416WAT     H158490   5.586   0.666   3.152
19416WAT     H258491   5.695   0.560   3.094
19417WAT      O58492   7.334   7.761   4.550
19417WAT     H158493   7.329   7.751   4.650
19417WAT     H258494   7.266   7.828   4.521
19418WAT      O58495   5.448   3.844   5.535
19418WAT     H158496   5.415   3.926   5.487
19418WAT     H258497   5.372   3.781   5.549
19419WAT      O58498   7.996   8.240   5.317
19419WAT     H158499   7.993   8.275   5.223
19419WAT     H258500   8.030   8.146   5.317
19420WAT      O58501   2.764   1.527   6.124
19420WAT     H158502   2.768   1.520   6.025
19420WAT     H258503   2.695   1.596   6.150
19421WAT      O58504   2.945   3.736   3.525
19421WAT     H158505   2.970   3.642   3.502
19421WAT     H258506   3.005   3.799   3.475
19422WAT      O58507   5.104   2.004   2.186
19422WAT     H158508   5.083   1.994   2.088
19422WAT     H258509   5.179   2.068   2.198
19423WAT      O58510   1.879   6.546   5.290
19423WAT     H158511   1.849   6.639   5.311
19423WAT     H258512   1.949   6.549   5.219
19424WAT      O58513   6.421   0.592   5.394
19424WAT     H158514   6.344   0.650   5.421
19424WAT     H258515   6.411   0.563   5.299
19425WAT      O58516   3.098   3.457   2.150
19425WAT     H158517   3.177   3.457   2.090
19425WAT     H258518   3.123   3.419   2.239
19426WAT      O58519   8.258   3.510   0.927
19426WAT     H158520   8.281   3.537   1.021
19426WAT     H258521   8.329   3.449   0.892
19427WAT      O58522   1.083   0.481   0.533
19427WAT     H158523   1.038   0.528   0.609
19427WAT     H258524   1.023   0.482   0.453
19428WAT      O58525   5.385   0.793   0.919
19428WAT     H158526   5.332   0.713   0.891
19428WAT     H258527   5.352   0.825   1.008
19429WAT      O58528   0.345   5.239   6.691
19429WAT     H158529   0.368   5.144   6.671
19429WAT     H258530   0.354   5.256   6.790
19430WAT      O58531   5.718   6.617   3.794
19430WAT     H158532   5.776   6.558   3.738
19430WAT     H258533   5.749   6.615   3.889
19431WAT      O58534   9.835   7.166   5.755
19431WAT     H158535   9.796   7.074   5.758
19431WAT     H258536   9.802   7.215   5.674
19432WAT      O58537   9.867   1.200   5.794
19432WAT     H158538   9.865   1.236   5.701
19432WAT     H258539   9.777   1.165   5.819
19433WAT      O58540   3.857   0.026   7.881
19433WAT     H158541   3.768   0.028   7.836
19433WAT     H258542   3.869  -0.062   7.929
19434WAT      O58543   8.877   4.330   0.472
19434WAT     H158544   8.798   4.311   0.413
19434WAT     H258545   8.932   4.248   0.481
19435WAT      O58546   2.303   6.312   6.715
19435WAT     H158547   2.343   6.373   6.783
19435WAT     H258548   2.228   6.261   6.755
19436WAT      O58549   5.287   0.614   2.574
19436WAT     H158550   5.294   0.681   2.649
19436WAT     H258551   5.267   0.524   2.612
19437WAT      O58552   8.993   5.279   2.794
19437WAT     H158553   9.009   5.182   2.807
19437WAT     H258554   9.075   5.330   2.818
19438WAT      O58555   9.632   6.284   8.691
19438WAT     H158556   9.599   6.376   8.714
19438WAT     H258557   9.562   6.237   8.636
19439WAT      O58558   3.052   4.286   7.087
19439WAT     H158559   3.121   4.309   7.018
19439WAT     H258560   3.097   4.260   7.172
19440WAT      O58561   8.904   2.505   0.339
19440WAT     H158562   8.940   2.445   0.410
19440WAT     H258563   8.812   2.534   0.363
19441WAT      O58564   2.766   4.197   2.565
19441WAT     H158565   2.724   4.285   2.543
19441WAT     H258566   2.753   4.177   2.662
19442WAT      O58567   8.929   0.290   5.741
19442WAT     H158568   8.907   0.340   5.657
19442WAT     H258569   8.889   0.337   5.820
19443WAT      O58570   5.612   2.162   2.262
19443WAT     H158571   5.686   2.206   2.212
19443WAT     H258572   5.531   2.221   2.261
19444WAT      O58573   7.847   6.133   5.269
19444WAT     H158574   7.821   6.074   5.346
19444WAT     H258575   7.943   6.160   5.279
19445WAT      O58576   6.697   0.077   6.422
19445WAT     H158577   6.787   0.119   6.408
19445WAT     H258578   6.654   0.116   6.504
19446WAT      O58579   3.442   9.750   1.031
19446WAT     H158580   3.364   9.800   1.069
19446WAT     H258581   3.519   9.756   1.095
19447WAT      O58582   3.162   2.723   0.320
19447WAT     H158583   3.079   2.686   0.278
19447WAT     H258584   3.243   2.681   0.280
19448WAT      O58585   9.100   0.397   5.445
19448WAT     H158586   9.163   0.389   5.522
19448WAT     H258587   9.150   0.384   5.359
19449WAT      O58588   2.110   0.745   2.663
19449WAT     H158589   2.146   0.675   2.601
19449WAT     H258590   2.032   0.708   2.714
19450WAT      O58591   1.994   5.955   3.397
19450WAT     H158592   1.911   5.940   3.452
19450WAT     H258593   2.012   5.874   3.342
19451WAT      O58594   4.533   8.840   1.428
19451WAT     H158595   4.470   8.882   1.363
19451WAT     H258596   4.616   8.896   1.436
19452WAT      O58597   6.300   8.742   9.248
19452WAT     H158598   6.308   8.841   9.266
19452WAT     H258599   6.386   8.697   9.272
19453WAT      O58600   0.753   8.452   5.581
19453WAT     H158601   0.745   8.540   5.535
19453WAT     H258602   0.663   8.407   5.584
19454WAT      O58603   5.471   2.120   1.340
19454WAT     H158604   5.487   2.059   1.262
19454WAT     H258605   5.376   2.152   1.338
19455WAT      O58606   7.751   4.389   6.504
19455WAT     H158607   7.682   4.445   6.458
19455WAT     H258608   7.842   4.425   6.484
19456WAT      O58609   3.559   3.800   8.772
19456WAT     H158610   3.558   3.726   8.840
19456WAT     H258611   3.466   3.823   8.746
19457WAT      O58612   0.883   2.291   2.619
19457WAT     H158613   0.901   2.249   2.708
19457WAT     H258614   0.794   2.337   2.620
19458WAT      O58615   6.103   4.610   8.553
19458WAT     H158616   6.038   4.650   8.618
19458WAT     H258617   6.144   4.528   8.593
19459WAT      O58618   9.697   8.483   2.910
19459WAT     H158619   9.796   8.480   2.917
19459WAT     H258620   9.665   8.411   2.847
19460WAT      O58621   6.295   3.117   8.525
19460WAT     H158622   6.295   3.047   8.453
19460WAT     H258623   6.281   3.207   8.484
19461WAT      O58624   4.447   1.779   4.628
19461WAT     H158625   4.510   1.856   4.617
19461WAT     H258626   4.495   1.693   4.612
19462WAT      O58627   7.517   5.555   6.345
19462WAT     H158628   7.601   5.572   6.295
19462WAT     H258629   7.455   5.633   6.335
19463WAT      O58630   3.434   2.027   0.224
19463WAT     H158631   3.525   2.029   0.184
19463WAT     H258632   3.417   1.937   0.265
19464WAT      O58633   5.476   6.268   1.525
19464WAT     H158634   5.516   6.206   1.593
19464WAT     H258635   5.531   6.265   1.441
19465WAT      O58636   7.304   2.172   1.000
19465WAT     H158637   7.303   2.095   0.936
19465WAT     H258638   7.295   2.257   0.949
19466WAT      O58639   2.586   8.219   7.430
19466WAT     H158640   2.647   8.270   7.492
19466WAT     H258641   2.561   8.132   7.473
19467WAT      O58642   8.482   2.559   1.375
19467WAT     H158643   8.563   2.503   1.394
19467WAT     H258644   8.495   2.650   1.412
19468WAT      O58645   0.930   7.286   1.787
19468WAT     H158646   0.996   7.351   1.749
19468WAT     H258647   0.837   7.315   1.763
19469WAT      O58648   5.353   7.618   8.405
19469WAT     H158649   5.345   7.640   8.502
19469WAT     H258650   5.263   7.621   8.362
19470WAT      O58651   4.425   6.427   6.832
19470WAT     H158652   4.417   6.526   6.820
19470WAT     H258653   4.355   6.380   6.777
19471WAT      O58654   8.653   2.219   1.627
19471WAT     H158655   8.743   2.262   1.631
19471WAT     H258656   8.656   2.131   1.675
19472WAT      O58657   7.337   7.735   9.293
19472WAT     H158658   7.404   7.809   9.300
19472WAT     H258659   7.360   7.663   9.359
19473WAT      O58660   4.600   5.416   8.731
19473WAT     H158661   4.649   5.331   8.717
19473WAT     H258662   4.607   5.444   8.827
19474WAT      O58663   2.635   1.946   8.692
19474WAT     H158664   2.728   1.922   8.664
19474WAT     H258665   2.579   1.864   8.701
19475WAT      O58666   2.789   4.646   0.175
19475WAT     H158667   2.793   4.732   0.123
19475WAT     H258668   2.724   4.584   0.131
19476WAT      O58669   0.382   6.042   6.477
19476WAT     H158670   0.423   6.064   6.565
19476WAT     H258671   0.394   5.945   6.457
19477WAT      O58672   7.318   7.951   2.926
19477WAT     H158673   7.272   8.023   2.874
19477WAT     H258674   7.296   7.961   3.023
19478WAT      O58675   4.915   6.874   1.579
19478WAT     H158676   4.830   6.921   1.602
19478WAT     H258677   4.923   6.791   1.634
19479WAT      O58678   6.519   3.137   8.080
19479WAT     H158679   6.534   3.129   7.982
19479WAT     H258680   6.504   3.045   8.119
19480WAT      O58681   5.333   9.005   7.724
19480WAT     H158682   5.362   9.003   7.820
19480WAT     H258683   5.294   8.916   7.700
19481WAT      O58684   8.272   6.701   6.638
19481WAT     H158685   8.243   6.796   6.651
19481WAT     H258686   8.367   6.699   6.607
19482WAT      O58687   3.971   9.832   6.298
19482WAT     H158688   3.876   9.801   6.290
19482WAT     H258689   4.007   9.808   6.388
19483WAT      O58690   7.850   9.370   4.097
19483WAT     H158691   7.875   9.334   4.007
19483WAT     H258692   7.779   9.440   4.086
19484WAT      O58693   3.501   5.534   8.281
19484WAT     H158694   3.456   5.445   8.270
19484WAT     H258695   3.432   5.604   8.296
19485WAT      O58696   9.596   2.846   1.904
19485WAT     H158697   9.549   2.783   1.966
19485WAT     H258698   9.652   2.910   1.957
19486WAT      O58699   5.316   7.675   1.352
19486WAT     H158700   5.337   7.580   1.331
19486WAT     H258701   5.226   7.698   1.316
19487WAT      O58702   2.449   2.824   3.014
19487WAT     H158703   2.493   2.734   3.012
19487WAT     H258704   2.511   2.892   3.053
19488WAT      O58705   8.930   6.226   0.187
19488WAT     H158706   8.869   6.152   0.158
19488WAT     H258707   8.892   6.314   0.158
19489WAT      O58708   1.047   8.769   4.010
19489WAT     H158709   1.091   8.858   4.011
19489WAT     H258710   1.028   8.742   3.915
19490WAT      O58711   5.846   8.756   1.073
19490WAT     H158712   5.875   8.688   1.005
19490WAT     H258713   5.837   8.712   1.162
19491WAT      O58714   2.581   1.750   7.001
19491WAT     H158715   2.508   1.783   7.062
19491WAT     H258716   2.636   1.681   7.049
19492WAT      O58717   6.989   3.201   4.515
19492WAT     H158718   6.930   3.136   4.563
19492WAT     H258719   7.067   3.225   4.573
19493WAT      O58720   2.859   1.892   3.085
19493WAT     H158721   2.789   1.918   3.151
19493WAT     H258722   2.906   1.974   3.051
19494WAT      O58723   1.030   3.370   4.306
19494WAT     H158724   0.981   3.440   4.254
19494WAT     H258725   1.128   3.375   4.285
19495WAT      O58726   8.920   7.510   9.118
19495WAT     H158727   8.849   7.499   9.189
19495WAT     H258728   8.876   7.513   9.028
19496WAT      O58729   0.997   9.360   3.885
19496WAT     H158730   0.964   9.307   3.807
19496WAT     H258731   1.089   9.331   3.908
19497WAT      O58732   9.238   7.057   9.802
19497WAT     H158733   9.249   7.041   9.704
19497WAT     H258734   9.205   7.150   9.817
19498WAT      O58735   0.527   4.709   8.428
19498WAT     H158736   0.602   4.747   8.482
19498WAT     H258737   0.440   4.737   8.467
19499WAT      O58738   4.157   2.343   1.816
19499WAT     H158739   4.067   2.300   1.821
19499WAT     H258740   4.146   2.439   1.789
19500WAT      O58741   8.430   9.499   0.955
19500WAT     H158742   8.379   9.572   1.001
19500WAT     H258743   8.470   9.438   1.023
19501WAT      O58744   3.376   5.016   3.136
19501WAT     H158745   3.450   4.972   3.085
19501WAT     H258746   3.413   5.061   3.217
19502WAT      O58747   9.762   0.220   1.473
19502WAT     H158748   9.795   0.137   1.427
19502WAT     H258749   9.664   0.232   1.454
19503WAT      O58750   1.523   4.313   1.046
19503WAT     H158751   1.621   4.314   1.067
19503WAT     H258752   1.492   4.218   1.037
19504WAT      O58753   3.054   6.656   0.464
19504WAT     H158754   3.057   6.573   0.407
19504WAT     H258755   2.974   6.711   0.439
19505WAT      O58756   8.989   6.288   8.350
19505WAT     H158757   8.977   6.243   8.261
19505WAT     H258758   8.906   6.341   8.371
19506WAT      O58759   9.145   5.743   6.767
19506WAT     H158760   9.167   5.711   6.859
19506WAT     H258761   9.062   5.800   6.771
19507WAT      O58762   0.608   4.401   1.062
19507WAT     H158763   0.706   4.405   1.040
19507WAT     H258764   0.577   4.492   1.091
19508WAT      O58765   4.128   8.722   8.172
19508WAT     H158766   4.097   8.773   8.093
19508WAT     H258767   4.070   8.744   8.251
19509WAT      O58768   2.917   4.360   6.697
19509WAT     H158769   2.918   4.349   6.598
19509WAT     H258770   3.009   4.348   6.733
19510WAT      O58771   1.629   4.950   1.529
19510WAT     H158772   1.565   5.010   1.481
19510WAT     H258773   1.595   4.932   1.621
19511WAT      O58774   0.297   2.073   8.166
19511WAT     H158775   0.266   1.997   8.225
19511WAT     H258776   0.317   2.038   8.075
19512WAT      O58777   1.384   6.360   1.641
19512WAT     H158778   1.455   6.289   1.647
19512WAT     H258779   1.425   6.449   1.660
19513WAT      O58780   3.548   9.308   2.196
19513WAT     H158781   3.572   9.337   2.289
19513WAT     H258782   3.551   9.388   2.136
19514WAT      O58783   7.100   8.576   8.114
19514WAT     H158784   7.011   8.533   8.103
19514WAT     H258785   7.126   8.574   8.211
19515WAT      O58786   4.780   0.966   6.486
19515WAT     H158787   4.835   0.886   6.509
19515WAT     H258788   4.729   0.949   6.402
19516WAT      O58789   6.089   8.067   1.326
19516WAT     H158790   6.077   7.973   1.293
19516WAT     H258791   6.130   8.122   1.253
19517WAT      O58792   3.642   6.494   3.182
19517WAT     H158793   3.677   6.401   3.194
19517WAT     H258794   3.700   6.559   3.231
19518WAT      O58795   8.664   8.536   9.550
19518WAT     H158796   8.749   8.535   9.498
19518WAT     H258797   8.589   8.503   9.492
19519WAT      O58798   8.156   7.740   8.490
19519WAT     H158799   8.189   7.756   8.397
19519WAT     H258800   8.231   7.711   8.549
19520WAT      O58801   1.603   0.411   6.640
19520WAT     H158802   1.567   0.413   6.547
19520WAT     H258803   1.554   0.341   6.693
19521WAT      O58804   2.503   0.440   6.692
19521WAT     H158805   2.552   0.414   6.609
19521WAT     H258806   2.516   0.537   6.710
19522WAT      O58807   1.812   8.243   4.556
19522WAT     H158808   1.824   8.291   4.469
19522WAT     H258809   1.898   8.197   4.580
19523WAT      O58810   0.543   5.048   8.133
19523WAT     H158811   0.524   5.033   8.036
19523WAT     H258812   0.587   4.967   8.171
19524WAT      O58813   4.233   0.788   2.954
19524WAT     H158814   4.210   0.766   3.049
19524WAT     H258815   4.252   0.886   2.946
19525WAT      O58816   2.194   1.385   3.943
19525WAT     H158817   2.111   1.367   3.995
19525WAT     H258818   2.273   1.346   3.990
19526WAT      O58819   2.825   9.775   3.939
19526WAT     H158820   2.853   9.834   3.864
19526WAT     H258821   2.879   9.691   3.938
19527WAT      O58822   9.230   8.602   6.533
19527WAT     H158823   9.186   8.675   6.482
19527WAT     H258824   9.194   8.514   6.502
19528WAT      O58825   8.233   7.422   6.129
19528WAT     H158826   8.215   7.504   6.184
19528WAT     H258827   8.178   7.346   6.162
19529WAT      O58828   4.388   2.490   0.389
19529WAT     H158829   4.424   2.493   0.296
19529WAT     H258830   4.295   2.454   0.389
19530WAT      O58831   3.291   8.199   1.886
19530WAT     H158832   3.251   8.283   1.924
19530WAT     H258833   3.391   8.204   1.893
19531WAT      O58834   0.826   9.623   0.598
19531WAT     H158835   0.754   9.679   0.555
19531WAT     H258836   0.902   9.612   0.533
19532WAT      O58837   0.420   8.420   7.667
19532WAT     H158838   0.430   8.511   7.708
19532WAT     H258839   0.338   8.418   7.609
19533WAT      O58840   7.016   4.733   6.583
19533WAT     H158841   6.934   4.740   6.528
19533WAT     H258842   7.008   4.792   6.663
19534WAT      O58843   0.344   4.300   8.300
19534WAT     H158844   0.341   4.399   8.284
19534WAT     H258845   0.383   4.254   8.220
19535WAT      O58846   3.752   3.158   0.144
19535WAT     H158847   3.833   3.114   0.182
19535WAT     H258848   3.672   3.101   0.159
19536WAT      O58849   7.072   6.587   5.736
19536WAT     H158850   7.149   6.566   5.675
19536WAT     H258851   6.988   6.597   5.681
19537WAT      O58852   1.073   5.868   2.408
19537WAT     H158853   1.062   5.875   2.507
19537WAT     H258854   0.991   5.902   2.362
19538WAT      O58855   9.257   0.517   3.154
19538WAT     H158856   9.204   0.466   3.086
19538WAT     H258857   9.206   0.600   3.179
19539WAT      O58858   7.313   8.957   4.772
19539WAT     H158859   7.337   8.938   4.677
19539WAT     H258860   7.227   8.910   4.795
19540WAT      O58861   3.625   1.901   5.692
19540WAT     H158862   3.720   1.921   5.669
19540WAT     H258863   3.592   1.969   5.757
19541WAT      O58864   8.022   5.758   0.978
19541WAT     H158865   8.114   5.724   0.999
19541WAT     H258866   8.028   5.854   0.952
19542WAT      O58867   6.047   2.945   6.918
19542WAT     H158868   6.023   2.976   6.826
19542WAT     H258869   6.087   3.021   6.970
19543WAT      O58870   9.032   8.259   3.492
19543WAT     H158871   9.110   8.284   3.435
19543WAT     H258872   8.948   8.264   3.437
19544WAT      O58873   9.655   7.937   5.385
19544WAT     H158874   9.655   8.004   5.311
19544WAT     H258875   9.630   7.847   5.348
19545WAT      O58876   8.712   0.970   8.153
19545WAT     H158877   8.701   0.974   8.252
19545WAT     H258878   8.702   1.061   8.114
19546WAT      O58879   6.057   3.376   4.205
19546WAT     H158880   6.142   3.325   4.194
19546WAT     H258881   6.078   3.473   4.213
19547WAT      O58882   7.471   6.166   6.311
19547WAT     H158883   7.562   6.131   6.290
19547WAT     H258884   7.477   6.263   6.335
19548WAT      O58885   0.770   1.503   7.261
19548WAT     H158886   0.817   1.418   7.285
19548WAT     H258887   0.817   1.580   7.303
19549WAT      O58888   0.974   4.080   1.538
19549WAT     H158889   0.924   4.107   1.455
19549WAT     H258890   0.987   3.981   1.537
19550WAT      O58891   0.792   0.952   8.941
19550WAT     H158892   0.796   0.899   9.025
19550WAT     H258893   0.879   0.998   8.925
19551WAT      O58894   1.142   2.804   6.091
19551WAT     H158895   1.133   2.859   6.008
19551WAT     H258896   1.057   2.808   6.144
19552WAT      O58897   4.694   2.220   4.335
19552WAT     H158898   4.672   2.312   4.302
19552WAT     H258899   4.614   2.180   4.378
19553WAT      O58900   7.977   2.371   5.043
19553WAT     H158901   7.918   2.292   5.023
19553WAT     H258902   8.064   2.360   4.997
19554WAT      O58903   0.563   1.689   5.122
19554WAT     H158904   0.554   1.788   5.109
19554WAT     H258905   0.473   1.651   5.143
19555WAT      O58906   0.335   5.333   1.799
19555WAT     H158907   0.430   5.304   1.812
19555WAT     H258908   0.275   5.279   1.858
19556WAT      O58909   0.868   4.051   8.365
19556WAT     H158910   0.878   4.086   8.458
19556WAT     H258911   0.926   4.103   8.303
19557WAT      O58912   6.550   7.999   9.535
19557WAT     H158913   6.554   8.095   9.508
19557WAT     H258914   6.608   7.984   9.614
19558WAT      O58915   0.773   1.347   3.130
19558WAT     H158916   0.839   1.366   3.203
19558WAT     H258917   0.790   1.408   3.053
19559WAT      O58918   6.921   6.793   0.885
19559WAT     H158919   6.969   6.706   0.886
19559WAT     H258920   6.982   6.866   0.916
19560WAT      O58921   0.089   6.085   1.757
19560WAT     H158922   0.135   6.027   1.690
19560WAT     H258923   0.116   6.056   1.849
19561WAT      O58924   0.091   6.654   9.011
19561WAT     H158925   0.038   6.735   9.034
19561WAT     H258926   0.095   6.644   8.911
19562WAT      O58927   0.020   6.671   0.555
19562WAT     H158928   0.064   6.761   0.552
19562WAT     H258929   0.090   6.601   0.568
19563WAT      O58930   1.330   1.214   2.258
19563WAT     H158931   1.288   1.126   2.240
19563WAT     H258932   1.283   1.259   2.334
19564WAT      O58933   0.548   5.257   8.284
19564WAT     H158934   0.589   5.335   8.237
19564WAT     H258935   0.553   5.176   8.227
19565WAT      O58936   0.125   7.693   9.205
19565WAT     H158937   0.190   7.619   9.223
19565WAT     H258938   0.126   7.715   9.108
19566WAT      O58939   9.406   0.123   1.604
19566WAT     H158940   9.486   0.076   1.568
19566WAT     H258941   9.342   0.056   1.642
19567WAT      O58942   6.714   3.776   1.788
19567WAT     H158943   6.743   3.775   1.692
19567WAT     H258944   6.628   3.727   1.797
19568WAT      O58945   5.351   3.860   6.767
19568WAT     H158946   5.361   3.928   6.693
19568WAT     H258947   5.259   3.867   6.806
19569WAT      O58948   4.508   1.506   2.659
19569WAT     H158949   4.425   1.480   2.709
19569WAT     H258950   4.484   1.525   2.563
19570WAT      O58951   0.170   3.543   5.459
19570WAT     H158952   0.199   3.496   5.375
19570WAT     H258953   0.177   3.480   5.536
19571WAT      O58954   8.910   0.969   2.784
19571WAT     H158955   8.927   0.916   2.867
19571WAT     H258956   8.966   1.052   2.785
19572WAT      O58957   2.578   2.770   8.486
19572WAT     H158958   2.516   2.816   8.424
19572WAT     H258959   2.575   2.671   8.471
19573WAT      O58960   6.697   8.609   3.196
19573WAT     H158961   6.602   8.640   3.189
19573WAT     H258962   6.698   8.510   3.212
19574WAT      O58963   1.715   6.449   7.057
19574WAT     H158964   1.769   6.443   7.141
19574WAT     H258965   1.666   6.363   7.043
19575WAT      O58966   9.085   1.581   7.081
19575WAT     H158967   9.099   1.586   7.180
19575WAT     H258968   9.116   1.666   7.038
19576WAT      O58969   6.700   6.786   3.152
19576WAT     H158970   6.628   6.747   3.094
19576WAT     H258971   6.726   6.719   3.222
19577WAT      O58972   0.199   0.138   6.986
19577WAT     H158973   0.123   0.178   7.037
19577WAT     H258974   0.186   0.153   6.888
19578WAT      O58975   4.185   1.376   8.689
19578WAT     H158976   4.280   1.401   8.674
19578WAT     H258977   4.152   1.320   8.612
19579WAT      O58978   1.026   5.212   6.960
19579WAT     H158979   1.064   5.264   7.036
19579WAT     H258980   1.030   5.266   6.877
19580WAT      O58981   3.443   6.097   1.295
19580WAT     H158982   3.523   6.059   1.249
19580WAT     H258983   3.360   6.055   1.257
19581WAT      O58984   5.177   0.596   6.244
19581WAT     H158985   5.183   0.508   6.292
19581WAT     H258986   5.090   0.602   6.195
19582WAT      O58987   9.303   1.440   4.940
19582WAT     H158988   9.361   1.363   4.966
19582WAT     H258989   9.249   1.470   5.018
19583WAT      O58990   4.537   7.929   8.288
19583WAT     H158991   4.598   7.964   8.360
19583WAT     H258992   4.568   7.965   8.200
19584WAT      O58993   9.124   1.354   3.297
19584WAT     H158994   9.214   1.360   3.254
19584WAT     H258995   9.132   1.306   3.384
19585WAT      O58996   3.633   0.690   3.886
19585WAT     H158997   3.572   0.670   3.808
19585WAT     H258998   3.578   0.717   3.965
19586WAT      O58999   7.813   5.697   1.454
19586WAT     H159000   7.891   5.654   1.407
19586WAT     H259001   7.777   5.771   1.397
19587WAT      O59002   2.019   0.816   5.281
19587WAT     H159003   2.081   0.862   5.345
19587WAT     H259004   2.013   0.870   5.197
19588WAT      O59005   1.609   1.003   5.937
19588WAT     H159006   1.521   0.979   5.895
19588WAT     H259007   1.684   0.965   5.883
19589WAT      O59008   1.255   5.676   2.079
19589WAT     H159009   1.215   5.654   2.168
19589WAT     H259010   1.210   5.756   2.040
19590WAT      O59011   6.796   4.843   1.956
19590WAT     H159012   6.714   4.885   1.919
19590WAT     H259013   6.868   4.842   1.886
19591WAT      O59014   9.800   1.913   8.134
19591WAT     H159015   9.708   1.943   8.110
19591WAT     H259016   9.853   1.991   8.167
19592WAT      O59017   7.213   2.574   6.762
19592WAT     H159018   7.191   2.536   6.673
19592WAT     H259019   7.305   2.614   6.760
19593WAT      O59020   3.982   5.072   7.375
19593WAT     H159021   4.045   5.119   7.437
19593WAT     H259022   3.888   5.098   7.397
19594WAT      O59023   8.285   8.294   5.265
19594WAT     H159024   8.370   8.287   5.316
19594WAT     H259025   8.275   8.214   5.205
19595WAT      O59026   8.891   1.659   1.786
19595WAT     H159027   8.838   1.676   1.702
19595WAT     H259028   8.829   1.628   1.858
19596WAT      O59029   4.406   5.500   7.099
19596WAT     H159030   4.313   5.503   7.136
19596WAT     H259031   4.425   5.409   7.062
19597WAT      O59032   3.352   4.020   4.273
19597WAT     H159033   3.286   3.945   4.274
19597WAT     H259034   3.325   4.088   4.205
19598WAT      O59035   9.141   6.171   1.837
19598WAT     H159036   9.154   6.241   1.907
19598WAT     H259037   9.049   6.178   1.798
19599WAT      O59038   3.529   4.344   0.643
19599WAT     H159039   3.525   4.380   0.550
19599WAT     H259040   3.474   4.260   0.649
19600WAT      O59041   0.270   2.017   4.266
19600WAT     H159042   0.292   2.068   4.183
19600WAT     H259043   0.175   1.985   4.261
19601WAT      O59044   0.722   3.019   3.791
19601WAT     H159045   0.781   3.013   3.871
19601WAT     H259046   0.699   2.927   3.760
19602WAT      O59047   8.938   7.628   1.456
19602WAT     H159048   9.011   7.662   1.514
19602WAT     H259049   8.858   7.687   1.464
19603WAT      O59050   7.816   0.034   2.839
19603WAT     H159051   7.766   0.031   2.925
19603WAT     H259052   7.808  -0.054   2.793
19604WAT      O59053   4.818   6.467   2.980
19604WAT     H159054   4.840   6.563   2.996
19604WAT     H259055   4.820   6.447   2.882
19605WAT      O59056   1.530   9.473   4.259
19605WAT     H159057   1.502   9.563   4.226
19605WAT     H259058   1.454   9.409   4.249
19606WAT      O59059   9.887   2.298   3.496
19606WAT     H159060   9.807   2.358   3.497
19606WAT     H259061   9.919   2.285   3.402
19607WAT      O59062   2.445   8.014   2.472
19607WAT     H159063   2.404   7.950   2.407
19607WAT     H259064   2.374   8.070   2.514
19608WAT      O59065   5.979   7.300   8.462
19608WAT     H159066   5.975   7.373   8.394
19608WAT     H259067   5.938   7.217   8.424
19609WAT      O59068   0.680   4.033   8.033
19609WAT     H159069   0.742   4.028   8.112
19609WAT     H259070   0.590   4.065   8.063
19610WAT      O59071   1.622   7.167   6.420
19610WAT     H159072   1.558   7.184   6.495
19610WAT     H259073   1.689   7.098   6.448
19611WAT      O59074   6.537   4.404   9.240
19611WAT     H159075   6.561   4.307   9.242
19611WAT     H259076   6.442   4.416   9.271
19612WAT      O59077   9.487   5.329   3.686
19612WAT     H159078   9.441   5.274   3.616
19612WAT     H259079   9.422   5.393   3.726
19613WAT      O59080   1.207   6.500   6.871
19613WAT     H159081   1.247   6.415   6.907
19613WAT     H259082   1.271   6.541   6.806
19614WAT      O59083   2.411   7.602   2.784
19614WAT     H159084   2.346   7.590   2.709
19614WAT     H259085   2.362   7.630   2.867
19615WAT      O59086   9.648   0.869   0.069
19615WAT     H159087   9.639   0.779   0.113
19615WAT     H259088   9.735   0.873   0.019
19616WAT      O59089   6.682   2.173   3.188
19616WAT     H159090   6.631   2.148   3.270
19616WAT     H259091   6.619   2.214   3.121
19617WAT      O59092   9.868   3.765   8.003
19617WAT     H159093   9.904   3.716   8.083
19617WAT     H259094   9.769   3.751   7.997
19618WAT      O59095   3.239   9.792   6.266
19618WAT     H159096   3.149   9.758   6.238
19618WAT     H259097   3.310   9.743   6.216
19619WAT      O59098   9.185   5.995   1.159
19619WAT     H159099   9.114   5.926   1.145
19619WAT     H259100   9.243   6.001   1.078
19620WAT      O59101   4.542   5.824   0.794
19620WAT     H159102   4.598   5.741   0.787
19620WAT     H259103   4.534   5.851   0.890
19621WAT      O59104   8.055   1.011   0.085
19621WAT     H159105   8.049   0.913   0.100
19621WAT     H259106   8.124   1.030   0.014
19622WAT      O59107   5.878   6.668   0.687
19622WAT     H159108   5.974   6.645   0.669
19622WAT     H259109   5.873   6.751   0.742
19623WAT      O59110   8.571   4.542   8.383
19623WAT     H159111   8.599   4.510   8.473
19623WAT     H259112   8.652   4.571   8.332
19624WAT      O59113   2.563   3.570   1.855
19624WAT     H159114   2.604   3.483   1.829
19624WAT     H259115   2.561   3.577   1.955
19625WAT      O59116   3.179   1.392   7.394
19625WAT     H159117   3.263   1.441   7.418
19625WAT     H259118   3.198   1.294   7.389
19626WAT      O59119   7.140   5.978   9.516
19626WAT     H159120   7.107   5.885   9.501
19626WAT     H259121   7.062   6.039   9.533
19627WAT      O59122   4.406   1.026   1.281
19627WAT     H159123   4.471   1.092   1.243
19627WAT     H259124   4.441   0.934   1.270
19628WAT      O59125   8.802   8.198   7.393
19628WAT     H159126   8.711   8.213   7.354
19628WAT     H259127   8.849   8.285   7.404
19629WAT      O59128   7.897   5.252   8.565
19629WAT     H159129   7.881   5.218   8.472
19629WAT     H259130   7.967   5.324   8.563
19630WAT      O59131   0.967   5.867   9.276
19630WAT     H159132   0.975   5.846   9.179
19630WAT     H259133   0.870   5.874   9.301
19631WAT      O59134   9.354   8.940   5.651
19631WAT     H159135   9.439   8.925   5.601
19631WAT     H259136   9.277   8.905   5.598
19632WAT      O59137   0.949   2.104   9.748
19632WAT     H159138   0.979   2.009   9.739
19632WAT     H259139   0.894   2.128   9.668
19633WAT      O59140   4.645   7.336   9.368
19633WAT     H159141   4.700   7.364   9.447
19633WAT     H259142   4.677   7.385   9.287
19634WAT      O59143   6.288   9.807   9.557
19634WAT     H159144   6.206   9.863   9.570
19634WAT     H259145   6.338   9.800   9.643
19635WAT      O59146   9.136   5.422   6.781
19635WAT     H159147   9.140   5.514   6.743
19635WAT     H259148   9.049   5.379   6.756
19636WAT      O59149   9.447   4.110   6.882
19636WAT     H159150   9.364   4.158   6.909
19636WAT     H259151   9.504   4.170   6.826
19637WAT      O59152   0.071   9.452   2.429
19637WAT     H159153   0.168   9.461   2.407
19637WAT     H259154   0.026   9.395   2.360
19638WAT      O59155   4.736   1.600   8.200
19638WAT     H159156   4.825   1.646   8.194
19638WAT     H259157   4.681   1.622   8.120
19639WAT      O59158   2.102   2.024   2.063
19639WAT     H159159   2.015   1.974   2.060
19639WAT     H259160   2.117   2.059   2.156
19640WAT      O59161   5.552   1.754   0.592
19640WAT     H159162   5.522   1.659   0.598
19640WAT     H259163   5.631   1.769   0.651
19641WAT      O59164   9.045   1.849   8.914
19641WAT     H159165   9.067   1.799   8.831
19641WAT     H259166   8.966   1.908   8.898
19642WAT      O59167   0.865   3.380   5.945
19642WAT     H159168   0.790   3.368   5.880
19642WAT     H259169   0.919   3.460   5.920
19643WAT      O59170   2.410   9.291   7.368
19643WAT     H159171   2.384   9.343   7.286
19643WAT     H259172   2.364   9.329   7.448
19644WAT      O59173   8.005   4.899   2.306
19644WAT     H159174   7.967   4.990   2.319
19644WAT     H259175   8.105   4.904   2.308
19645WAT      O59176   7.284   7.266   4.123
19645WAT     H159177   7.213   7.324   4.164
19645WAT     H259178   7.356   7.248   4.190
19646WAT      O59179   9.025   0.068   6.096
19646WAT     H159180   8.978   0.019   6.170
19646WAT     H259181   9.058   0.156   6.130
19647WAT      O59182   0.285   9.080   2.034
19647WAT     H159183   0.357   9.056   2.100
19647WAT     H259184   0.230   8.998   2.014
19648WAT      O59185   7.251   2.388   9.497
19648WAT     H159186   7.292   2.300   9.475
19648WAT     H259187   7.171   2.404   9.438
19649WAT      O59188   8.983   0.640   6.333
19649WAT     H159189   8.905   0.702   6.332
19649WAT     H259190   9.000   0.605   6.241
19650WAT      O59191   1.337   3.098   2.451
19650WAT     H159192   1.385   3.183   2.469
19650WAT     H259193   1.347   3.074   2.354
19651WAT      O59194   1.161   1.189   3.322
19651WAT     H159195   1.239   1.177   3.261
19651WAT     H259196   1.192   1.225   3.410
19652WAT      O59197   9.836   0.988   4.026
19652WAT     H159198   9.848   1.009   3.929
19652WAT     H259199   9.763   1.045   4.064
19653WAT      O59200   5.190   3.075   7.344
19653WAT     H159201   5.154   3.002   7.404
19653WAT     H259202   5.286   3.058   7.326
19654WAT      O59203   2.326   9.770   4.344
19654WAT     H159204   2.367   9.727   4.424
19654WAT     H259205   2.323   9.705   4.268
19655WAT      O59206   1.171   3.175   0.897
19655WAT     H159207   1.234   3.098   0.894
19655WAT     H259208   1.179   3.228   0.813
19656WAT      O59209   6.181   3.997   3.614
19656WAT     H159210   6.148   4.047   3.693
19656WAT     H259211   6.118   3.922   3.593
19657WAT      O59212   0.896   6.832   8.770
19657WAT     H159213   0.882   6.913   8.713
19657WAT     H259214   0.868   6.851   8.864
19658WAT      O59215   7.477   6.870   6.263
19658WAT     H159216   7.423   6.793   6.297
19658WAT     H259217   7.571   6.840   6.247
19659WAT      O59218   1.397   8.152   3.746
19659WAT     H159219   1.434   8.245   3.738
19659WAT     H259220   1.470   8.089   3.772
19660WAT      O59221   8.253   1.650   2.990
19660WAT     H159222   8.177   1.593   3.021
19660WAT     H259223   8.271   1.631   2.894
19661WAT      O59224   4.686   6.432   1.506
19661WAT     H159225   4.680   6.469   1.599
19661WAT     H259226   4.756   6.481   1.454
19662WAT      O59227   3.901   5.490   1.469
19662WAT     H159228   3.851   5.565   1.426
19662WAT     H259229   3.953   5.524   1.546
19663WAT      O59230   1.263   6.301   4.103
19663WAT     H159231   1.206   6.316   4.022
19663WAT     H259232   1.311   6.214   4.093
19664WAT      O59233   7.462   5.326   8.383
19664WAT     H159234   7.514   5.343   8.467
19664WAT     H259235   7.369   5.296   8.407
19665WAT      O59236   5.472   9.097   4.146
19665WAT     H159237   5.463   9.181   4.199
19665WAT     H259238   5.560   9.097   4.099
19666WAT      O59239   5.248   3.964   9.618
19666WAT     H159240   5.157   3.955   9.660
19666WAT     H259241   5.293   4.046   9.652
19667WAT      O59242   2.876   3.268   1.972
19667WAT     H159243   2.931   3.343   2.010
19667WAT     H259244   2.872   3.193   2.037
19668WAT      O59245   4.946   3.943   9.686
19668WAT     H159246   4.900   3.854   9.677
19668WAT     H259247   4.921   3.984   9.774
19669WAT      O59248   0.985   9.569   0.382
19669WAT     H159249   1.080   9.543   0.364
19669WAT     H259250   0.924   9.514   0.324
19670WAT      O59251   2.182   5.750   4.310
19670WAT     H159252   2.254   5.680   4.314
19670WAT     H259253   2.121   5.739   4.388
19671WAT      O59254   9.689   1.051   9.639
19671WAT     H159255   9.599   1.078   9.673
19671WAT     H259256   9.679   1.004   9.552
19672WAT      O59257   1.801   2.856   9.611
19672WAT     H159258   1.889   2.869   9.656
19672WAT     H259259   1.813   2.862   9.512
19673WAT      O59260   2.693   5.342   6.778
19673WAT     H159261   2.653   5.360   6.689
19673WAT     H259262   2.621   5.311   6.841
19674WAT      O59263   9.880   6.740   5.508
19674WAT     H159264   9.953   6.804   5.484
19674WAT     H259265   9.920   6.650   5.524
19675WAT      O59266   2.219   7.953   8.090
19675WAT     H159267   2.154   7.947   8.166
19675WAT     H259268   2.207   8.040   8.042
19676WAT      O59269   4.623   6.860   0.278
19676WAT     H159270   4.633   6.852   0.179
19676WAT     H259271   4.626   6.768   0.319
19677WAT      O59272   1.942   4.929   7.916
19677WAT     H159273   1.896   4.912   8.004
19677WAT     H259274   1.940   4.846   7.861
19678WAT      O59275   3.473   4.110   6.978
19678WAT     H159276   3.506   4.105   7.072
19678WAT     H259277   3.490   4.201   6.941
19679WAT      O59278   8.583   1.415   2.322
19679WAT     H159279   8.651   1.362   2.372
19679WAT     H259280   8.512   1.354   2.287
19680WAT      O59281   3.368   5.066   2.501
19680WAT     H159282   3.426   5.123   2.444
19680WAT     H259283   3.412   4.976   2.513
19681WAT      O59284   6.878   9.762   5.503
19681WAT     H159285   6.807   9.831   5.492
19681WAT     H259286   6.950   9.777   5.435
19682WAT      O59287   7.874   3.787   0.992
19682WAT     H159288   7.868   3.836   1.079
19682WAT     H259289   7.846   3.849   0.918
19683WAT      O59290   9.748   5.857   6.022
19683WAT     H159291   9.812   5.784   5.997
19683WAT     H259292   9.739   5.921   5.946
19684WAT      O59293   8.503   5.340   7.314
19684WAT     H159294   8.500   5.425   7.368
19684WAT     H259295   8.455   5.268   7.363
19685WAT      O59296   0.379   0.372   6.203
19685WAT     H159297   0.433   0.346   6.283
19685WAT     H259298   0.440   0.403   6.130
19686WAT      O59299   7.008   9.518   6.440
19686WAT     H159300   6.931   9.467   6.403
19686WAT     H259301   6.974   9.602   6.483
19687WAT      O59302   8.051   0.800   2.401
19687WAT     H159303   8.130   0.780   2.459
19687WAT     H259304   8.080   0.803   2.305
19688WAT      O59305   4.341   8.475   3.799
19688WAT     H159306   4.441   8.471   3.798
19688WAT     H259307   4.311   8.570   3.796
19689WAT      O59308   1.455   2.940   0.536
19689WAT     H159309   1.390   2.924   0.461
19689WAT     H259310   1.435   2.877   0.611
19690WAT      O59311   8.296   9.027   0.069
19690WAT     H159312   8.281   9.124   0.087
19690WAT     H259313   8.384   9.015   0.022
19691WAT      O59314   7.403   2.038   0.096
19691WAT     H159315   7.433   2.013   0.004
19691WAT     H259316   7.467   2.104   0.135
19692WAT      O59317   6.284   5.470   8.276
19692WAT     H159318   6.325   5.463   8.367
19692WAT     H259319   6.257   5.380   8.243
19693WAT      O59320   9.350   0.291   8.473
19693WAT     H159321   9.423   0.347   8.435
19693WAT     H259322   9.387   0.204   8.505
19694WAT      O59323   7.301   3.283   5.088
19694WAT     H159324   7.233   3.344   5.046
19694WAT     H259325   7.257   3.226   5.158
19695WAT      O59326   1.530   3.438   5.927
19695WAT     H159327   1.547   3.379   6.005
19695WAT     H259328   1.610   3.438   5.866
19696WAT      O59329   1.529   0.341   1.243
19696WAT     H159330   1.603   0.278   1.269
19696WAT     H259331   1.497   0.317   1.151
19697WAT      O59332   7.150   7.322   6.113
19697WAT     H159333   7.086   7.248   6.094
19697WAT     H259334   7.102   7.410   6.108
19698WAT      O59335   8.134   1.291   8.872
19698WAT     H159336   8.129   1.266   8.775
19698WAT     H259337   8.116   1.211   8.929
19699WAT      O59338   0.249   7.032   3.900
19699WAT     H159339   0.300   6.997   3.979
19699WAT     H259340   0.158   6.990   3.899
19700WAT      O59341   1.919   2.786   8.554
19700WAT     H159342   1.973   2.755   8.631
19700WAT     H259343   1.978   2.800   8.475
19701WAT      O59344   4.400   4.602   9.543
19701WAT     H159345   4.455   4.614   9.626
19701WAT     H259346   4.328   4.671   9.540
19702WAT      O59347   5.640   2.228   1.009
19702WAT     H159348   5.554   2.276   0.992
19702WAT     H259349   5.624   2.150   1.069
19703WAT      O59350   0.689   2.357   9.451
19703WAT     H159351   0.723   2.345   9.358
19703WAT     H259352   0.710   2.450   9.482
19704WAT      O59353   3.989   0.019   2.395
19704WAT     H159354   4.033  -0.024   2.475
19704WAT     H259355   4.035   0.106   2.376
19705WAT      O59356   0.087   8.615   6.779
19705WAT     H159357   0.028   8.662   6.845
19705WAT     H259358   0.056   8.521   6.768
19706WAT      O59359   3.417   0.156   7.029
19706WAT     H159360   3.426   0.076   7.088
19706WAT     H259361   3.497   0.216   7.040
19707WAT      O59362   4.366   5.475   3.146
19707WAT     H159363   4.465   5.489   3.146
19707WAT     H259364   4.346   5.381   3.121
19708WAT      O59365   7.740   2.630   2.008
19708WAT     H159366   7.754   2.546   1.955
19708WAT     H259367   7.647   2.632   2.043
19709WAT      O59368   4.624   6.629   8.515
19709WAT     H159369   4.542   6.684   8.497
19709WAT     H259370   4.687   6.636   8.438
19710WAT      O59371   5.912   2.111   5.741
19710WAT     H159372   5.998   2.136   5.697
19710WAT     H259373   5.920   2.018   5.778
19711WAT      O59374   2.292   1.470   5.136
19711WAT     H159375   2.327   1.475   5.043
19711WAT     H259376   2.331   1.389   5.182
19712WAT      O59377   6.149   7.304   1.945
19712WAT     H159378   6.186   7.283   2.036
19712WAT     H259379   6.162   7.401   1.925
19713WAT      O59380   0.863   9.242   6.570
19713WAT     H159381   0.833   9.337   6.578
19713WAT     H259382   0.911   9.229   6.483
19714WAT      O59383   4.410   6.353   2.998
19714WAT     H159384   4.507   6.329   3.009
19714WAT     H259385   4.402   6.423   2.927
19715WAT      O59386   2.644   3.036   7.597
19715WAT     H159387   2.625   3.099   7.522
19715WAT     H259388   2.650   2.942   7.562
19716WAT      O59389   6.111   1.392   4.949
19716WAT     H159390   6.055   1.377   5.030
19716WAT     H259391   6.088   1.324   4.879
19717WAT      O59392   4.221   1.143   7.375
19717WAT     H159393   4.294   1.211   7.376
19717WAT     H259394   4.167   1.152   7.459
19718WAT      O59395   5.272   7.234   7.153
19718WAT     H159396   5.257   7.147   7.105
19718WAT     H259397   5.277   7.218   7.251
19719WAT      O59398   3.159   0.572   5.259
19719WAT     H159399   3.076   0.577   5.203
19719WAT     H259400   3.185   0.664   5.287
19720WAT      O59401   6.605   9.411   5.017
19720WAT     H159402   6.549   9.441   4.939
19720WAT     H259403   6.547   9.364   5.084
19721WAT      O59404   4.052   6.686   7.645
19721WAT     H159405   4.044   6.589   7.668
19721WAT     H259406   4.144   6.718   7.665
19722WAT      O59407   0.496   7.849   7.330
19722WAT     H159408   0.572   7.794   7.365
19722WAT     H259409   0.495   7.845   7.230
19723WAT      O59410   6.758   2.369   3.718
19723WAT     H159411   6.667   2.337   3.692
19723WAT     H259412   6.772   2.461   3.682
19724WAT      O59413   6.822   4.950   6.986
19724WAT     H159414   6.855   4.977   7.076
19724WAT     H259415   6.745   5.008   6.960
19725WAT      O59416   1.817   1.906   6.211
19725WAT     H159417   1.810   2.003   6.188
19725WAT     H259418   1.768   1.889   6.296
19726WAT      O59419   1.433   1.783   4.575
19726WAT     H159420   1.400   1.774   4.668
19726WAT     H259421   1.533   1.793   4.575
19727WAT      O59422   7.713   9.175   8.606
19727WAT     H159423   7.739   9.104   8.672
19727WAT     H259424   7.733   9.143   8.514
19728WAT      O59425   0.146   8.434   6.413
19728WAT     H159426   0.134   8.510   6.350
19728WAT     H259427   0.221   8.375   6.381
19729WAT      O59428   2.246   0.694   3.735
19729WAT     H159429   2.175   0.654   3.793
19729WAT     H259430   2.211   0.703   3.642
19730WAT      O59431   8.040   9.769   8.612
19730WAT     H159432   8.090   9.807   8.690
19730WAT     H259433   8.021   9.843   8.546
19731WAT      O59434   6.550   0.036   3.229
19731WAT     H159435   6.521  -0.026   3.156
19731WAT     H259436   6.472   0.062   3.285
19732WAT      O59437   4.917   7.871   9.203
19732WAT     H159438   4.819   7.888   9.199
19732WAT     H259439   4.946   7.821   9.121
19733WAT      O59440   8.831   0.671   3.683
19733WAT     H159441   8.802   0.581   3.716
19733WAT     H259442   8.753   0.733   3.683
19734WAT      O59443   6.860   2.372   0.918
19734WAT     H159444   6.847   2.453   0.860
19734WAT     H259445   6.830   2.291   0.869
19735WAT      O59446   4.263   4.665   3.787
19735WAT     H159447   4.185   4.725   3.806
19735WAT     H259448   4.283   4.610   3.868
19736WAT      O59449   1.281   8.683   9.650
19736WAT     H159450   1.262   8.771   9.694
19736WAT     H259451   1.341   8.629   9.709
19737WAT      O59452   2.853   8.126   3.797
19737WAT     H159453   2.848   8.181   3.881
19737WAT     H259454   2.763   8.085   3.779
19738WAT      O59455   3.056   8.694   1.673
19738WAT     H159456   3.006   8.626   1.727
19738WAT     H259457   3.033   8.682   1.576
19739WAT      O59458   9.363   3.228   1.968
19739WAT     H159459   9.415   3.275   2.039
19739WAT     H259460   9.350   3.133   1.993
19740WAT      O59461   3.558   7.330   1.416
19740WAT     H159462   3.552   7.300   1.511
19740WAT     H259463   3.473   7.308   1.368
19741WAT      O59464   8.679   1.273   7.733
19741WAT     H159465   8.749   1.203   7.746
19741WAT     H259466   8.604   1.236   7.679
19742WAT      O59467   6.855   5.129   2.294
19742WAT     H159468   6.764   5.166   2.277
19742WAT     H259469   6.882   5.149   2.388
19743WAT      O59470   3.624   3.538   4.281
19743WAT     H159471   3.555   3.597   4.323
19743WAT     H259472   3.689   3.594   4.230
19744WAT      O59473   3.029   7.961   2.010
19744WAT     H159474   2.950   8.016   1.980
19744WAT     H259475   3.072   8.005   2.089
19745WAT      O59476   3.498   2.509   5.538
19745WAT     H159477   3.473   2.537   5.446
19745WAT     H259478   3.419   2.515   5.598
19746WAT      O59479   0.721   4.771   7.134
19746WAT     H159480   0.675   4.749   7.048
19746WAT     H259481   0.676   4.849   7.177
19747WAT      O59482   5.683   8.674   9.597
19747WAT     H159483   5.734   8.721   9.525
19747WAT     H259484   5.622   8.738   9.643
19748WAT      O59485   3.328   7.098   6.915
19748WAT     H159486   3.411   7.099   6.971
19748WAT     H259487   3.317   7.008   6.874
19749WAT      O59488   8.912   7.414   0.150
19749WAT     H159489   8.848   7.424   0.226
19749WAT     H259490   8.959   7.501   0.134
19750WAT      O59491   1.360   2.433   6.341
19750WAT     H159492   1.340   2.476   6.253
19750WAT     H259493   1.440   2.375   6.333
19751WAT      O59494   6.022   3.790   3.510
19751WAT     H159495   6.067   3.701   3.508
19751WAT     H259496   5.963   3.800   3.430
19752WAT      O59497   6.204   3.178   5.033
19752WAT     H159498   6.149   3.261   5.032
19752WAT     H259499   6.184   3.125   5.116
19753WAT      O59500   7.166   8.419   3.347
19753WAT     H159501   7.158   8.467   3.260
19753WAT     H259502   7.109   8.464   3.416
19754WAT      O59503   1.877   0.076   7.844
19754WAT     H159504   1.909   0.096   7.752
19754WAT     H259505   1.784   0.040   7.841
19755WAT      O59506   0.335   7.670   0.014
19755WAT     H159507   0.385   7.586   0.029
19755WAT     H259508   0.363   7.739   0.081
19756WAT      O59509   6.636   0.801   5.878
19756WAT     H159510   6.656   0.832   5.971
19756WAT     H259511   6.691   0.719   5.858
19757WAT      O59512   2.363   2.350   7.453
19757WAT     H159513   2.283   2.347   7.512
19757WAT     H259514   2.338   2.320   7.361
19758WAT      O59515   6.662   4.877   8.333
19758WAT     H159516   6.643   4.804   8.399
19758WAT     H259517   6.741   4.853   8.277
19759WAT      O59518   3.834   1.146   7.813
19759WAT     H159519   3.925   1.186   7.825
19759WAT     H259520   3.765   1.213   7.840
19760WAT      O59521   6.938   9.802   2.853
19760WAT     H159522   6.935   9.733   2.926
19760WAT     H259523   6.926   9.893   2.892
19761WAT      O59524   9.752   5.837   8.321
19761WAT     H159525   9.678   5.778   8.354
19761WAT     H259526   9.826   5.837   8.388
19762WAT      O59527   3.944   2.913   1.088
19762WAT     H159528   4.015   2.863   1.137
19762WAT     H259529   3.985   2.984   1.032
19763WAT      O59530   7.898   5.587   2.275
19763WAT     H159531   7.813   5.552   2.233
19763WAT     H259532   7.970   5.519   2.265
19764WAT      O59533   0.787   4.649   6.464
19764WAT     H159534   0.753   4.720   6.402
19764WAT     H259535   0.822   4.572   6.411
19765WAT      O59536   5.646   6.445   6.041
19765WAT     H159537   5.726   6.468   6.096
19765WAT     H259538   5.569   6.501   6.071
19766WAT      O59539   9.457   1.433   1.941
19766WAT     H159540   9.458   1.371   1.862
19766WAT     H259541   9.492   1.384   2.021
19767WAT      O59542   6.663   9.275   9.860
19767WAT     H159543   6.637   9.207   9.791
19767WAT     H259544   6.762   9.289   9.857
19768WAT      O59545   1.389   6.408   7.458
19768WAT     H159546   1.291   6.403   7.437
19768WAT     H259547   1.434   6.324   7.427
19769WAT      O59548   3.746   2.899   7.322
19769WAT     H159549   3.716   2.866   7.411
19769WAT     H259550   3.704   2.844   7.250
19770WAT      O59551   1.391   8.615   0.245
19770WAT     H159552   1.336   8.648   0.322
19770WAT     H259553   1.488   8.616   0.270
19771WAT      O59554   3.567   0.441   7.721
19771WAT     H159555   3.473   0.444   7.687
19771WAT     H259556   3.631   0.447   7.644
19772WAT      O59557   2.070   2.739   3.471
19772WAT     H159558   1.998   2.746   3.539
19772WAT     H259559   2.039   2.781   3.385
19773WAT      O59560   4.620   9.044   2.811
19773WAT     H159561   4.643   9.140   2.824
19773WAT     H259562   4.673   9.008   2.734
19774WAT      O59563   7.661   8.424   3.906
19774WAT     H159564   7.715   8.507   3.904
19774WAT     H259565   7.579   8.436   3.849
19775WAT      O59566   7.119   4.084   3.426
19775WAT     H159567   7.163   3.998   3.401
19775WAT     H259568   7.167   4.160   3.383
19776WAT      O59569   9.707   2.803   8.933
19776WAT     H159570   9.791   2.848   8.902
19776WAT     H259571   9.678   2.736   8.865
19777WAT      O59572   2.113   3.008   1.021
19777WAT     H159573   2.150   2.986   1.111
19777WAT     H259574   2.031   2.953   1.004
19778WAT      O59575   7.892   8.729   6.126
19778WAT     H159576   7.924   8.685   6.042
19778WAT     H259577   7.829   8.666   6.174
19779WAT      O59578   7.919   3.994   4.752
19779WAT     H159579   7.850   4.043   4.699
19779WAT     H259580   8.003   3.986   4.697
19780WAT      O59581   7.867   7.892   2.167
19780WAT     H159582   7.871   7.916   2.070
19780WAT     H259583   7.841   7.796   2.177
19781WAT      O59584   2.479   5.332   9.365
19781WAT     H159585   2.472   5.414   9.309
19781WAT     H259586   2.415   5.263   9.331
19782WAT      O59587   4.472   9.578   8.683
19782WAT     H159588   4.429   9.492   8.710
19782WAT     H259589   4.478   9.584   8.583
19783WAT      O59590   0.827   9.374   0.222
19783WAT     H159591   0.881   9.378   0.138
19783WAT     H259592   0.731   9.391   0.200
19784WAT      O59593   1.032   3.012   9.668
19784WAT     H159594   1.080   3.081   9.615
19784WAT     H259595   0.991   2.945   9.606
19785WAT      O59596   0.416   6.203   8.171
19785WAT     H159597   0.441   6.286   8.122
19785WAT     H259598   0.445   6.123   8.118
19786WAT      O59599   7.383   6.933   1.386
19786WAT     H159600   7.458   6.924   1.451
19786WAT     H259601   7.315   6.996   1.422
19787WAT      O59602   1.640   3.933   8.873
19787WAT     H159603   1.734   3.900   8.873
19787WAT     H259604   1.630   4.003   8.944
19788WAT      O59605   6.384   7.877   3.913
19788WAT     H159606   6.321   7.952   3.927
19788WAT     H259607   6.345   7.811   3.849
19789WAT      O59608   6.179   4.491   4.762
19789WAT     H159609   6.146   4.565   4.822
19789WAT     H259610   6.111   4.418   4.758
19790WAT      O59611   4.235   2.779   0.115
19790WAT     H159612   4.269   2.686   0.125
19790WAT     H259613   4.137   2.781   0.135
19791WAT      O59614   6.148   6.537   7.888
19791WAT     H159615   6.079   6.465   7.895
19791WAT     H259616   6.109   6.623   7.921
19792WAT      O59617   1.490   9.705   6.885
19792WAT     H159618   1.573   9.747   6.848
19792WAT     H259619   1.487   9.609   6.857
19793WAT      O59620   0.133   3.245   1.451
19793WAT     H159621   0.055   3.190   1.483
19793WAT     H259622   0.218   3.197   1.473
19794WAT      O59623   5.012   6.595   5.496
19794WAT     H159624   4.961   6.519   5.538
19794WAT     H259625   5.059   6.562   5.415
19795WAT      O59626   5.955   8.198   1.497
19795WAT     H159627   6.013   8.144   1.436
19795WAT     H259628   5.859   8.171   1.484
19796WAT      O59629   1.099   9.431   1.727
19796WAT     H159630   1.000   9.444   1.733
19796WAT     H259631   1.129   9.444   1.633
19797WAT      O59632   0.755   7.715   2.065
19797WAT     H159633   0.681   7.742   2.126
19797WAT     H259634   0.731   7.739   1.971
19798WAT      O59635   5.558   5.003   9.658
19798WAT     H159636   5.558   5.087   9.605
19798WAT     H259637   5.628   4.941   9.621
19799WAT      O59638   0.682   9.233   9.380
19799WAT     H159639   0.591   9.193   9.365
19799WAT     H259640   0.751   9.171   9.342
19800WAT      O59641   4.031   7.630   6.577
19800WAT     H159642   4.001   7.541   6.611
19800WAT     H259643   4.003   7.640   6.482
19801WAT      O59644   6.450   0.241   0.011
19801WAT     H159645   6.450   0.336   0.043
19801WAT     H259646   6.379   0.230  -0.059
19802WAT      O59647   0.269   0.635   2.853
19802WAT     H159648   0.354   0.666   2.896
19802WAT     H259649   0.273   0.537   2.836
19803WAT      O59650   9.460   7.365   3.485
19803WAT     H159651   9.389   7.424   3.448
19803WAT     H259652   9.518   7.417   3.547
19804WAT      O59653   1.408   9.014   5.640
19804WAT     H159654   1.343   9.048   5.573
19804WAT     H259655   1.393   9.060   5.728
19805WAT      O59656   4.094   3.415   6.571
19805WAT     H159657   4.125   3.362   6.650
19805WAT     H259658   4.021   3.366   6.525
19806WAT      O59659   2.839   7.996   3.458
19806WAT     H159660   2.870   7.911   3.414
19806WAT     H259661   2.918   8.052   3.483
19807WAT      O59662   5.413   3.582   7.329
19807WAT     H159663   5.378   3.554   7.418
19807WAT     H259664   5.473   3.661   7.340
19808WAT      O59665   5.542   3.420   1.426
19808WAT     H159666   5.521   3.450   1.519
19808WAT     H259667   5.544   3.320   1.423
19809WAT      O59668   1.719   0.244   3.277
19809WAT     H159669   1.685   0.163   3.229
19809WAT     H259670   1.676   0.325   3.238
19810WAT      O59671   7.102   9.151   4.337
19810WAT     H159672   7.053   9.065   4.324
19810WAT     H259673   7.121   9.192   4.247
19811WAT      O59674   9.846   4.642   2.358
19811WAT     H159675   9.843   4.736   2.323
19811WAT     H259676   9.813   4.641   2.452
19812WAT      O59677   6.501   5.079   4.180
19812WAT     H159678   6.571   5.135   4.224
19812WAT     H259679   6.543   4.996   4.143
19813WAT      O59680   1.255   1.109   6.045
19813WAT     H159681   1.175   1.165   6.063
19813WAT     H259682   1.259   1.087   5.947
19814WAT      O59683   5.898   9.435   0.730
19814WAT     H159684   5.958   9.367   0.773
19814WAT     H259685   5.878   9.507   0.796
19815WAT      O59686   6.528   9.747   6.843
19815WAT     H159687   6.559   9.840   6.860
19815WAT     H259688   6.446   9.749   6.787
19816WAT      O59689   2.272   0.592   9.701
19816WAT     H159690   2.317   0.565   9.787
19816WAT     H259691   2.231   0.682   9.712
19817WAT      O59692   0.793   9.446   4.555
19817WAT     H159693   0.782   9.356   4.514
19817WAT     H259694   0.765   9.443   4.651
19818WAT      O59695   5.672   6.134   5.336
19818WAT     H159696   5.676   6.056   5.274
19818WAT     H259697   5.656   6.218   5.284
19819WAT      O59698   5.878   9.629   3.759
19819WAT     H159699   5.976   9.609   3.766
19819WAT     H259700   5.863   9.727   3.763
19820WAT      O59701   5.743   5.480   9.715
19820WAT     H159702   5.738   5.463   9.814
19820WAT     H259703   5.832   5.451   9.681
19821WAT      O59704   4.609   3.840   2.759
19821WAT     H159705   4.524   3.836   2.707
19821WAT     H259706   4.605   3.777   2.836
19822WAT      O59707   1.725   9.627   5.272
19822WAT     H159708   1.720   9.713   5.322
19822WAT     H259709   1.633   9.591   5.258
19823WAT      O59710   8.138   0.301   2.297
19823WAT     H159711   8.067   0.370   2.288
19823WAT     H259712   8.210   0.336   2.358
19824WAT      O59713   2.914   1.805   8.416
19824WAT     H159714   2.986   1.736   8.422
19824WAT     H259715   2.833   1.766   8.373
19825WAT      O59716   7.035   2.825   1.934
19825WAT     H159717   6.993   2.848   2.022
19825WAT     H259718   6.968   2.834   1.861
19826WAT      O59719   6.651   4.175   5.434
19826WAT     H159720   6.564   4.165   5.386
19826WAT     H259721   6.668   4.272   5.454
19827WAT      O59722   0.055   7.177   2.041
19827WAT     H159723   0.014   7.263   2.009
19827WAT     H259724   0.082   7.122   1.963
19828WAT      O59725   2.709   3.998   5.137
19828WAT     H159726   2.782   4.058   5.106
19828WAT     H259727   2.740   3.904   5.136
19829WAT      O59728   9.241   0.708   3.630
19829WAT     H159729   9.240   0.694   3.729
19829WAT     H259730   9.309   0.648   3.588
19830WAT      O59731   4.965   0.820   6.904
19830WAT     H159732   4.973   0.919   6.902
19830WAT     H259733   4.913   0.789   6.824
19831WAT      O59734   8.148   7.463   1.338
19831WAT     H159735   8.242   7.496   1.334
19831WAT     H259736   8.105   7.496   1.422
19832WAT      O59737   3.962   9.233   5.713
19832WAT     H159738   4.030   9.284   5.766
19832WAT     H259739   3.881   9.217   5.769
19833WAT      O59740   1.103   6.956   7.584
19833WAT     H159741   1.193   6.989   7.554
19833WAT     H259742   1.114   6.885   7.653
19834WAT      O59743   7.459   4.752   4.122
19834WAT     H159744   7.426   4.662   4.151
19834WAT     H259745   7.480   4.750   4.024
19835WAT      O59746   6.669   7.617   0.513
19835WAT     H159747   6.577   7.656   0.514
19835WAT     H259748   6.706   7.615   0.606
19836WAT      O59749   2.589   9.244   1.356
19836WAT     H159750   2.687   9.251   1.339
19836WAT     H259751   2.568   9.153   1.393
19837WAT      O59752   7.920   2.485   8.010
19837WAT     H159753   7.841   2.507   8.067
19837WAT     H259754   7.999   2.465   8.069
19838WAT      O59755   9.390   6.730   8.917
19838WAT     H159756   9.323   6.754   8.987
19838WAT     H259757   9.473   6.784   8.930
19839WAT      O59758   5.512   1.887   6.126
19839WAT     H159759   5.433   1.826   6.138
19839WAT     H259760   5.574   1.876   6.204
19840WAT      O59761   5.911   7.819   9.115
19840WAT     H159762   5.992   7.775   9.076
19840WAT     H259763   5.835   7.811   9.050
19841WAT      O59764   9.761   3.827   6.511
19841WAT     H159765   9.709   3.860   6.432
19841WAT     H259766   9.843   3.780   6.480
19842WAT      O59767   6.046   0.744   3.439
19842WAT     H159768   6.025   0.784   3.350
19842WAT     H259769   5.972   0.682   3.466
19843WAT      O59770   0.811   7.692   8.248
19843WAT     H159771   0.740   7.761   8.255
19843WAT     H259772   0.809   7.633   8.329
19844WAT      O59773   1.369   9.450   0.889
19844WAT     H159774   1.421   9.450   0.804
19844WAT     H259775   1.432   9.454   0.967
19845WAT      O59776   2.477   6.812   6.141
19845WAT     H159777   2.544   6.741   6.164
19845WAT     H259778   2.501   6.897   6.188
19846WAT      O59779   3.141   5.114   7.013
19846WAT     H159780   3.100   5.023   7.012
19846WAT     H259781   3.104   5.168   6.937
19847WAT      O59782   5.745   0.114   9.025
19847WAT     H159783   5.772   0.185   8.960
19847WAT     H259784   5.687   0.153   9.095
19848WAT      O59785   5.075   8.331   6.237
19848WAT     H159786   5.002   8.373   6.291
19848WAT     H259787   5.103   8.393   6.164
19849WAT      O59788   7.512   9.122   5.558
19849WAT     H159789   7.495   9.221   5.562
19849WAT     H259790   7.426   9.073   5.569
19850WAT      O59791   4.525   5.701   2.852
19850WAT     H159792   4.590   5.717   2.927
19850WAT     H259793   4.561   5.632   2.790
19851WAT      O59794   0.751   8.641   1.894
19851WAT     H159795   0.669   8.595   1.927
19851WAT     H259796   0.820   8.573   1.869
19852WAT      O59797   8.812   0.814   9.658
19852WAT     H159798   8.773   0.856   9.576
19852WAT     H259799   8.802   0.715   9.652
19853WAT      O59800   0.310   5.485   5.372
19853WAT     H159801   0.400   5.443   5.380
19853WAT     H259802   0.318   5.584   5.383
19854WAT      O59803   8.534   0.982   7.210
19854WAT     H159804   8.612   0.941   7.257
19854WAT     H259805   8.504   0.922   7.136
19855WAT      O59806   6.678   9.592   7.064
19855WAT     H159807   6.620   9.640   6.998
19855WAT     H259808   6.666   9.494   7.054
19856WAT      O59809   4.689   7.010   5.551
19856WAT     H159810   4.698   6.910   5.555
19856WAT     H259811   4.642   7.043   5.633
19857WAT      O59812   7.260   5.236   8.941
19857WAT     H159813   7.280   5.184   8.858
19857WAT     H259814   7.193   5.186   8.996
19858WAT      O59815   4.374   2.703   4.337
19858WAT     H159816   4.300   2.738   4.281
19858WAT     H259817   4.459   2.752   4.315
19859WAT      O59818   3.904   2.345   5.770
19859WAT     H159819   3.930   2.360   5.865
19859WAT     H259820   3.935   2.254   5.741
19860WAT      O59821   8.933   0.874   5.601
19860WAT     H159822   8.925   0.972   5.622
19860WAT     H259823   8.992   0.863   5.521
19861WAT      O59824   3.392   7.427   4.251
19861WAT     H159825   3.388   7.440   4.350
19861WAT     H259826   3.310   7.467   4.209
19862WAT      O59827   8.037   5.543   6.388
19862WAT     H159828   7.975   5.467   6.367
19862WAT     H259829   8.024   5.615   6.320
19863WAT      O59830   5.812   1.456   2.320
19863WAT     H159831   5.778   1.545   2.290
19863WAT     H259832   5.906   1.443   2.287
19864WAT      O59833   1.404   0.993   1.445
19864WAT     H159834   1.326   1.006   1.506
19864WAT     H259835   1.396   1.054   1.366
19865WAT      O59836   9.494   1.614   5.729
19865WAT     H159837   9.579   1.664   5.745
19865WAT     H259838   9.450   1.595   5.817
19866WAT      O59839   0.450   9.752   9.244
19866WAT     H159840   0.507   9.696   9.305
19866WAT     H259841   0.444   9.845   9.280
19867WAT      O59842   4.214   9.542   7.014
19867WAT     H159843   4.122   9.569   6.985
19867WAT     H259844   4.267   9.514   6.934
19868WAT      O59845   3.715   3.436   8.491
19868WAT     H159846   3.770   3.386   8.424
19868WAT     H259847   3.707   3.531   8.463
19869WAT      O59848   8.095   6.747   0.101
19869WAT     H159849   8.035   6.667   0.107
19869WAT     H259850   8.120   6.762   0.006
19870WAT      O59851   5.763   3.774   7.793
19870WAT     H159852   5.845   3.831   7.800
19870WAT     H259853   5.705   3.808   7.719
19871WAT      O59854   9.732   1.606   5.297
19871WAT     H159855   9.692   1.636   5.210
19871WAT     H259856   9.725   1.506   5.303
19872WAT      O59857   7.454   2.128   3.230
19872WAT     H159858   7.531   2.097   3.174
19872WAT     H259859   7.368   2.095   3.190
19873WAT      O59860   8.523   2.263   6.687
19873WAT     H159861   8.473   2.257   6.601
19873WAT     H259862   8.595   2.194   6.689
19874WAT      O59863   2.961   7.053   2.722
19874WAT     H159864   2.942   7.021   2.814
19874WAT     H259865   3.000   7.145   2.726
19875WAT      O59866   3.759   5.760   8.700
19875WAT     H159867   3.818   5.780   8.622
19875WAT     H259868   3.743   5.661   8.706
19876WAT      O59869   9.706   0.908   0.867
19876WAT     H159870   9.617   0.863   0.868
19876WAT     H259871   9.778   0.840   0.851
19877WAT      O59872   9.729   3.044   9.320
19877WAT     H159873   9.650   3.033   9.259
19877WAT     H259874   9.802   2.982   9.291
19878WAT      O59875   8.594   2.723   5.871
19878WAT     H159876   8.552   2.639   5.839
19878WAT     H259877   8.616   2.781   5.792
19879WAT      O59878   6.879   7.398   1.878
19879WAT     H159879   6.815   7.388   1.954
19879WAT     H259880   6.881   7.493   1.849
19880WAT      O59881   3.157   8.054   2.209
19880WAT     H159882   3.235   8.116   2.210
19880WAT     H259883   3.163   7.992   2.287
19881WAT      O59884   3.632   0.564   9.740
19881WAT     H159885   3.624   0.488   9.803
19881WAT     H259886   3.560   0.631   9.759
19882WAT      O59887   5.533   0.066   4.011
19882WAT     H159888   5.618   0.082   4.062
19882WAT     H259889   5.521  -0.032   3.998
19883WAT      O59890   3.391   4.585   8.239
19883WAT     H159891   3.306   4.543   8.270
19883WAT     H259892   3.406   4.670   8.289
19884WAT      O59893   9.488   4.918   0.362
19884WAT     H159894   9.507   4.889   0.456
19884WAT     H259895   9.443   4.844   0.312
19885WAT      O59896   5.300   7.293   7.423
19885WAT     H159897   5.245   7.278   7.506
19885WAT     H259898   5.337   7.386   7.424
19886WAT      O59899   2.449   4.747   6.474
19886WAT     H159900   2.362   4.794   6.464
19886WAT     H259901   2.500   4.752   6.388
19887WAT      O59902   3.947   6.392   3.458
19887WAT     H159903   3.987   6.477   3.493
19887WAT     H259904   3.861   6.373   3.505
19888WAT      O59905   8.251   1.186   3.294
19888WAT     H159906   8.349   1.207   3.296
19888WAT     H259907   8.203   1.246   3.357
19889WAT      O59908   9.201   4.032   8.742
19889WAT     H159909   9.137   4.103   8.712
19889WAT     H259910   9.166   3.989   8.825
19890WAT      O59911   1.796   0.053   1.594
19890WAT     H159912   1.874   0.077   1.536
19890WAT     H259913   1.798   0.110   1.676
19891WAT      O59914   1.936   3.951   6.497
19891WAT     H159915   1.987   4.030   6.463
19891WAT     H259916   1.979   3.867   6.462
19892WAT      O59917   7.613   0.057   4.958
19892WAT     H159918   7.597   0.150   4.992
19892WAT     H259919   7.668   0.061   4.875
19893WAT      O59920   7.601   1.293   5.306
19893WAT     H159921   7.517   1.345   5.322
19893WAT     H259922   7.588   1.198   5.335
19894WAT      O59923   2.648   8.843   0.065
19894WAT     H159924   2.693   8.839   0.154
19894WAT     H259925   2.558   8.885   0.075
19895WAT      O59926   3.527   1.499   2.632
19895WAT     H159927   3.613   1.475   2.586
19895WAT     H259928   3.496   1.421   2.686
19896WAT      O59929   6.617   2.908   2.552
19896WAT     H159930   6.654   2.849   2.482
19896WAT     H259931   6.659   2.887   2.640
19897WAT      O59932   3.996   0.138   9.601
19897WAT     H159933   4.078   0.151   9.657
19897WAT     H259934   3.997   0.047   9.560
19898WAT      O59935   0.810   5.453   6.181
19898WAT     H159936   0.847   5.495   6.264
19898WAT     H259937   0.837   5.357   6.178
19899WAT      O59938   8.504   8.993   0.446
19899WAT     H159939   8.431   9.060   0.458
19899WAT     H259940   8.463   8.903   0.430
19900WAT      O59941   0.891   7.958   9.526
19900WAT     H159942   0.797   7.992   9.538
19900WAT     H259943   0.894   7.895   9.448
19901WAT      O59944   9.501   1.910   6.528
19901WAT     H159945   9.461   1.997   6.499
19901WAT     H259946   9.596   1.906   6.498
19902WAT      O59947   2.106   4.210   2.946
19902WAT     H159948   2.071   4.140   2.884
19902WAT     H259949   2.034   4.278   2.963
19903WAT      O59950   8.369   5.776   1.516
19903WAT     H159951   8.295   5.821   1.565
19903WAT     H259952   8.360   5.677   1.525
19904WAT      O59953   9.519   6.551   3.432
19904WAT     H159954   9.472   6.574   3.347
19904WAT     H259955   9.601   6.497   3.412
19905WAT      O59956   9.636   5.100   2.230
19905WAT     H159957   9.649   5.036   2.306
19905WAT     H259958   9.642   5.051   2.143
19906WAT      O59959   4.239   5.769   4.473
19906WAT     H159960   4.254   5.857   4.427
19906WAT     H259961   4.218   5.785   4.570
19907WAT      O59962   0.350   9.350   7.118
19907WAT     H159963   0.448   9.369   7.107
19907WAT     H259964   0.337   9.290   7.197
19908WAT      O59965   7.336   4.554   6.846
19908WAT     H159966   7.249   4.513   6.817
19908WAT     H259967   7.331   4.580   6.942
19909WAT      O59968   4.898   4.472   6.902
19909WAT     H159969   4.854   4.387   6.872
19909WAT     H259970   4.835   4.523   6.961
19910WAT      O59971   7.239   6.670   2.612
19910WAT     H159972   7.281   6.584   2.642
19910WAT     H259973   7.296   6.712   2.541
19911WAT      O59974   0.366   5.276   4.066
19911WAT     H159975   0.316   5.213   4.126
19911WAT     H259976   0.463   5.253   4.068
19912WAT      O59977   3.980   6.567   5.274
19912WAT     H159978   4.034   6.624   5.212
19912WAT     H259979   4.025   6.561   5.363
19913WAT      O59980   0.692   2.872   5.171
19913WAT     H159981   0.625   2.947   5.163
19913WAT     H259982   0.728   2.851   5.080
19914WAT      O59983   8.244   8.312   0.402
19914WAT     H159984   8.224   8.379   0.474
19914WAT     H259985   8.223   8.351   0.313
19915WAT      O59986   8.790   1.975   5.096
19915WAT     H159987   8.873   1.930   5.128
19915WAT     H259988   8.809   2.072   5.082
19916WAT      O59989   1.218   8.662   5.577
19916WAT     H159990   1.155   8.598   5.533
19916WAT     H259991   1.311   8.644   5.546
19917WAT      O59992   6.621   2.550   8.600
19917WAT     H159993   6.639   2.541   8.698
19917WAT     H259994   6.630   2.461   8.556
19918WAT      O59995   4.676   4.111   5.012
19918WAT     H159996   4.636   4.090   4.922
19918WAT     H259997   4.606   4.097   5.083
19919WAT      O59998   5.203   2.880   2.726
19919WAT     H159999   5.274   2.930   2.677
19919WAT     H260000   5.153   2.942   2.786
19920WAT      O60001   5.193   6.648   7.463
19920WAT     H160002   5.228   6.562   7.426
19920WAT     H260003   5.224   6.724   7.406
19921WAT      O60004   8.714   2.554   2.933
19921WAT     H160005   8.688   2.637   2.983
19921WAT     H260006   8.781   2.503   2.986
19922WAT      O60007   5.246   0.791   4.981
19922WAT     H160008   5.297   0.728   5.040
19922WAT     H260009   5.168   0.828   5.031
19923WAT      O60010   6.178   2.348   2.893
19923WAT     H160011   6.084   2.369   2.865
19923WAT     H260012   6.235   2.429   2.879
19924WAT      O60013   0.988   7.552   5.229
19924WAT     H160014   1.062   7.550   5.162
19924WAT     H260015   1.018   7.506   5.313
19925WAT      O60016   0.176   6.325   1.786
19925WAT     H160017   0.139   6.233   1.768
19925WAT     H260018   0.123   6.369   1.858
19926WAT      O60019   7.267   0.047   7.869
19926WAT     H160020   7.297   0.090   7.954
19926WAT     H260021   7.170   0.068   7.854
19927WAT      O60022   6.078   1.150   6.423
19927WAT     H160023   6.041   1.075   6.368
19927WAT     H260024   6.124   1.216   6.364
19928WAT      O60025   0.476   3.120   0.877
19928WAT     H160026   0.560   3.152   0.833
19928WAT     H260027   0.400   3.126   0.812
19929WAT      O60028   5.325   6.492   1.613
19929WAT     H160029   5.393   6.563   1.634
19929WAT     H260030   5.372   6.409   1.585
19930WAT      O60031   2.469   0.502   2.499
19930WAT     H160032   2.498   0.457   2.414
19930WAT     H260033   2.377   0.540   2.486
19931WAT      O60034   1.404   2.091   1.152
19931WAT     H160035   1.409   2.191   1.156
19931WAT     H260036   1.310   2.063   1.130
19932WAT      O60037   2.607   1.079   7.114
19932WAT     H160038   2.663   0.999   7.092
19932WAT     H260039   2.666   1.152   7.148
19933WAT      O60040   8.164   3.607   7.730
19933WAT     H160041   8.164   3.553   7.814
19933WAT     H260042   8.193   3.701   7.751
19934WAT      O60043   6.361   2.146   4.844
19934WAT     H160044   6.347   2.063   4.791
19934WAT     H260045   6.446   2.139   4.896
19935WAT      O60046   5.810   7.709   0.382
19935WAT     H160047   5.887   7.649   0.362
19935WAT     H260048   5.788   7.705   0.479
19936WAT      O60049   4.040   6.452   0.595
19936WAT     H160050   3.970   6.479   0.661
19936WAT     H260051   4.044   6.518   0.520
19937WAT      O60052   4.123   2.693   9.001
19937WAT     H160053   4.197   2.641   8.958
19937WAT     H260054   4.132   2.687   9.100
19938WAT      O60055   8.144   1.537   5.451
19938WAT     H160056   8.231   1.585   5.452
19938WAT     H260057   8.112   1.526   5.357
19939WAT      O60058   2.479   3.398   3.349
19939WAT     H160059   2.571   3.412   3.312
19939WAT     H260060   2.463   3.301   3.362
19940WAT      O60061   9.643   4.927   8.854
19940WAT     H160062   9.605   4.836   8.839
19940WAT     H260063   9.676   4.935   8.948
19941WAT      O60064   7.436   2.261   1.347
19941WAT     H160065   7.480   2.330   1.405
19941WAT     H260066   7.498   2.234   1.274
19942WAT      O60067   1.367   6.576   6.068
19942WAT     H160068   1.414   6.582   6.156
19942WAT     H260069   1.296   6.505   6.073
19943WAT      O60070   3.685   1.572   9.845
19943WAT     H160071   3.737   1.657   9.850
19943WAT     H260072   3.701   1.518   9.928
19944WAT      O60073   6.150   0.762   3.776
19944WAT     H160074   6.056   0.750   3.744
19944WAT     H260075   6.159   0.725   3.868
19945WAT      O60076   4.812   1.728   8.787
19945WAT     H160077   4.717   1.706   8.812
19945WAT     H260078   4.871   1.713   8.866
19946WAT      O60079   8.020   6.082   0.627
19946WAT     H160080   8.110   6.038   0.636
19946WAT     H260081   8.027   6.177   0.657
19947WAT      O60082   2.781   5.279   6.148
19947WAT     H160083   2.713   5.223   6.194
19947WAT     H260084   2.864   5.225   6.131
19948WAT      O60085   6.709   7.458   7.160
19948WAT     H160086   6.656   7.469   7.076
19948WAT     H260087   6.780   7.529   7.164
19949WAT      O60088   2.381   1.689   5.950
19949WAT     H160089   2.308   1.741   5.994
19949WAT     H260090   2.455   1.673   6.015
19950WAT      O60091   1.097   8.161   0.596
19950WAT     H160092   1.112   8.092   0.526
19950WAT     H260093   0.999   8.178   0.606
19951WAT      O60094   5.230   9.798   7.956
19951WAT     H160095   5.304   9.744   7.915
19951WAT     H260096   5.143   9.755   7.934
19952WAT      O60097   1.870   5.332   9.031
19952WAT     H160098   1.819   5.358   9.113
19952WAT     H260099   1.952   5.281   9.057
19953WAT      O60100   9.831   5.094   8.740
19953WAT     H160101   9.780   5.027   8.794
19953WAT     H260102   9.794   5.096   8.647
19954WAT      O60103   7.969   5.821   0.268
19954WAT     H160104   7.957   5.724   0.250
19954WAT     H260105   8.030   5.834   0.347
19955WAT      O60106   1.678   7.359   0.304
19955WAT     H160107   1.659   7.441   0.358
19955WAT     H260108   1.749   7.306   0.350
19956WAT      O60109   7.218   6.994   2.750
19956WAT     H160110   7.173   6.922   2.699
19956WAT     H260111   7.158   7.074   2.756
19957WAT      O60112   6.456   1.117   2.178
19957WAT     H160113   6.442   1.151   2.271
19957WAT     H260114   6.553   1.093   2.166
19958WAT      O60115   2.704   6.671   4.248
19958WAT     H160116   2.679   6.620   4.166
19958WAT     H260117   2.744   6.609   4.315
19959WAT      O60118   6.275   0.060   0.530
19959WAT     H160119   6.224   0.144   0.546
19959WAT     H260120   6.372   0.083   0.514
19960WAT      O60121   8.368   4.518   2.412
19960WAT     H160122   8.341   4.583   2.482
19960WAT     H260123   8.439   4.559   2.354
19961WAT      O60124   6.627   3.401   5.396
19961WAT     H160125   6.662   3.480   5.445
19961WAT     H260126   6.558   3.355   5.452
19962WAT      O60127   5.574   6.755   8.597
19962WAT     H160128   5.529   6.728   8.512
19962WAT     H260129   5.628   6.678   8.632
19963WAT      O60130   5.609   4.093   7.169
19963WAT     H160131   5.519   4.084   7.212
19963WAT     H260132   5.607   4.168   7.104
19964WAT      O60133   3.919   3.482   5.815
19964WAT     H160134   3.842   3.420   5.822
19964WAT     H260135   3.969   3.484   5.902
19965WAT      O60136   0.819   5.599   1.212
19965WAT     H160137   0.860   5.634   1.296
19965WAT     H260138   0.719   5.605   1.219
19966WAT      O60139   0.631   0.069   4.843
19966WAT     H160140   0.721   0.028   4.830
19966WAT     H260141   0.638   0.168   4.830
19967WAT      O60142   2.865   6.977   2.967
19967WAT     H160143   2.928   7.001   3.040
19967WAT     H260144   2.858   6.877   2.961
19968WAT      O60145   5.531   3.749   1.475
19968WAT     H160146   5.614   3.694   1.490
19968WAT     H260147   5.511   3.753   1.377
19969WAT      O60148   1.255   4.399   1.650
19969WAT     H160149   1.202   4.408   1.734
19969WAT     H260150   1.332   4.463   1.653
19970WAT      O60151   2.701   1.673   1.580
19970WAT     H160152   2.673   1.733   1.655
19970WAT     H260153   2.789   1.631   1.602
19971WAT      O60154   0.250   6.868   0.068
19971WAT     H160155   0.322   6.898   0.130
19971WAT     H260156   0.221   6.776   0.094
19972WAT      O60157   3.619   7.922   3.346
19972WAT     H160158   3.534   7.953   3.388
19972WAT     H260159   3.665   7.857   3.407
19973WAT      O60160   0.590   9.058   8.512
19973WAT     H160161   0.550   9.142   8.477
19973WAT     H260162   0.648   9.017   8.442
19974WAT      O60163   8.588   7.502   5.735
19974WAT     H160164   8.581   7.533   5.829
19974WAT     H260165   8.516   7.435   5.716
19975WAT      O60166   8.020   7.598   9.465
19975WAT     H160167   8.046   7.616   9.370
19975WAT     H260168   7.951   7.526   9.467
19976WAT      O60169   7.996   8.481   6.584
19976WAT     H160170   8.073   8.428   6.621
19976WAT     H260171   7.971   8.553   6.648
19977WAT      O60172   9.214   6.554   0.689
19977WAT     H160173   9.312   6.556   0.674
19977WAT     H260174   9.172   6.486   0.628
19978WAT      O60175   6.163   6.005   8.776
19978WAT     H160176   6.208   6.072   8.834
19978WAT     H260177   6.064   6.012   8.786
19979WAT      O60178   4.439   7.485   7.210
19979WAT     H160179   4.347   7.505   7.177
19979WAT     H260180   4.499   7.563   7.192
19980WAT      O60181   8.798   0.417   5.949
19980WAT     H160182   8.725   0.439   5.885
19980WAT     H260183   8.850   0.500   5.970
19981WAT      O60184   5.331   8.361   9.394
19981WAT     H160185   5.310   8.301   9.318
19981WAT     H260186   5.246   8.385   9.443
19982WAT      O60187   8.654   8.058   1.139
19982WAT     H160188   8.690   8.082   1.048
19982WAT     H260189   8.710   7.986   1.179
19983WAT      O60190   4.833   5.069   3.541
19983WAT     H160191   4.852   5.031   3.450
19983WAT     H260192   4.912   5.122   3.572
19984WAT      O60193   6.534   6.982   4.783
19984WAT     H160194   6.453   7.010   4.731
19984WAT     H260195   6.615   6.989   4.725
19985WAT      O60196   1.327   1.718   0.910
19985WAT     H160197   1.256   1.649   0.923
19985WAT     H260198   1.301   1.776   0.832
19986WAT      O60199   1.733   8.770   2.628
19986WAT     H160200   1.789   8.753   2.709
19986WAT     H260201   1.742   8.694   2.564
19987WAT      O60202   9.751   1.887   3.966
19987WAT     H160203   9.711   1.972   3.932
19987WAT     H260204   9.703   1.859   4.050
19988WAT      O60205   8.740   1.260   8.298
19988WAT     H160206   8.672   1.300   8.359
19988WAT     H260207   8.821   1.234   8.351
19989WAT      O60208   0.700   0.757   1.779
19989WAT     H160209   0.628   0.693   1.751
19989WAT     H260210   0.781   0.707   1.808
19990WAT      O60211   9.818   9.707   3.321
19990WAT     H160212   9.838   9.771   3.247
19990WAT     H260213   9.790   9.758   3.402
19991WAT      O60214   4.980   3.651   2.265
19991WAT     H160215   5.039   3.571   2.262
19991WAT     H260216   4.930   3.654   2.351
19992WAT      O60217   2.198   0.158   3.992
19992WAT     H160218   2.123   0.191   3.934
19992WAT     H260219   2.276   0.133   3.935
19993WAT      O60220   2.182   0.662   8.689
19993WAT     H160221   2.109   0.612   8.737
19993WAT     H260222   2.144   0.707   8.608
19994WAT      O60223   0.248   2.810   8.599
19994WAT     H160224   0.331   2.772   8.640
19994WAT     H260225   0.262   2.906   8.579
19995WAT      O60226   4.085   1.238   0.892
19995WAT     H160227   4.128   1.242   0.802
19995WAT     H260228   4.081   1.330   0.931
19996WAT      O60229   4.618   0.364   7.974
19996WAT     H160230   4.613   0.463   7.989
19996WAT     H260231   4.526   0.329   7.953
19997WAT      O60232   8.536   9.602   6.168
19997WAT     H160233   8.494   9.512   6.180
19997WAT     H260234   8.555   9.643   6.257
19998WAT      O60235   4.683   9.772   9.061
19998WAT     H160236   4.709   9.868   9.048
19998WAT     H260237   4.584   9.766   9.070
19999WAT      O60238   4.741   6.147   7.120
19999WAT     H160239   4.811   6.217   7.128
19999WAT     H260240   4.746   6.104   7.030
20000WAT      O60241   7.958   7.838   8.956
20000WAT     H160242   7.871   7.884   8.976
20000WAT     H260243   8.023   7.904   8.919
20001WAT      O60244   4.893   3.261   5.781
20001WAT     H160245   4.805   3.217   5.800
20001WAT     H260246   4.937   3.285   5.868
20002WAT      O60247   2.104   1.280   9.293
20002WAT     H160248   2.184   1.222   9.276
20002WAT     H260249   2.079   1.275   9.390
20003WAT      O60250   4.104   4.304   9.190
20003WAT     H160251   4.107   4.398   9.156
20003WAT     H260252   4.197   4.266   9.191
20004WAT      O60253   1.942   7.203   1.144
20004WAT     H160254   1.909   7.194   1.050
20004WAT     H260255   2.023   7.145   1.156
20005WAT      O60256   4.380   5.037   1.931
20005WAT     H160257   4.451   4.967   1.929
20005WAT     H260258   4.375   5.082   1.842
20006WAT      O60259   9.581   7.770   2.831
20006WAT     H160260   9.586   7.734   2.924
20006WAT     H260261   9.548   7.698   2.769
20007WAT      O60262   3.748   6.206   9.592
20007WAT     H160263   3.653   6.180   9.575
20007WAT     H260264   3.807   6.127   9.574
20008WAT      O60265   5.636   9.341   8.646
20008WAT     H160266   5.694   9.355   8.727
20008WAT     H260267   5.683   9.377   8.565
20009WAT      O60268   4.572   3.132   2.361
20009WAT     H160269   4.597   3.037   2.380
20009WAT     H260270   4.648   3.192   2.388
20010WAT      O60271   5.226   6.673   1.402
20010WAT     H160272   5.291   6.638   1.468
20010WAT     H260273   5.211   6.604   1.330
20011WAT      O60274   6.173   8.857   3.432
20011WAT     H160275   6.108   8.784   3.410
20011WAT     H260276   6.129   8.924   3.491
20012WAT      O60277   5.831   8.396   8.863
20012WAT     H160278   5.875   8.334   8.927
20012WAT     H260279   5.873   8.487   8.870
20013WAT      O60280   4.705   3.480   6.026
20013WAT     H160281   4.788   3.441   5.987
20013WAT     H260282   4.718   3.579   6.038
20014WAT      O60283   6.580   6.795   6.444
20014WAT     H160284   6.564   6.721   6.379
20014WAT     H260285   6.511   6.791   6.517
20015WAT      O60286   7.058   8.090   6.849
20015WAT     H160287   7.049   8.099   6.948
20015WAT     H260288   7.149   8.122   6.821
20016WAT      O60289   2.112   3.662   1.197
20016WAT     H160290   2.130   3.750   1.153
20016WAT     H260291   2.049   3.676   1.274
20017WAT      O60292   9.777   6.417   5.561
20017WAT     H160293   9.771   6.434   5.463
20017WAT     H260294   9.719   6.339   5.585
20018WAT      O60295   4.984   1.563   3.549
20018WAT     H160296   4.953   1.656   3.567
20018WAT     H260297   5.081   1.554   3.574
20019WAT      O60298   0.889   1.623   6.192
20019WAT     H160299   0.968   1.678   6.165
20019WAT     H260300   0.919   1.530   6.214
20020WAT      O60301   6.841   1.363   8.384
20020WAT     H160302   6.938   1.338   8.377
20020WAT     H260303   6.787   1.302   8.326
20021WAT      O60304   5.021   0.094   3.318
20021WAT     H160305   5.063   0.161   3.380
20021WAT     H260306   4.973   0.142   3.244
20022WAT      O60307   9.679   1.949   9.189
20022WAT     H160308   9.618   2.010   9.139
20022WAT     H260309   9.645   1.855   9.184
20023WAT      O60310   0.698   5.746   9.646
20023WAT     H160311   0.722   5.690   9.567
20023WAT     H260312   0.726   5.700   9.730
20024WAT      O60313   9.122   7.180   1.071
20024WAT     H160314   9.128   7.126   0.987
20024WAT     H260315   9.212   7.183   1.115
20025WAT      O60316   4.783   9.773   1.459
20025WAT     H160317   4.734   9.844   1.510
20025WAT     H260318   4.843   9.815   1.392
20026WAT      O60319   4.264   4.175   3.043
20026WAT     H160320   4.235   4.236   2.970
20026WAT     H260321   4.184   4.146   3.096
20027WAT      O60322   9.247   6.382   0.286
20027WAT     H160323   9.171   6.355   0.346
20027WAT     H260324   9.310   6.440   0.337
20028WAT      O60325   1.831   9.573   0.785
20028WAT     H160326   1.742   9.617   0.796
20028WAT     H260327   1.901   9.644   0.776
20029WAT      O60328   9.235   5.108   2.620
20029WAT     H160329   9.164   5.056   2.668
20029WAT     H260330   9.315   5.051   2.606
20030WAT      O60331   0.729   5.768   8.000
20030WAT     H160332   0.686   5.746   8.088
20030WAT     H260333   0.768   5.860   8.005
20031WAT      O60334   1.821   4.216   1.506
20031WAT     H160335   1.782   4.304   1.531
20031WAT     H260336   1.750   4.146   1.508
20032WAT      O60337   9.006   1.968   8.530
20032WAT     H160338   8.945   2.045   8.549
20032WAT     H260339   8.968   1.912   8.456
20033WAT      O60340   6.295   6.937   8.763
20033WAT     H160341   6.369   6.971   8.705
20033WAT     H260342   6.334   6.885   8.839
20034WAT      O60343   4.812   4.416   6.585
20034WAT     H160344   4.906   4.445   6.605
20034WAT     H260345   4.786   4.342   6.646
20035WAT      O60346   6.284   7.068   5.777
20035WAT     H160347   6.216   7.040   5.844
20035WAT     H260348   6.315   6.988   5.725
20036WAT      O60349   5.945   3.412   8.438
20036WAT     H160350   5.927   3.330   8.492
20036WAT     H260351   5.951   3.491   8.499
20037WAT      O60352   3.963   7.823   9.662
20037WAT     H160353   3.886   7.768   9.694
20037WAT     H260354   4.041   7.809   9.724
20038WAT      O60355   3.638   0.435   4.060
20038WAT     H160356   3.661   0.456   3.965
20038WAT     H260357   3.569   0.501   4.092
20039WAT      O60358   7.280   8.377   4.578
20039WAT     H160359   7.306   8.407   4.487
20039WAT     H260360   7.337   8.424   4.646
20040WAT      O60361   8.541   9.184   8.364
20040WAT     H160362   8.545   9.266   8.421
20040WAT     H260363   8.525   9.104   8.421
20041WAT      O60364   4.015   9.713   0.015
20041WAT     H160365   4.089   9.779   0.024
20041WAT     H260366   3.992   9.701  -0.081
20042WAT      O60367   3.870   8.356   4.484
20042WAT     H160368   3.780   8.330   4.450
20042WAT     H260369   3.863   8.384   4.579
20043WAT      O60370   5.533   2.427   8.256
20043WAT     H160371   5.546   2.330   8.235
20043WAT     H260372   5.619   2.477   8.244
20044WAT      O60373   1.495   4.790   4.048
20044WAT     H160374   1.592   4.801   4.027
20044WAT     H260375   1.459   4.710   4.000
20045WAT      O60376   1.859   0.640   1.993
20045WAT     H160377   1.903   0.588   2.066
20045WAT     H260378   1.765   0.663   2.020
20046WAT      O60379   8.111   8.133   4.331
20046WAT     H160380   8.051   8.157   4.254
20046WAT     H260381   8.070   8.165   4.416
20047WAT      O60382   4.633   7.983   8.043
20047WAT     H160383   4.609   8.080   8.048
20047WAT     H260384   4.732   7.974   8.036
20048WAT      O60385   0.701   6.153   1.771
20048WAT     H160386   0.617   6.151   1.718
20048WAT     H260387   0.680   6.183   1.864
20049WAT      O60388   1.329   4.151   2.120
20049WAT     H160389   1.399   4.080   2.126
20049WAT     H260390   1.271   4.148   2.201
20050WAT      O60391   2.065   0.068   5.453
20050WAT     H160392   1.970   0.037   5.447
20050WAT     H260393   2.068   0.167   5.441
20051WAT      O60394   6.979   8.373   8.691
20051WAT     H160395   6.967   8.402   8.596
20051WAT     H260396   6.893   8.335   8.725
20052WAT      O60397   1.264   8.972   2.739
20052WAT     H160398   1.282   8.962   2.641
20052WAT     H260399   1.296   8.890   2.787
20053WAT      O60400   8.755   7.967   9.855
20053WAT     H160401   8.711   8.026   9.922
20053WAT     H260402   8.724   7.873   9.868
20054WAT      O60403   7.237   3.121   1.931
20054WAT     H160404   7.147   3.078   1.940
20054WAT     H260405   7.307   3.050   1.924
20055WAT      O60406   2.126   5.233   8.729
20055WAT     H160407   2.201   5.296   8.750
20055WAT     H260408   2.083   5.259   8.643
20056WAT      O60409   9.219   6.134   3.345
20056WAT     H160410   9.174   6.046   3.362
20056WAT     H260411   9.254   6.170   3.432
20057WAT      O60412   3.353   3.815   6.748
20057WAT     H160413   3.295   3.892   6.775
20057WAT     H260414   3.305   3.729   6.766
20058WAT      O60415   4.135   7.006   2.575
20058WAT     H160416   4.039   7.028   2.558
20058WAT     H260417   4.158   6.919   2.531
20059WAT      O60418   1.125   0.043   3.549
20059WAT     H160419   1.103  -0.048   3.584
20059WAT     H260420   1.159   0.100   3.624
20060WAT      O60421   3.098   0.289   7.788
20060WAT     H160422   3.010   0.321   7.822
20060WAT     H260423   3.085   0.201   7.741
20061WAT      O60424   4.257   8.192   9.745
20061WAT     H160425   4.230   8.095   9.744
20061WAT     H260426   4.175   8.249   9.747
20062WAT      O60427   5.641   0.034   4.941
20062WAT     H160428   5.548   0.025   4.976
20062WAT     H260429   5.700   0.073   5.012
20063WAT      O60430   8.385   9.202   1.804
20063WAT     H160431   8.463   9.163   1.754
20063WAT     H260432   8.408   9.206   1.902
20064WAT      O60433   5.715   1.083   2.897
20064WAT     H160434   5.759   1.031   2.824
20064WAT     H260435   5.785   1.123   2.956
20065WAT      O60436   7.885   8.458   8.492
20065WAT     H160437   7.900   8.365   8.457
20065WAT     H260438   7.965   8.514   8.473
20066WAT      O60439   0.713   0.867   4.320
20066WAT     H160440   0.685   0.806   4.394
20066WAT     H260441   0.667   0.841   4.236
20067WAT      O60442   9.484   0.192   3.356
20067WAT     H160443   9.529   0.108   3.386
20067WAT     H260444   9.385   0.183   3.367
20068WAT      O60445   3.926   9.735   1.821
20068WAT     H160446   3.910   9.795   1.742
20068WAT     H260447   3.975   9.653   1.791
20069WAT      O60448   0.589   0.964   3.007
20069WAT     H160449   0.622   0.919   3.090
20069WAT     H260450   0.664   1.011   2.962
20070WAT      O60451   1.418   8.032   3.042
20070WAT     H160452   1.417   7.975   2.960
20070WAT     H260453   1.360   8.113   3.028
20071WAT      O60454   4.399   1.883   3.616
20071WAT     H160455   4.477   1.825   3.592
20071WAT     H260456   4.400   1.901   3.714
20072WAT      O60457   6.453   0.752   4.362
20072WAT     H160458   6.377   0.799   4.406
20072WAT     H260459   6.433   0.654   4.358
20073WAT      O60460   8.404   4.016   4.741
20073WAT     H160461   8.427   3.981   4.650
20073WAT     H260462   8.485   4.058   4.781
20074WAT      O60463   0.416   4.338   9.452
20074WAT     H160464   0.487   4.404   9.475
20074WAT     H260465   0.421   4.315   9.355
20075WAT      O60466   6.886   3.094   7.537
20075WAT     H160467   6.968   3.041   7.559
20075WAT     H260468   6.907   3.192   7.540
20076WAT      O60469   9.383   8.046   9.449
20076WAT     H160470   9.373   7.971   9.384
20076WAT     H260471   9.292   8.080   9.476
20077WAT      O60472   3.285   8.821   9.739
20077WAT     H160473   3.294   8.858   9.832
20077WAT     H260474   3.255   8.893   9.677
20078WAT      O60475   4.948   3.004   0.384
20078WAT     H160476   4.855   3.035   0.404
20078WAT     H260477   4.945   2.928   0.320
20079WAT      O60478   8.247   7.939   6.178
20079WAT     H160479   8.326   7.933   6.117
20079WAT     H260480   8.187   8.013   6.147
20080WAT      O60481   0.572   1.378   2.693
20080WAT     H160482   0.523   1.465   2.689
20080WAT     H260483   0.508   1.303   2.676
20081WAT      O60484   6.344   0.134   1.168
20081WAT     H160485   6.390   0.083   1.096
20081WAT     H260486   6.246   0.115   1.165
20082WAT      O60487   5.717   9.547   5.330
20082WAT     H160488   5.805   9.580   5.295
20082WAT     H260489   5.644   9.577   5.269
20083WAT      O60490   5.177   8.554   6.898
20083WAT     H160491   5.169   8.482   6.967
20083WAT     H260492   5.263   8.543   6.849
20084WAT      O60493   1.657   0.629   4.604
20084WAT     H160494   1.680   0.549   4.548
20084WAT     H260495   1.568   0.664   4.576
20085WAT      O60496   5.933   0.188   8.727
20085WAT     H160497   5.854   0.127   8.737
20085WAT     H260498   6.015   0.133   8.710
20086WAT      O60499   0.367   6.745   4.513
20086WAT     H160500   0.269   6.756   4.493
20086WAT     H260501   0.401   6.828   4.558
20087WAT      O60502   4.907   7.501   3.166
20087WAT     H160503   4.937   7.592   3.139
20087WAT     H260504   4.915   7.439   3.088
20088WAT      O60505   8.718   8.944   6.656
20088WAT     H160506   8.636   8.961   6.601
20088WAT     H260507   8.745   9.028   6.703
20089WAT      O60508   8.394   0.349   5.417
20089WAT     H160509   8.360   0.257   5.399
20089WAT     H260510   8.420   0.393   5.331
20090WAT      O60511   2.917   0.639   0.695
20090WAT     H160512   2.911   0.623   0.597
20090WAT     H260513   2.833   0.608   0.740
20091WAT      O60514   2.693   2.653   1.678
20091WAT     H160515   2.710   2.751   1.668
20091WAT     H260516   2.629   2.638   1.754
20092WAT      O60517   6.808   7.354   4.770
20092WAT     H160518   6.866   7.277   4.797
20092WAT     H260519   6.840   7.437   4.815
20093WAT      O60520   2.049   2.148   6.107
20093WAT     H160521   1.970   2.200   6.140
20093WAT     H260522   2.094   2.103   6.185
20094WAT      O60523   0.262   2.156   3.386
20094WAT     H160524   0.300   2.076   3.340
20094WAT     H260525   0.310   2.171   3.473
20095WAT      O60526   9.504   0.983   2.224
20095WAT     H160527   9.541   0.986   2.317
20095WAT     H260528   9.432   0.912   2.220
20096WAT      O60529   9.005   7.777   4.390
20096WAT     H160530   8.952   7.768   4.307
20096WAT     H260531   8.944   7.778   4.469
20097WAT      O60532   5.032   4.225   8.015
20097WAT     H160533   5.051   4.208   8.112
20097WAT     H260534   4.950   4.282   8.006
20098WAT      O60535   3.778   4.263   0.643
20098WAT     H160536   3.801   4.259   0.545
20098WAT     H260537   3.692   4.314   0.654
20099WAT      O60538   5.813   0.292   0.688
20099WAT     H160539   5.778   0.204   0.656
20099WAT     H260540   5.872   0.332   0.618
20100WAT      O60541   0.204   0.253   1.964
20100WAT     H160542   0.154   0.339   1.969
20100WAT     H260543   0.201   0.217   1.870
20101WAT      O60544   4.351   3.685   5.478
20101WAT     H160545   4.334   3.594   5.514
20101WAT     H260546   4.293   3.751   5.526
20102WAT      O60547   9.317   3.264   3.248
20102WAT     H160548   9.311   3.194   3.177
20102WAT     H260549   9.413   3.287   3.264
20103WAT      O60550   7.407   3.811   1.626
20103WAT     H160551   7.502   3.833   1.606
20103WAT     H260552   7.362   3.777   1.543
20104WAT      O60553   5.873   5.899   9.077
20104WAT     H160554   5.826   5.973   9.029
20104WAT     H260555   5.923   5.843   9.011
20105WAT      O60556   2.189   3.254   4.942
20105WAT     H160557   2.155   3.243   5.036
20105WAT     H260558   2.136   3.196   4.881
20106WAT      O60559   5.293   4.348   6.745
20106WAT     H160560   5.366   4.377   6.683
20106WAT     H260561   5.313   4.379   6.838
20107WAT      O60562   2.052   4.155   6.384
20107WAT     H160563   2.112   4.147   6.305
20107WAT     H260564   2.059   4.248   6.422
20108WAT      O60565   8.300   5.138   5.904
20108WAT     H160566   8.244   5.167   5.827
20108WAT     H260567   8.388   5.185   5.901
20109WAT      O60568   0.083   8.128   0.566
20109WAT     H160569   0.171   8.083   0.548
20109WAT     H260570   0.052   8.105   0.658
20110WAT      O60571   7.785   4.305   1.859
20110WAT     H160572   7.735   4.281   1.776
20110WAT     H260573   7.864   4.361   1.835
20111WAT      O60574   8.328   7.785   3.426
20111WAT     H160575   8.374   7.698   3.444
20111WAT     H260576   8.397   7.858   3.422
20112WAT      O60577   5.311   2.080   3.265
20112WAT     H160578   5.382   2.107   3.200
20112WAT     H260579   5.326   2.126   3.352
20113WAT      O60580   0.202   6.499   9.832
20113WAT     H160581   0.105   6.521   9.840
20113WAT     H260582   0.213   6.417   9.776
20114WAT      O60583   6.634   7.270   3.864
20114WAT     H160584   6.610   7.355   3.819
20114WAT     H260585   6.710   7.226   3.816
20115WAT      O60586   9.221   4.847   4.097
20115WAT     H160587   9.170   4.877   4.016
20115WAT     H260588   9.315   4.880   4.090
20116WAT      O60589   5.029   6.957   4.510
20116WAT     H160590   5.050   6.908   4.594
20116WAT     H260591   5.099   6.938   4.441
20117WAT      O60592   7.307   3.848   6.916
20117WAT     H160593   7.359   3.886   6.839
20117WAT     H260594   7.245   3.918   6.951
20118WAT      O60595   1.995   1.193   9.833
20118WAT     H160596   2.021   1.124   9.900
20118WAT     H260597   1.902   1.225   9.853
20119WAT      O60598   3.369   8.202   9.255
20119WAT     H160599   3.460   8.237   9.236
20119WAT     H260600   3.307   8.226   9.180
20120WAT      O60601   2.148   3.051   0.338
20120WAT     H160602   2.082   3.126   0.342
20120WAT     H260603   2.185   3.044   0.245
20121WAT      O60604   8.893   9.439   2.260
20121WAT     H160605   8.892   9.539   2.251
20121WAT     H260606   8.966   9.401   2.203
20122WAT      O60607   1.667   6.653   3.474
20122WAT     H160608   1.589   6.597   3.444
20122WAT     H260609   1.752   6.606   3.452
20123WAT      O60610   5.023   4.209   9.557
20123WAT     H160611   4.936   4.200   9.605
20123WAT     H260612   5.043   4.124   9.508
20124WAT      O60613   2.354   1.694   1.842
20124WAT     H160614   2.360   1.714   1.940
20124WAT     H260615   2.259   1.672   1.819
20125WAT      O60616   8.530   6.768   9.522
20125WAT     H160617   8.606   6.814   9.474
20125WAT     H260618   8.552   6.671   9.532
20126WAT      O60619   0.909   4.156   8.624
20126WAT     H160620   0.983   4.202   8.675
20126WAT     H260621   0.891   4.067   8.665
20127WAT      O60622   4.698   8.040   0.096
20127WAT     H160623   4.613   8.034   0.148
20127WAT     H260624   4.737   8.131   0.107
20128WAT      O60625   5.574   7.340   9.872
20128WAT     H160626   5.618   7.251   9.861
20128WAT     H260627   5.641   7.407   9.904
20129WAT      O60628   2.847   9.790   6.997
20129WAT     H160629   2.747   9.788   7.008
20129WAT     H260630   2.873   9.731   6.920
20130WAT      O60631   0.187   0.890   4.637
20130WAT     H160632   0.177   0.953   4.560
20130WAT     H260633   0.156   0.799   4.610
20131WAT      O60634   3.530   6.887   7.319
20131WAT     H160635   3.489   6.803   7.355
20131WAT     H260636   3.509   6.963   7.380
20132WAT      O60637   3.070   7.697   6.859
20132WAT     H160638   3.045   7.612   6.906
20132WAT     H260639   2.989   7.735   6.814
20133WAT      O60640   9.097   4.234   6.376
20133WAT     H160641   9.089   4.223   6.475
20133WAT     H260642   9.022   4.292   6.343
20134WAT      O60643   6.558   5.107   6.634
20134WAT     H160644   6.657   5.112   6.621
20134WAT     H260645   6.534   5.019   6.675
20135WAT      O60646   2.613   6.957   5.745
20135WAT     H160647   2.655   7.028   5.801
20135WAT     H260648   2.589   6.995   5.655
20136WAT      O60649   9.414   8.004   1.863
20136WAT     H160650   9.470   8.086   1.878
20136WAT     H260651   9.461   7.943   1.799
20137WAT      O60652   3.711   7.792   4.668
20137WAT     H160653   3.750   7.790   4.575
20137WAT     H260654   3.732   7.879   4.711
20138WAT      O60655   4.257   7.287   5.172
20138WAT     H160656   4.238   7.207   5.229
20138WAT     H260657   4.187   7.357   5.188
20139WAT      O60658   9.461   3.865   8.897
20139WAT     H160659   9.494   3.785   8.847
20139WAT     H260660   9.439   3.938   8.833
20140WAT      O60661   3.091   9.402   8.255
20140WAT     H160662   3.051   9.491   8.278
20140WAT     H260663   3.079   9.384   8.158
20141WAT      O60664   2.354   1.007   3.073
20141WAT     H160665   2.418   0.972   3.005
20141WAT     H260666   2.273   1.043   3.027
20142WAT      O60667   4.198   9.784   3.460
20142WAT     H160668   4.143   9.857   3.418
20142WAT     H260669   4.279   9.825   3.502
20143WAT      O60670   0.879   9.827   5.472
20143WAT     H160671   0.785   9.828   5.438
20143WAT     H260672   0.922   9.915   5.455
20144WAT      O60673   2.948   4.287   6.444
20144WAT     H160674   3.005   4.262   6.366
20144WAT     H260675   2.869   4.226   6.449
20145WAT      O60676   0.700   8.255   1.829
20145WAT     H160677   0.729   8.221   1.740
20145WAT     H260678   0.774   8.306   1.871
20146WAT      O60679   2.148   3.519   0.305
20146WAT     H160680   2.248   3.527   0.312
20146WAT     H260681   2.110   3.609   0.283
20147WAT      O60682   4.457   2.831   6.003
20147WAT     H160683   4.453   2.810   5.905
20147WAT     H260684   4.549   2.811   6.038
20148WAT      O60685   5.722   8.936   0.288
20148WAT     H160686   5.727   8.977   0.197
20148WAT     H260687   5.790   8.978   0.347
20149WAT      O60688   9.668   9.458   1.966
20149WAT     H160689   9.619   9.485   1.883
20149WAT     H260690   9.688   9.540   2.020
20150WAT      O60691   5.146   1.279   1.495
20150WAT     H160692   5.128   1.321   1.406
20150WAT     H260693   5.245   1.267   1.506
20151WAT      O60694   1.737   8.608   9.021
20151WAT     H160695   1.794   8.527   9.006
20151WAT     H260696   1.793   8.690   9.010
20152WAT      O60697   0.849   2.322   2.886
20152WAT     H160698   0.781   2.390   2.860
20152WAT     H260699   0.803   2.242   2.924
20153WAT      O60700   4.125   3.670   9.229
20153WAT     H160701   4.186   3.591   9.243
20153WAT     H260702   4.162   3.749   9.277
20154WAT      O60703   0.403   5.268   4.701
20154WAT     H160704   0.331   5.228   4.645
20154WAT     H260705   0.407   5.367   4.685
20155WAT      O60706   1.338   5.678   3.844
20155WAT     H160707   1.392   5.674   3.928
20155WAT     H260708   1.364   5.758   3.791
20156WAT      O60709   5.408   1.500   2.866
20156WAT     H160710   5.438   1.409   2.840
20156WAT     H260711   5.471   1.568   2.828
20157WAT      O60712   0.602   6.802   7.254
20157WAT     H160713   0.508   6.779   7.228
20157WAT     H260714   0.663   6.727   7.231
20158WAT      O60715   1.489   7.236   2.589
20158WAT     H160716   1.480   7.268   2.683
20158WAT     H260717   1.564   7.285   2.544
20159WAT      O60718   7.300   9.049   0.138
20159WAT     H160719   7.317   9.140   0.101
20159WAT     H260720   7.305   9.052   0.238
20160WAT      O60721   4.407   9.025   5.083
20160WAT     H160722   4.368   9.101   5.135
20160WAT     H260723   4.494   8.997   5.124
20161WAT      O60724   5.033   4.192   0.649
20161WAT     H160725   5.090   4.274   0.644
20161WAT     H260726   5.081   4.116   0.606
20162WAT      O60727   3.965   4.911   6.793
20162WAT     H160728   3.957   4.911   6.693
20162WAT     H260729   4.000   4.822   6.823
20163WAT      O60730   0.357   3.403   8.834
20163WAT     H160731   0.437   3.342   8.830
20163WAT     H260732   0.386   3.494   8.861
20164WAT      O60733   6.272   5.907   9.782
20164WAT     H160734   6.246   5.860   9.698
20164WAT     H260735   6.335   5.850   9.834
20165WAT      O60736   4.168   5.140   5.665
20165WAT     H160737   4.139   5.235   5.654
20165WAT     H260738   4.203   5.126   5.758
20166WAT      O60739   0.780   6.911   4.547
20166WAT     H160740   0.771   6.978   4.474
20166WAT     H260741   0.766   6.819   4.511
20167WAT      O60742   6.979   9.647   4.587
20167WAT     H160743   7.059   9.620   4.533
20167WAT     H260744   6.986   9.609   4.679
20168WAT      O60745   3.918   3.434   1.366
20168WAT     H160746   3.995   3.439   1.429
20168WAT     H260747   3.851   3.367   1.400
20169WAT      O60748   4.378   4.758   7.314
20169WAT     H160749   4.313   4.819   7.270
20169WAT     H260750   4.468   4.800   7.317
20170WAT      O60751   2.401   6.811   0.666
20170WAT     H160752   2.391   6.809   0.567
20170WAT     H260753   2.360   6.728   0.705
20171WAT      O60754   1.995   3.766   5.160
20171WAT     H160755   1.999   3.692   5.226
20171WAT     H260756   2.065   3.834   5.182
20172WAT      O60757   2.849   2.893   1.893
20172WAT     H160758   2.882   2.975   1.941
20172WAT     H260759   2.926   2.835   1.869
20173WAT      O60760   5.138   0.618   9.304
20173WAT     H160761   5.078   0.563   9.361
20173WAT     H260762   5.127   0.715   9.328
20174WAT      O60763   2.574   0.027   7.025
20174WAT     H160764   2.564   0.060   6.932
20174WAT     H260765   2.491  -0.022   7.053
20175WAT      O60766   7.148   1.424   1.120
20175WAT     H160767   7.178   1.405   1.027
20175WAT     H260768   7.179   1.515   1.148
20176WAT      O60769   2.976   1.738   0.506
20176WAT     H160770   2.921   1.766   0.584
20176WAT     H260771   2.949   1.790   0.425
20177WAT      O60772   5.548   1.142   9.367
20177WAT     H160773   5.497   1.059   9.391
20177WAT     H260774   5.519   1.174   9.277
20178WAT      O60775   7.635   2.426   2.518
20178WAT     H160776   7.541   2.391   2.517
20178WAT     H260777   7.677   2.413   2.428
20179WAT      O60778   1.701   5.512   5.848
20179WAT     H160779   1.707   5.566   5.932
20179WAT     H260780   1.785   5.525   5.794
20180WAT      O60781   4.839   8.711   3.802
20180WAT     H160782   4.761   8.751   3.850
20180WAT     H260783   4.917   8.774   3.808
20181WAT      O60784   3.737   4.642   9.267
20181WAT     H160785   3.737   4.698   9.184
20181WAT     H260786   3.814   4.578   9.264
20182WAT      O60787   3.424   7.398   0.723
20182WAT     H160788   3.346   7.352   0.764
20182WAT     H260789   3.427   7.493   0.754
20183WAT      O60790   0.828   4.316   3.348
20183WAT     H160791   0.882   4.367   3.280
20183WAT     H260792   0.793   4.233   3.306
20184WAT      O60793   0.109   5.737   7.679
20184WAT     H160794   0.049   5.799   7.729
20184WAT     H260795   0.116   5.766   7.583
20185WAT      O60796   6.698   1.586   3.847
20185WAT     H160797   6.792   1.615   3.860
20185WAT     H260798   6.696   1.509   3.783
20186WAT      O60799   5.684   1.679   8.462
20186WAT     H160800   5.635   1.742   8.402
20186WAT     H260801   5.774   1.658   8.424
20187WAT      O60802   7.937   1.621   7.816
20187WAT     H160803   7.909   1.714   7.791
20187WAT     H260804   7.858   1.569   7.849
20188WAT      O60805   2.601   8.031   1.244
20188WAT     H160806   2.623   7.946   1.196
20188WAT     H260807   2.649   8.033   1.332
20189WAT      O60808   1.873   4.209   4.228
20189WAT     H160809   1.791   4.153   4.240
20189WAT     H260810   1.937   4.190   4.302
20190WAT      O60811   6.947   5.150   9.771
20190WAT     H160812   6.998   5.232   9.797
20190WAT     H260813   7.003   5.093   9.712
20191WAT      O60814   9.272   0.692   3.895
20191WAT     H160815   9.362   0.649   3.908
20191WAT     H260816   9.253   0.754   3.971
20192WAT      O60817   8.429   8.132   2.899
20192WAT     H160818   8.423   8.034   2.883
20192WAT     H260819   8.507   8.151   2.959
20193WAT      O60820   0.440   8.728   0.073
20193WAT     H160821   0.450   8.694  -0.020
20193WAT     H260822   0.353   8.695   0.110
20194WAT      O60823   7.278   1.060   1.957
20194WAT     H160824   7.278   1.158   1.933
20194WAT     H260825   7.331   1.010   1.889
20195WAT      O60826   1.209   6.024   4.438
20195WAT     H160827   1.170   5.945   4.486
20195WAT     H260828   1.247   6.088   4.504
20196WAT      O60829   7.182   7.949   7.644
20196WAT     H160830   7.104   7.922   7.588
20196WAT     H260831   7.202   8.046   7.629
20197WAT      O60832   2.604   6.789   1.089
20197WAT     H160833   2.643   6.704   1.123
20197WAT     H260834   2.613   6.793   0.989
20198WAT      O60835   3.860   9.316   7.718
20198WAT     H160836   3.796   9.275   7.782
20198WAT     H260837   3.891   9.404   7.754
20199WAT      O60838   7.934   9.831   6.845
20199WAT     H160839   7.860   9.851   6.781
20199WAT     H260840   8.002   9.772   6.801
20200WAT      O60841   2.392   4.015   0.318
20200WAT     H160842   2.300   4.005   0.282
20200WAT     H260843   2.407   4.110   0.345
20201WAT      O60844   5.031   2.910   3.126
20201WAT     H160845   4.988   2.996   3.151
20201WAT     H260846   5.049   2.857   3.209
20202WAT      O60847   7.993   3.452   8.108
20202WAT     H160848   7.906   3.403   8.103
20202WAT     H260849   8.057   3.412   8.042
20203WAT      O60850   0.307   4.761   8.547
20203WAT     H160851   0.274   4.847   8.585
20203WAT     H260852   0.229   4.710   8.510
20204WAT      O60853   9.876   7.682   8.020
20204WAT     H160854   9.922   7.708   7.935
20204WAT     H260855   9.943   7.680   8.094
20205WAT      O60856   8.029   8.571   3.760
20205WAT     H160857   8.075   8.659   3.770
20205WAT     H260858   8.090   8.498   3.788
20206WAT      O60859   9.214   9.437   3.141
20206WAT     H160860   9.311   9.413   3.137
20206WAT     H260861   9.158   9.355   3.129
20207WAT      O60862   6.641   0.485   2.233
20207WAT     H160863   6.712   0.547   2.269
20207WAT     H260864   6.588   0.448   2.309
20208WAT      O60865   4.334   1.299   9.534
20208WAT     H160866   4.299   1.230   9.598
20208WAT     H260867   4.327   1.264   9.441
20209WAT      O60868   2.713   5.178   9.345
20209WAT     H160869   2.626   5.228   9.345
20209WAT     H260870   2.787   5.240   9.321
20210WAT      O60871   6.120   5.794   3.325
20210WAT     H160872   6.116   5.711   3.269
20210WAT     H260873   6.104   5.770   3.421
20211WAT      O60874   8.659   9.503   5.421
20211WAT     H160875   8.615   9.415   5.405
20211WAT     H260876   8.733   9.516   5.355
20212WAT      O60877   3.776   6.550   6.455
20212WAT     H160878   3.821   6.482   6.512
20212WAT     H260879   3.770   6.517   6.361
20213WAT      O60880   1.220   5.090   3.205
20213WAT     H160881   1.196   4.993   3.207
20213WAT     H260882   1.298   5.107   3.265
20214WAT      O60883   6.979   8.925   4.204
20214WAT     H160884   6.882   8.946   4.216
20214WAT     H260885   7.019   8.988   4.137
20215WAT      O60886   2.091   4.371   5.188
20215WAT     H160887   2.011   4.423   5.216
20215WAT     H260888   2.070   4.318   5.106
20216WAT      O60889   8.796   0.838   0.252
20216WAT     H160890   8.821   0.830   0.156
20216WAT     H260891   8.871   0.880   0.303
20217WAT      O60892   6.671   7.915   9.236
20217WAT     H160893   6.755   7.940   9.284
20217WAT     H260894   6.598   7.899   9.303
20218WAT      O60895   6.700   0.299   5.154
20218WAT     H160896   6.705   0.282   5.253
20218WAT     H260897   6.605   0.290   5.124
20219WAT      O60898   3.476   2.886   6.174
20219WAT     H160899   3.535   2.807   6.157
20219WAT     H260900   3.533   2.965   6.198
20220WAT      O60901   8.123   4.251   2.649
20220WAT     H160902   8.171   4.277   2.565
20220WAT     H260903   8.070   4.168   2.632
20221WAT      O60904   9.037   7.848   1.260
20221WAT     H160905   9.108   7.779   1.261
20221WAT     H260906   9.059   7.919   1.327
20222WAT      O60907   4.706   6.680   3.990
20222WAT     H160908   4.703   6.756   4.055
20222WAT     H260909   4.797   6.639   3.990
20223WAT      O60910   0.326   8.876   7.089
20223WAT     H160911   0.378   8.947   7.135
20223WAT     H260912   0.248   8.916   7.042
20224WAT      O60913   4.280   4.997   8.519
20224WAT     H160914   4.231   4.910   8.512
20224WAT     H260915   4.215   5.072   8.521
20225WAT      O60916   9.608   4.495   3.110
20225WAT     H160917   9.696   4.449   3.114
20225WAT     H260918   9.589   4.525   3.017
20226WAT      O60919   3.075   4.300   5.039
20226WAT     H160920   3.172   4.297   5.062
20226WAT     H260921   3.029   4.368   5.096
20227WAT      O60922   7.135   5.100   3.079
20227WAT     H160923   7.089   5.060   2.999
20227WAT     H260924   7.076   5.171   3.118
20228WAT      O60925   6.501   8.665   6.172
20228WAT     H160926   6.560   8.745   6.176
20228WAT     H260927   6.550   8.585   6.207
20229WAT      O60928   1.954   5.077   5.993
20229WAT     H160929   1.992   5.094   6.084
20229WAT     H260930   1.874   5.135   5.980
20230WAT      O60931   6.930   7.964   6.123
20230WAT     H160932   6.938   7.893   6.053
20230WAT     H260933   6.909   7.922   6.211
20231WAT      O60934   9.742   0.104   9.712
20231WAT     H160935   9.756   0.006   9.722
20231WAT     H260936   9.825   0.146   9.674
20232WAT      O60937   3.609   7.732   1.110
20232WAT     H160938   3.617   7.698   1.204
20232WAT     H260939   3.582   7.657   1.050
20233WAT      O60940   9.349   8.214   3.670
20233WAT     H160941   9.448   8.206   3.658
20233WAT     H260942   9.313   8.128   3.708
20234WAT      O60943   4.537   4.024   2.448
20234WAT     H160944   4.605   4.081   2.493
20234WAT     H260945   4.476   3.984   2.516
20235WAT      O60946   6.376   6.563   0.115
20235WAT     H160947   6.351   6.631   0.184
20235WAT     H260948   6.307   6.562   0.043
20236WAT      O60949   1.221   8.209   0.290
20236WAT     H160950   1.293   8.198   0.222
20236WAT     H260951   1.262   8.227   0.379
20237WAT      O60952   1.871   2.007   0.992
20237WAT     H160953   1.833   1.961   0.911
20237WAT     H260954   1.799   2.060   1.037
20238WAT      O60955   0.861   5.267   8.801
20238WAT     H160956   0.919   5.238   8.877
20238WAT     H260957   0.841   5.365   8.810
20239WAT      O60958   3.743   9.681   2.037
20239WAT     H160959   3.805   9.695   1.960
20239WAT     H260960   3.672   9.752   2.036
20240WAT      O60961   2.397   6.387   5.016
20240WAT     H160962   2.420   6.483   4.998
20240WAT     H260963   2.361   6.345   4.933
20241WAT      O60964   5.928   7.454   7.682
20241WAT     H160965   5.955   7.358   7.687
20241WAT     H260966   6.005   7.512   7.707
20242WAT      O60967   2.733   6.307   7.749
20242WAT     H160968   2.652   6.289   7.694
20242WAT     H260969   2.810   6.255   7.711
20243WAT      O60970   8.608   0.624   7.099
20243WAT     H160971   8.680   0.597   7.162
20243WAT     H260972   8.647   0.645   7.010
20244WAT      O60973   1.229   9.694   3.844
20244WAT     H160974   1.153   9.677   3.780
20244WAT     H260975   1.292   9.616   3.841
20245WAT      O60976   3.527   0.298   1.301
20245WAT     H160977   3.439   0.310   1.348
20245WAT     H260978   3.543   0.375   1.240
20246WAT      O60979   2.166   5.865   2.535
20246WAT     H160980   2.238   5.824   2.479
20246WAT     H260981   2.192   5.861   2.631
20247WAT      O60982   8.755   1.652   3.830
20247WAT     H160983   8.657   1.667   3.836
20247WAT     H260984   8.776   1.557   3.851
20248WAT      O60985   7.298   1.809   8.658
20248WAT     H160986   7.215   1.753   8.667
20248WAT     H260987   7.361   1.763   8.595
20249WAT      O60988   3.589   5.868   4.368
20249WAT     H160989   3.608   5.865   4.270
20249WAT     H260990   3.496   5.902   4.383
20250WAT      O60991   4.750   3.009   1.082
20250WAT     H160992   4.697   2.980   1.003
20250WAT     H260993   4.840   2.965   1.080
20251WAT      O60994   2.856   7.375   9.781
20251WAT     H160995   2.766   7.413   9.761
20251WAT     H260996   2.861   7.280   9.749
20252WAT      O60997   2.937   0.825   5.399
20252WAT     H160998   2.868   0.802   5.330
20252WAT     H260999   2.970   0.741   5.443
20253WAT      O61000   1.119   3.755   0.979
20253WAT     H161001   1.058   3.694   0.929
20253WAT     H261002   1.214   3.732   0.958
20254WAT      O61003   8.804   8.967   1.469
20254WAT     H161004   8.874   8.976   1.398
20254WAT     H261005   8.733   8.904   1.439
20255WAT      O61006   5.571   7.321   4.172
20255WAT     H161007   5.570   7.227   4.136
20255WAT     H261008   5.477   7.352   4.186
20256WAT      O61009   1.321   4.041   1.695
20256WAT     H161010   1.321   3.945   1.670
20256WAT     H261011   1.296   4.097   1.616
20257WAT      O61012   6.379   6.180   0.571
20257WAT     H161013   6.399   6.174   0.473
20257WAT     H261014   6.297   6.126   0.592
20258WAT      O61015   4.023   2.476   4.355
20258WAT     H161016   3.923   2.465   4.358
20258WAT     H261017   4.066   2.408   4.414
20259WAT      O61018   7.394   4.682   5.446
20259WAT     H161019   7.332   4.688   5.524
20259WAT     H261020   7.347   4.638   5.370
20260WAT      O61021   6.981   6.575   3.276
20260WAT     H161022   7.047   6.501   3.270
20260WAT     H261023   7.010   6.651   3.217
20261WAT      O61024   8.131   6.772   9.016
20261WAT     H161025   8.045   6.743   8.973
20261WAT     H261026   8.133   6.872   9.023
20262WAT      O61027   7.730   8.632   0.713
20262WAT     H161028   7.695   8.681   0.633
20262WAT     H261029   7.717   8.534   0.700
20263WAT      O61030   1.777   1.154   6.310
20263WAT     H161031   1.680   1.160   6.286
20263WAT     H261032   1.790   1.082   6.378
20264WAT      O61033   4.882   2.166   0.121
20264WAT     H161034   4.783   2.154   0.129
20264WAT     H261035   4.902   2.225   0.043
20265WAT      O61036   7.763   6.710   3.774
20265WAT     H161037   7.675   6.757   3.772
20265WAT     H261038   7.781   6.675   3.866
20266WAT      O61039   7.537   5.882   6.030
20266WAT     H161040   7.571   5.893   5.937
20266WAT     H261041   7.445   5.919   6.037
20267WAT      O61042   3.238   9.627   6.956
20267WAT     H161043   3.260   9.609   6.860
20267WAT     H261044   3.223   9.725   6.968
20268WAT      O61045   6.400   8.718   0.544
20268WAT     H161046   6.356   8.643   0.592
20268WAT     H261047   6.458   8.682   0.472
20269WAT      O61048   6.596   8.294   3.599
20269WAT     H161049   6.505   8.332   3.583
20269WAT     H261050   6.616   8.224   3.530
20270WAT      O61051   2.052   6.718   9.196
20270WAT     H161052   2.080   6.639   9.140
20270WAT     H261053   2.072   6.700   9.292
20271WAT      O61054   0.251   2.466   4.120
20271WAT     H161055   0.240   2.413   4.204
20271WAT     H261056   0.329   2.529   4.130
20272WAT      O61057   6.351   1.865   4.777
20272WAT     H161058   6.440   1.822   4.791
20272WAT     H261059   6.292   1.845   4.855
20273WAT      O61060   6.326   2.706   8.343
20273WAT     H161061   6.304   2.647   8.421
20273WAT     H261062   6.300   2.661   8.258
20274WAT      O61063   8.234   1.983   4.012
20274WAT     H161064   8.209   2.075   4.044
20274WAT     H261065   8.305   1.991   3.943
20275WAT      O61066   5.374   6.811   8.815
20275WAT     H161067   5.431   6.820   8.733
20275WAT     H261068   5.430   6.775   8.890
20276WAT      O61069   5.460   0.032   6.532
20276WAT     H161070   5.475   0.064   6.438
20276WAT     H261071   5.507  -0.055   6.545
20277WAT      O61072   2.288   1.643   1.132
20277WAT     H161073   2.338   1.592   1.202
20277WAT     H261074   2.193   1.653   1.161
20278WAT      O61075   4.574   7.034   6.827
20278WAT     H161076   4.577   7.000   6.921
20278WAT     H261077   4.634   6.977   6.770
20279WAT      O61078   3.055   5.822   4.228
20279WAT     H161079   2.994   5.800   4.305
20279WAT     H261080   3.057   5.744   4.165
20280WAT      O61081   2.066   8.619   7.155
20280WAT     H161082   2.142   8.554   7.167
20280WAT     H261083   2.097   8.696   7.100
20281WAT      O61084   4.643   2.956   5.587
20281WAT     H161085   4.620   3.008   5.505
20281WAT     H261086   4.653   3.017   5.665
20282WAT      O61087   3.562   6.650   9.430
20282WAT     H161088   3.479   6.673   9.380
20282WAT     H261089   3.606   6.734   9.463
20283WAT      O61090   1.067   9.164   2.727
20283WAT     H161091   0.977   9.126   2.705
20283WAT     H261092   1.134   9.089   2.731
20284WAT      O61093   2.099   1.937   2.954
20284WAT     H161094   2.045   1.958   2.873
20284WAT     H261095   2.123   1.840   2.953
20285WAT      O61096   7.069   2.721   5.257
20285WAT     H161097   6.988   2.720   5.199
20285WAT     H261098   7.103   2.628   5.268
20286WAT      O61099   0.788   0.370   9.203
20286WAT     H161100   0.881   0.367   9.238
20286WAT     H261101   0.773   0.456   9.154
20287WAT      O61102   3.737   9.155   9.434
20287WAT     H161103   3.734   9.137   9.532
20287WAT     H261104   3.832   9.165   9.404
20288WAT      O61105   0.933   0.566   6.303
20288WAT     H161106   0.877   0.539   6.382
20288WAT     H261107   0.874   0.603   6.231
20289WAT      O61108   0.889   4.768   3.795
20289WAT     H161109   0.947   4.834   3.748
20289WAT     H261110   0.943   4.687   3.819
20290WAT      O61111   3.819   9.084   0.310
20290WAT     H161112   3.788   9.045   0.397
20290WAT     H261113   3.803   9.183   0.311
20291WAT      O61114   4.345   0.878   6.388
20291WAT     H161115   4.294   0.955   6.349
20291WAT     H261116   4.416   0.912   6.450
20292WAT      O61117   7.039   5.569   2.187
20292WAT     H161118   7.043   5.471   2.165
20292WAT     H261119   7.080   5.585   2.276
20293WAT      O61120   1.662   8.962   2.044
20293WAT     H161121   1.664   9.040   2.106
20293WAT     H261122   1.579   8.909   2.061
20294WAT      O61123   7.433   7.495   6.362
20294WAT     H161124   7.471   7.558   6.294
20294WAT     H261125   7.384   7.421   6.315
20295WAT      O61126   2.180   6.742   3.786
20295WAT     H161127   2.234   6.663   3.758
20295WAT     H261128   2.102   6.711   3.841
20296WAT      O61129   8.480   3.982   1.894
20296WAT     H161130   8.394   4.013   1.934
20296WAT     H261131   8.520   3.912   1.953
20297WAT      O61132   1.656   0.554   1.373
20297WAT     H161133   1.584   0.497   1.335
20297WAT     H261134   1.637   0.651   1.355
20298WAT      O61135   5.200   8.566   0.111
20298WAT     H161136   5.161   8.517   0.188
20298WAT     H261137   5.227   8.501   0.040
20299WAT      O61138   3.232   9.821   2.527
20299WAT     H161139   3.270   9.763   2.599
20299WAT     H261140   3.143   9.856   2.557
20300WAT      O61141   3.529   2.984   2.637
20300WAT     H161142   3.615   3.028   2.615
20300WAT     H261143   3.513   2.989   2.736
20301WAT      O61144   9.258   7.803   6.983
20301WAT     H161145   9.290   7.896   7.000
20301WAT     H261146   9.162   7.806   6.954
20302WAT      O61147   2.172   7.347   0.936
20302WAT     H161148   2.198   7.347   1.033
20302WAT     H261149   2.243   7.392   0.882
20303WAT      O61150   1.927   0.363   2.833
20303WAT     H161151   2.015   0.319   2.817
20303WAT     H261152   1.858   0.322   2.772
20304WAT      O61153   7.678   0.692   4.141
20304WAT     H161154   7.662   0.759   4.068
20304WAT     H261155   7.729   0.736   4.215
20305WAT      O61156   4.951   7.416   5.754
20305WAT     H161157   5.049   7.433   5.752
20305WAT     H261158   4.912   7.454   5.838
20306WAT      O61159   1.463   4.373   8.462
20306WAT     H161160   1.467   4.404   8.556
20306WAT     H261161   1.370   4.385   8.426
20307WAT      O61162   9.653   2.201   7.959
20307WAT     H161163   9.743   2.184   8.000
20307WAT     H261164   9.625   2.295   7.976
20308WAT      O61165   6.117   8.402   7.508
20308WAT     H161166   6.139   8.331   7.440
20308WAT     H261167   6.069   8.360   7.585
20309WAT      O61168   1.726   3.735   2.477
20309WAT     H161169   1.636   3.771   2.454
20309WAT     H261170   1.795   3.777   2.418
20310WAT      O61171   2.751   3.717   5.525
20310WAT     H161172   2.827   3.681   5.470
20310WAT     H261173   2.765   3.695   5.621
20311WAT      O61174   1.320   8.968   6.232
20311WAT     H161175   1.262   9.042   6.198
20311WAT     H261176   1.381   9.003   6.303
20312WAT      O61177   6.257   1.822   5.803
20312WAT     H161178   6.303   1.807   5.716
20312WAT     H261179   6.277   1.746   5.865
20313WAT      O61180   7.849   2.185   4.242
20313WAT     H161181   7.790   2.104   4.249
20313WAT     H261182   7.936   2.167   4.288
20314WAT      O61183   4.251   5.849   1.444
20314WAT     H161184   4.283   5.933   1.488
20314WAT     H261185   4.151   5.853   1.433
20315WAT      O61186   9.759   6.054   9.707
20315WAT     H161187   9.809   5.993   9.768
20315WAT     H261188   9.821   6.088   9.636
20316WAT      O61189   2.790   0.360   2.277
20316WAT     H161190   2.878   0.342   2.233
20316WAT     H261191   2.776   0.294   2.351
20317WAT      O61192   9.498   8.666   1.643
20317WAT     H161193   9.586   8.694   1.682
20317WAT     H261194   9.446   8.615   1.712
20318WAT      O61195   5.360   5.524   7.897
20318WAT     H161196   5.295   5.497   7.968
20318WAT     H261197   5.441   5.564   7.939
20319WAT      O61198   1.694   3.546   4.152
20319WAT     H161199   1.712   3.592   4.065
20319WAT     H261200   1.704   3.610   4.227
20320WAT      O61201   0.159   3.189   4.898
20320WAT     H161202   0.251   3.229   4.898
20320WAT     H261203   0.119   3.198   4.990
20321WAT      O61204   8.967   0.204   4.907
20321WAT     H161205   8.928   0.115   4.882
20321WAT     H261206   8.982   0.208   5.005
20322WAT      O61207   7.296   9.664   4.950
20322WAT     H161208   7.369   9.599   4.928
20322WAT     H261209   7.325   9.723   5.025
20323WAT      O61210   8.564   1.439   1.714
20323WAT     H161211   8.540   1.525   1.758
20323WAT     H261212   8.580   1.369   1.784
20324WAT      O61213   9.599   0.407   5.177
20324WAT     H161214   9.529   0.478   5.163
20324WAT     H261215   9.583   0.332   5.112
20325WAT      O61216   4.134   5.215   4.767
20325WAT     H161217   4.097   5.287   4.709
20325WAT     H261218   4.233   5.224   4.773
20326WAT      O61219   2.704   8.356   5.810
20326WAT     H161220   2.620   8.313   5.843
20326WAT     H261221   2.742   8.416   5.880
20327WAT      O61222   0.444   3.367   9.416
20327WAT     H161223   0.456   3.336   9.322
20327WAT     H261224   0.474   3.295   9.479
20328WAT      O61225   9.635   8.381   4.942
20328WAT     H161226   9.640   8.415   5.036
20328WAT     H261227   9.698   8.432   4.884
20329WAT      O61228   6.589   9.372   2.152
20329WAT     H161229   6.545   9.347   2.066
20329WAT     H261230   6.578   9.470   2.169
20330WAT      O61231   7.425   5.993   7.894
20330WAT     H161232   7.382   6.004   7.984
20330WAT     H261233   7.467   5.902   7.889
20331WAT      O61234   8.419   1.248   8.132
20331WAT     H161235   8.504   1.246   8.080
20331WAT     H261236   8.412   1.165   8.188
20332WAT      O61237   8.856   4.813   6.770
20332WAT     H161238   8.809   4.725   6.764
20332WAT     H261239   8.854   4.858   6.680
20333WAT      O61240   3.782   5.295   4.679
20333WAT     H161241   3.871   5.327   4.646
20333WAT     H261242   3.765   5.202   4.646
20334WAT      O61243   0.907   3.138   4.296
20334WAT     H161244   0.954   3.224   4.274
20334WAT     H261245   0.870   3.143   4.389
20335WAT      O61246   0.491   3.060   6.191
20335WAT     H161247   0.582   3.021   6.177
20335WAT     H261248   0.499   3.158   6.210
20336WAT      O61249   5.228   1.587   8.696
20336WAT     H161250   5.252   1.523   8.768
20336WAT     H261251   5.284   1.570   8.615
20337WAT      O61252   9.641   9.231   8.319
20337WAT     H161253   9.690   9.317   8.332
20337WAT     H261254   9.543   9.247   8.328
20338WAT      O61255   8.476   9.307   0.288
20338WAT     H161256   8.427   9.266   0.211
20338WAT     H261257   8.511   9.397   0.262
20339WAT      O61258   7.635   8.055   3.273
20339WAT     H161259   7.657   8.032   3.178
20339WAT     H261260   7.702   8.012   3.334
20340WAT      O61261   6.661   0.740   8.549
20340WAT     H161262   6.622   0.826   8.519
20340WAT     H261263   6.669   0.677   8.471
20341WAT      O61264   2.139   4.770   1.952
20341WAT     H161265   2.095   4.859   1.964
20341WAT     H261266   2.071   4.697   1.962
20342WAT      O61267   7.863   2.731   3.647
20342WAT     H161268   7.792   2.704   3.582
20342WAT     H261269   7.828   2.721   3.740
20343WAT      O61270   9.763   2.056   4.544
20343WAT     H161271   9.792   1.982   4.604
20343WAT     H261272   9.679   2.031   4.497
20344WAT      O61273   8.990   8.155   5.180
20344WAT     H161274   9.024   8.179   5.271
20344WAT     H261275   8.971   8.057   5.177
20345WAT      O61276   7.786   8.802   1.317
20345WAT     H161277   7.838   8.735   1.265
20345WAT     H261278   7.836   8.826   1.400
20346WAT      O61279   8.128   0.854   8.240
20346WAT     H161280   8.081   0.927   8.290
20346WAT     H261281   8.072   0.825   8.162
20347WAT      O61282   8.577   0.460   5.798
20347WAT     H161283   8.590   0.411   5.712
20347WAT     H261284   8.510   0.533   5.785
20348WAT      O61285   5.475   1.171   5.221
20348WAT     H161286   5.458   1.112   5.142
20348WAT     H261287   5.485   1.265   5.190
20349WAT      O61288   8.808   8.613   3.910
20349WAT     H161289   8.790   8.557   3.990
20349WAT     H261290   8.907   8.615   3.892
20350WAT      O61291   5.384   6.436   8.641
20350WAT     H161292   5.442   6.386   8.576
20350WAT     H261293   5.352   6.372   8.712
20351WAT      O61294   2.496   3.933   1.156
20351WAT     H161295   2.516   3.946   1.253
20351WAT     H261296   2.524   3.842   1.128
20352WAT      O61297   4.098   9.602   1.261
20352WAT     H161298   4.164   9.669   1.228
20352WAT     H261299   4.133   9.510   1.247
20353WAT      O61300   7.902   8.760   5.515
20353WAT     H161301   7.964   8.826   5.472
20353WAT     H261302   7.908   8.672   5.468
20354WAT      O61303   9.190   2.444   0.994
20354WAT     H161304   9.206   2.405   0.903
20354WAT     H261305   9.103   2.494   0.993
20355WAT      O61306   0.139   7.991   9.694
20355WAT     H161307   0.198   8.041   9.630
20355WAT     H261308   0.050   8.036   9.701
20356WAT      O61309   2.098   2.047   3.538
20356WAT     H161310   2.110   2.047   3.637
20356WAT     H261311   2.043   1.968   3.511
20357WAT      O61312   1.882   2.966   4.265
20357WAT     H161313   1.853   3.060   4.277
20357WAT     H261314   1.961   2.947   4.324
20358WAT      O61315   9.357   6.034   7.945
20358WAT     H161316   9.364   6.134   7.940
20358WAT     H261317   9.298   6.008   8.021
20359WAT      O61318   5.970   3.484   0.053
20359WAT     H161319   5.886   3.453   0.009
20359WAT     H261320   6.041   3.414   0.043
20360WAT      O61321   1.077   1.841   7.043
20360WAT     H161322   1.015   1.906   7.086
20360WAT     H261323   1.059   1.837   6.945
20361WAT      O61324   8.394   0.375   9.451
20361WAT     H161325   8.335   0.433   9.507
20361WAT     H261326   8.471   0.343   9.506
20362WAT      O61327   0.736   9.021   5.049
20362WAT     H161328   0.827   9.024   5.092
20362WAT     H261329   0.735   9.077   4.967
20363WAT      O61330   9.568   3.668   1.591
20363WAT     H161331   9.559   3.768   1.582
20363WAT     H261332   9.663   3.646   1.616
20364WAT      O61333   3.762   7.130   0.317
20364WAT     H161334   3.831   7.096   0.380
20364WAT     H261335   3.699   7.191   0.365
20365WAT      O61336   9.177   2.324   1.264
20365WAT     H161337   9.145   2.404   1.213
20365WAT     H261338   9.098   2.268   1.290
20366WAT      O61339   8.113   5.242   0.805
20366WAT     H161340   8.069   5.274   0.721
20366WAT     H261341   8.043   5.212   0.870
20367WAT      O61342   4.797   3.136   2.855
20367WAT     H161343   4.723   3.069   2.846
20367WAT     H261344   4.780   3.214   2.795
20368WAT      O61345   6.279   0.063   0.877
20368WAT     H161346   6.364   0.115   0.887
20368WAT     H261347   6.209   0.122   0.835
20369WAT      O61348   3.536   7.737   7.754
20369WAT     H161349   3.553   7.808   7.822
20369WAT     H261350   3.572   7.766   7.665
20370WAT      O61351   5.033   7.937   7.551
20370WAT     H161352   5.093   7.942   7.471
20370WAT     H261353   5.028   8.027   7.594
20371WAT      O61354   0.718   2.194   6.816
20371WAT     H161355   0.663   2.273   6.842
20371WAT     H261356   0.734   2.137   6.896
20372WAT      O61357   0.825   7.015   1.350
20372WAT     H161358   0.803   6.917   1.356
20372WAT     H261359   0.814   7.045   1.255
20373WAT      O61360   2.236   2.262   3.962
20373WAT     H161361   2.256   2.232   4.056
20373WAT     H261362   2.139   2.284   3.954
20374WAT      O61363   2.943   2.503   2.281
20374WAT     H161364   2.907   2.418   2.244
20374WAT     H261365   2.933   2.576   2.213
20375WAT      O61366   6.040   9.666   5.547
20375WAT     H161367   6.012   9.652   5.452
20375WAT     H261368   6.136   9.696   5.550
20376WAT      O61369   5.108   5.526   5.448
20376WAT     H161370   5.166   5.505   5.370
20376WAT     H261371   5.081   5.622   5.445
20377WAT      O61372   1.597   6.642   9.602
20377WAT     H161373   1.636   6.719   9.552
20377WAT     H261374   1.498   6.643   9.593
20378WAT      O61375   9.433   7.205   9.361
20378WAT     H161376   9.441   7.271   9.436
20378WAT     H261377   9.524   7.185   9.324
20379WAT      O61378   5.563   1.949   6.572
20379WAT     H161379   5.575   2.027   6.510
20379WAT     H261380   5.568   1.864   6.519
20380WAT      O61381   9.144   2.872   2.790
20380WAT     H161382   9.190   2.958   2.769
20380WAT     H261383   9.080   2.886   2.865
20381WAT      O61384   8.965   0.979   6.595
20381WAT     H161385   8.957   0.938   6.686
20381WAT     H261386   8.921   0.920   6.528
20382WAT      O61387   3.136   0.421   7.139
20382WAT     H161388   3.102   0.346   7.081
20382WAT     H261389   3.213   0.466   7.093
20383WAT      O61390   3.433   4.212   1.193
20383WAT     H161391   3.405   4.117   1.206
20383WAT     H261392   3.363   4.261   1.141
20384WAT      O61393   3.004   8.639   0.337
20384WAT     H161394   3.037   8.593   0.419
20384WAT     H261395   2.905   8.629   0.331
20385WAT      O61396   3.924   4.308   7.312
20385WAT     H161397   3.943   4.210   7.303
20385WAT     H261398   3.851   4.321   7.380
20386WAT      O61399   7.491   4.700   3.855
20386WAT     H161400   7.394   4.689   3.834
20386WAT     H261401   7.542   4.717   3.770
20387WAT      O61402   8.246   0.910   9.309
20387WAT     H161403   8.226   0.920   9.406
20387WAT     H261404   8.181   0.964   9.255
20388WAT      O61405   0.633   3.368   0.927
20388WAT     H161406   0.548   3.370   0.980
20388WAT     H261407   0.676   3.278   0.937
20389WAT      O61408   4.269   8.523   4.456
20389WAT     H161409   4.210   8.533   4.536
20389WAT     H261410   4.214   8.502   4.376
20390WAT      O61411   7.360   1.137   6.201
20390WAT     H161412   7.414   1.219   6.183
20390WAT     H261413   7.409   1.079   6.266
20391WAT      O61414   1.557   1.579   0.173
20391WAT     H161415   1.617   1.589   0.253
20391WAT     H261416   1.567   1.659   0.114
20392WAT      O61417   1.718   5.646   0.033
20392WAT     H161418   1.761   5.601  -0.046
20392WAT     H261419   1.702   5.578   0.105
20393WAT      O61420   8.403   2.216   9.706
20393WAT     H161421   8.395   2.259   9.796
20393WAT     H261422   8.434   2.283   9.639
20394WAT      O61423   6.560   7.529   3.801
20394WAT     H161424   6.582   7.570   3.712
20394WAT     H261425   6.470   7.561   3.831
20395WAT      O61426   2.703   9.127   5.467
20395WAT     H161427   2.648   9.186   5.526
20395WAT     H261428   2.780   9.179   5.431
20396WAT      O61429   6.488   3.092   5.280
20396WAT     H161430   6.475   3.170   5.219
20396WAT     H261431   6.534   3.121   5.363
20397WAT      O61432   2.948   2.580   2.566
20397WAT     H161433   2.937   2.567   2.468
20397WAT     H261434   2.990   2.669   2.584
20398WAT      O61435   1.899   8.367   5.649
20398WAT     H161436   1.891   8.319   5.562
20398WAT     H261437   1.965   8.321   5.707
20399WAT      O61438   8.115   1.890   2.455
20399WAT     H161439   8.160   1.867   2.369
20399WAT     H261440   8.177   1.943   2.513
20400WAT      O61441   3.803   4.449   6.841
20400WAT     H161442   3.840   4.371   6.891
20400WAT     H261443   3.842   4.450   6.749
20401WAT      O61444   4.387   8.679   3.392
20401WAT     H161445   4.399   8.732   3.308
20401WAT     H261446   4.462   8.613   3.400
20402WAT      O61447   2.207   2.470   5.269
20402WAT     H161448   2.179   2.546   5.328
20402WAT     H261449   2.244   2.396   5.325
20403WAT      O61450   5.888   7.008   4.710
20403WAT     H161451   5.911   6.936   4.776
20403WAT     H261452   5.819   7.068   4.749
20404WAT      O61453   7.019   9.451   5.258
20404WAT     H161454   7.023   9.354   5.233
20404WAT     H261455   7.035   9.460   5.356
20405WAT      O61456   3.431   3.076   1.123
20405WAT     H161457   3.500   3.043   1.059
20405WAT     H261458   3.456   3.049   1.216
20406WAT      O61459   4.978   7.487   2.630
20406WAT     H161460   5.046   7.490   2.557
20406WAT     H261461   5.022   7.503   2.718
20407WAT      O61462   1.075   7.584   2.413
20407WAT     H161463   1.096   7.541   2.501
20407WAT     H261464   1.044   7.514   2.348
20408WAT      O61465   0.784   0.667   9.716
20408WAT     H161466   0.714   0.607   9.754
20408WAT     H261467   0.777   0.668   9.616
20409WAT      O61468   6.649   0.265   0.683
20409WAT     H161469   6.745   0.255   0.710
20409WAT     H261470   6.640   0.336   0.614
20410WAT      O61471   7.410   8.483   3.793
20410WAT     H161472   7.372   8.448   3.707
20410WAT     H261473   7.353   8.450   3.869
20411WAT      O61474   0.961   6.762   2.617
20411WAT     H161475   0.881   6.768   2.676
20411WAT     H261476   1.017   6.684   2.644
20412WAT      O61477   3.388   6.281   9.282
20412WAT     H161478   3.468   6.296   9.223
20412WAT     H261479   3.327   6.214   9.239
20413WAT      O61480   2.730   7.786   7.095
20413WAT     H161481   2.710   7.728   7.174
20413WAT     H261482   2.724   7.731   7.012
20414WAT      O61483   9.442   9.548   9.143
20414WAT     H161484   9.342   9.548   9.144
20414WAT     H261485   9.476   9.639   9.120
20415WAT      O61486   8.636   9.110   2.479
20415WAT     H161487   8.552   9.095   2.532
20415WAT     H261488   8.689   9.025   2.477
20416WAT      O61489   1.679   7.812   4.688
20416WAT     H161490   1.661   7.751   4.766
20416WAT     H261491   1.777   7.820   4.674
20417WAT      O61492   5.469   9.729   2.175
20417WAT     H161493   5.498   9.797   2.109
20417WAT     H261494   5.513   9.641   2.154
20418WAT      O61495   9.112   0.524   7.299
20418WAT     H161496   9.152   0.433   7.285
20418WAT     H261497   9.173   0.578   7.356
20419WAT      O61498   5.958   7.463   6.790
20419WAT     H161499   5.923   7.480   6.697
20419WAT     H261500   5.883   7.477   6.855
20420WAT      O61501   9.813   4.096   6.673
20420WAT     H161502   9.846   4.116   6.765
20420WAT     H261503   9.744   4.023   6.679
20421WAT      O61504   6.304   6.063   7.550
20421WAT     H161505   6.208   6.084   7.530
20421WAT     H261506   6.309   6.012   7.636
20422WAT      O61507   1.593   0.564   5.939
20422WAT     H161508   1.535   0.483   5.942
20422WAT     H261509   1.689   0.536   5.947
20423WAT      O61510   5.441   2.953   5.039
20423WAT     H161511   5.505   3.030   5.046
20423WAT     H261512   5.352   2.987   5.008
20424WAT      O61513   2.879   3.836   2.728
20424WAT     H161514   2.846   3.860   2.819
20424WAT     H261515   2.907   3.739   2.727
20425WAT      O61516   4.473   3.058   3.311
20425WAT     H161517   4.401   3.030   3.247
20425WAT     H261518   4.474   2.995   3.389
20426WAT      O61519   8.185   5.423   9.647
20426WAT     H161520   8.225   5.464   9.729
20426WAT     H261521   8.158   5.495   9.583
20427WAT      O61522   3.254   6.409   6.304
20427WAT     H161523   3.272   6.391   6.208
20427WAT     H261524   3.220   6.502   6.316
20428WAT      O61525   4.960   0.628   6.105
20428WAT     H161526   4.942   0.726   6.103
20428WAT     H261527   4.913   0.584   6.029
20429WAT      O61528   4.750   6.648   3.513
20429WAT     H161529   4.706   6.737   3.501
20429WAT     H261530   4.681   6.581   3.540
20430WAT      O61531   0.580   7.288   7.952
20430WAT     H161532   0.577   7.380   7.912
20430WAT     H261533   0.657   7.238   7.913
20431WAT      O61534   4.174   8.430   8.199
20431WAT     H161535   4.184   8.527   8.175
20431WAT     H261536   4.182   8.419   8.298
20432WAT      O61537   8.252   4.916   7.296
20432WAT     H161538   8.195   4.906   7.378
20432WAT     H261539   8.348   4.898   7.320
20433WAT      O61540   4.781   6.915   2.870
20433WAT     H161541   4.830   6.859   2.936
20433WAT     H261542   4.751   6.858   2.793
20434WAT      O61543   3.335   5.983   5.776
20434WAT     H161544   3.242   6.017   5.766
20434WAT     H261545   3.344   5.896   5.727
20435WAT      O61546   3.512   7.819   0.244
20435WAT     H161547   3.496   7.918   0.246
20435WAT     H261548   3.425   7.771   0.254
20436WAT      O61549   4.384   6.735   0.650
20436WAT     H161550   4.393   6.674   0.728
20436WAT     H261551   4.463   6.796   0.645
20437WAT      O61552   1.894   4.833   6.870
20437WAT     H161553   1.942   4.911   6.829
20437WAT     H261554   1.806   4.821   6.824
20438WAT      O61555   4.222   0.489   1.089
20438WAT     H161556   4.155   0.512   1.018
20438WAT     H261557   4.208   0.549   1.168
20439WAT      O61558   8.435   7.850   2.893
20439WAT     H161559   8.369   7.783   2.860
20439WAT     H261560   8.519   7.802   2.921
20440WAT      O61561   5.938   5.318   3.907
20440WAT     H161562   5.845   5.333   3.941
20440WAT     H261563   5.942   5.230   3.859
20441WAT      O61564   4.922   6.782   9.656
20441WAT     H161565   4.893   6.737   9.572
20441WAT     H261566   4.918   6.881   9.644
20442WAT      O61567   5.147   9.062   5.313
20442WAT     H161568   5.102   8.973   5.312
20442WAT     H261569   5.094   9.126   5.257
20443WAT      O61570   3.007   3.000   3.897
20443WAT     H161571   3.106   3.011   3.903
20443WAT     H261572   2.965   3.036   3.981
20444WAT      O61573   7.225   3.762   2.196
20444WAT     H161574   7.159   3.759   2.271
20444WAT     H261575   7.203   3.839   2.135
20445WAT      O61576   8.363   9.436   9.332
20445WAT     H161577   8.404   9.398   9.249
20445WAT     H261578   8.365   9.536   9.327
20446WAT      O61579   2.680   0.740   6.629
20446WAT     H161580   2.618   0.773   6.701
20446WAT     H261581   2.635   0.749   6.540
20447WAT      O61582   2.504   8.526   8.668
20447WAT     H161583   2.538   8.557   8.579
20447WAT     H261584   2.580   8.519   8.732
20448WAT      O61585   3.493   6.283   4.002
20448WAT     H161586   3.592   6.296   4.007
20448WAT     H261587   3.457   6.330   3.922
20449WAT      O61588   7.505   5.156   6.589
20449WAT     H161589   7.434   5.085   6.592
20449WAT     H261590   7.577   5.134   6.655
20450WAT      O61591   8.661   4.866   2.398
20450WAT     H161592   8.572   4.907   2.419
20450WAT     H261593   8.663   4.772   2.434
20451WAT      O61594   7.784   0.016   5.402
20451WAT     H161595   7.824   0.037   5.491
20451WAT     H261596   7.684   0.011   5.410
20452WAT      O61597   8.555   2.569   8.204
20452WAT     H161598   8.595   2.479   8.220
20452WAT     H261599   8.481   2.560   8.137
20453WAT      O61600   5.690   9.022   0.678
20453WAT     H161601   5.704   8.986   0.771
20453WAT     H261602   5.593   9.040   0.663
20454WAT      O61603   5.731   7.769   9.323
20454WAT     H161604   5.720   7.859   9.365
20454WAT     H261605   5.792   7.778   9.243
20455WAT      O61606   1.145   7.198   8.775
20455WAT     H161607   1.200   7.182   8.856
20455WAT     H261608   1.049   7.180   8.796
20456WAT      O61609   2.223   7.403   6.162
20456WAT     H161610   2.193   7.450   6.079
20456WAT     H261611   2.189   7.451   6.242
20457WAT      O61612   6.198   5.062   8.581
20457WAT     H161613   6.194   5.065   8.680
20457WAT     H261614   6.133   5.129   8.543
20458WAT      O61615   3.480   8.945   1.961
20458WAT     H161616   3.554   8.896   1.913
20458WAT     H261617   3.494   9.044   1.951
20459WAT      O61618   3.097   1.103   8.081
20459WAT     H161619   3.006   1.083   8.117
20459WAT     H261620   3.138   1.020   8.044
20460WAT      O61621   9.333   9.270   2.831
20460WAT     H161622   9.369   9.305   2.917
20460WAT     H261623   9.295   9.178   2.845
20461WAT      O61624   0.811   0.177   9.575
20461WAT     H161625   0.719   0.199   9.544
20461WAT     H261626   0.850   0.255   9.624
20462WAT      O61627   8.767   0.572   7.936
20462WAT     H161628   8.712   0.495   7.905
20462WAT     H261629   8.840   0.590   7.870
20463WAT      O61630   7.910   7.043   0.436
20463WAT     H161631   7.924   6.945   0.442
20463WAT     H261632   7.854   7.074   0.513
20464WAT      O61633   2.230   1.349   6.517
20464WAT     H161634   2.239   1.411   6.595
20464WAT     H261635   2.135   1.315   6.512
20465WAT      O61636   9.685   4.979   1.987
20465WAT     H161637   9.748   4.938   2.052
20465WAT     H261638   9.642   4.906   1.932
20466WAT      O61639   8.988   4.982   4.776
20466WAT     H161640   8.919   5.049   4.802
20466WAT     H261641   9.062   5.028   4.726
20467WAT      O61642   1.241   5.393   1.822
20467WAT     H161643   1.171   5.425   1.886
20467WAT     H261644   1.331   5.402   1.865
20468WAT      O61645   3.782   7.049   3.005
20468WAT     H161646   3.746   6.978   2.944
20468WAT     H261647   3.745   7.035   3.097
20469WAT      O61648   1.094   2.626   0.395
20469WAT     H161649   1.044   2.662   0.474
20469WAT     H261650   1.030   2.612   0.319
20470WAT      O61651   9.194   6.882   4.710
20470WAT     H161652   9.229   6.847   4.624
20470WAT     H261653   9.246   6.962   4.738
20471WAT      O61654   1.664   3.208   5.208
20471WAT     H161655   1.634   3.250   5.122
20471WAT     H261656   1.704   3.278   5.267
20472WAT      O61657   4.461   2.328   4.741
20472WAT     H161658   4.389   2.259   4.729
20472WAT     H261659   4.419   2.419   4.747
20473WAT      O61660   9.190   1.083   0.542
20473WAT     H161661   9.160   1.068   0.636
20473WAT     H261662   9.275   1.032   0.525
20474WAT      O61663   6.853   6.848   2.740
20474WAT     H161664   6.924   6.840   2.669
20474WAT     H261665   6.863   6.772   2.805
20475WAT      O61666   4.925   9.310   7.714
20475WAT     H161667   4.924   9.400   7.671
20475WAT     H261668   4.999   9.256   7.675
20476WAT      O61669   5.645   3.878   2.389
20476WAT     H161670   5.729   3.925   2.364
20476WAT     H261671   5.656   3.834   2.478
20477WAT      O61672   0.445   8.221   8.158
20477WAT     H161673   0.518   8.173   8.110
20477WAT     H261674   0.484   8.279   8.230
20478WAT      O61675   5.853   5.547   7.370
20478WAT     H161676   5.827   5.451   7.367
20478WAT     H261677   5.912   5.563   7.449
20479WAT      O61678   9.826   3.893   3.820
20479WAT     H161679   9.868   3.901   3.730
20479WAT     H261680   9.738   3.846   3.812
20480WAT      O61681   5.383   7.300   5.226
20480WAT     H161682   5.449   7.227   5.244
20480WAT     H261683   5.373   7.358   5.307
20481WAT      O61684   0.691   1.442   8.094
20481WAT     H161685   0.707   1.460   8.191
20481WAT     H261686   0.760   1.379   8.060
20482WAT      O61687   8.779   7.811   0.878
20482WAT     H161688   8.873   7.807   0.843
20482WAT     H261689   8.745   7.718   0.893
20483WAT      O61690   9.119   0.842   2.037
20483WAT     H161691   9.077   0.840   2.127
20483WAT     H261692   9.187   0.770   2.030
20484WAT      O61693   5.509   0.213   7.705
20484WAT     H161694   5.577   0.221   7.778
20484WAT     H261695   5.515   0.122   7.664
20485WAT      O61696   2.501   6.272   7.576
20485WAT     H161697   2.467   6.366   7.575
20485WAT     H261698   2.523   6.243   7.483
20486WAT      O61699   4.196   6.389   2.139
20486WAT     H161700   4.121   6.454   2.133
20486WAT     H261701   4.281   6.437   2.162
20487WAT      O61702   7.198   2.483   7.561
20487WAT     H161703   7.224   2.525   7.648
20487WAT     H261704   7.154   2.395   7.579
20488WAT      O61705   4.871   9.455   3.134
20488WAT     H161706   4.901   9.538   3.086
20488WAT     H261707   4.928   9.442   3.216
20489WAT      O61708   1.393   0.293   4.489
20489WAT     H161709   1.406   0.199   4.456
20489WAT     H261710   1.415   0.296   4.587
20490WAT      O61711   0.466   7.602   1.475
20490WAT     H161712   0.500   7.690   1.440
20490WAT     H261713   0.441   7.613   1.572
20491WAT      O61714   6.084   6.961   3.749
20491WAT     H161715   6.003   6.928   3.700
20491WAT     H261716   6.146   7.005   3.683
20492WAT      O61717   5.281   1.092   9.600
20492WAT     H161718   5.310   1.039   9.520
20492WAT     H261719   5.279   1.189   9.577
20493WAT      O61720   2.229   9.645   0.831
20493WAT     H161721   2.218   9.546   0.843
20493WAT     H261722   2.245   9.666   0.735
20494WAT      O61723   6.982   4.478   6.362
20494WAT     H161724   7.057   4.538   6.389
20494WAT     H261725   7.019   4.397   6.315
20495WAT      O61726   8.791   4.527   0.881
20495WAT     H161727   8.849   4.478   0.947
20495WAT     H261728   8.719   4.575   0.930
20496WAT      O61729   6.999   0.812   6.481
20496WAT     H161730   7.062   0.873   6.434
20496WAT     H261731   6.971   0.853   6.568
20497WAT      O61732   1.089   7.875   7.923
20497WAT     H161733   1.130   7.872   8.013
20497WAT     H261734   1.117   7.959   7.876
20498WAT      O61735   7.767   8.197   3.884
20498WAT     H161736   7.726   8.288   3.884
20498WAT     H261737   7.820   8.185   3.800
20499WAT      O61738   7.173   4.888   8.458
20499WAT     H161739   7.160   4.921   8.364
20499WAT     H261740   7.146   4.792   8.463
20500WAT      O61741   4.702   8.485   8.260
20500WAT     H161742   4.614   8.495   8.307
20500WAT     H261743   4.687   8.476   8.162
20501WAT      O61744   6.627   2.767   6.656
20501WAT     H161745   6.549   2.813   6.699
20501WAT     H261746   6.635   2.674   6.691
20502WAT      O61747   3.027   1.547   0.232
20502WAT     H161748   3.000   1.524   0.139
20502WAT     H261749   2.973   1.491   0.296
20503WAT      O61750   7.474   4.378   1.702
20503WAT     H161751   7.426   4.295   1.672
20503WAT     H261752   7.407   4.450   1.720
20504WAT      O61753   3.831   5.100   5.219
20504WAT     H161754   3.823   5.193   5.253
20504WAT     H261755   3.920   5.062   5.246
20505WAT      O61756   0.613   2.354   2.521
20505WAT     H161757   0.628   2.409   2.440
20505WAT     H261758   0.515   2.353   2.543
20506WAT      O61759   6.742   7.965   0.965
20506WAT     H161760   6.664   8.011   1.006
20506WAT     H261761   6.754   7.875   1.008
20507WAT      O61762   8.872   5.963   5.551
20507WAT     H161763   8.914   6.011   5.628
20507WAT     H261764   8.810   6.024   5.503
20508WAT      O61765   7.023   3.954   6.498
20508WAT     H161766   7.076   3.922   6.419
20508WAT     H261767   7.081   4.008   6.558
20509WAT      O61768   6.065   1.906   4.353
20509WAT     H161769   6.002   1.984   4.349
20509WAT     H261770   6.146   1.926   4.298
20510WAT      O61771   6.499   1.238   4.916
20510WAT     H161772   6.422   1.227   4.854
20510WAT     H261773   6.488   1.323   4.967
20511WAT      O61774   2.041   7.145   9.812
20511WAT     H161775   1.943   7.161   9.824
20511WAT     H261776   2.059   7.116   9.718
20512WAT      O61777   0.855   9.600   3.836
20512WAT     H161778   0.908   9.515   3.843
20512WAT     H261779   0.783   9.601   3.905
20513WAT      O61780   1.918   5.537   2.754
20513WAT     H161781   2.009   5.564   2.722
20513WAT     H261782   1.872   5.486   2.681
20514WAT      O61783   8.569   6.801   0.322
20514WAT     H161784   8.585   6.750   0.407
20514WAT     H261785   8.483   6.771   0.281
20515WAT      O61786   4.163   9.506   7.880
20515WAT     H161787   4.138   9.426   7.935
20515WAT     H261788   4.242   9.484   7.823
20516WAT      O61789   2.353   4.377   1.746
20516WAT     H161790   2.354   4.471   1.779
20516WAT     H261791   2.333   4.315   1.822
20517WAT      O61792   5.120   6.364   6.514
20517WAT     H161793   5.211   6.394   6.543
20517WAT     H261794   5.071   6.326   6.593
20518WAT      O61795   5.783   2.125   4.212
20518WAT     H161796   5.765   2.222   4.226
20518WAT     H261797   5.825   2.112   4.122
20519WAT      O61798   0.567   4.724   6.900
20519WAT     H161799   0.635   4.763   6.838
20519WAT     H261800   0.538   4.635   6.866
20520WAT      O61801   2.228   7.051   2.076
20520WAT     H161802   2.238   7.123   2.007
20520WAT     H261803   2.191   6.969   2.033
20521WAT      O61804   5.320   5.951   1.698
20521WAT     H161805   5.236   5.951   1.644
20521WAT     H261806   5.371   6.035   1.680
20522WAT      O61807   3.273   4.627   4.215
20522WAT     H161808   3.335   4.573   4.159
20522WAT     H261809   3.178   4.604   4.191
20523WAT      O61810   0.088   0.566   5.133
20523WAT     H161811   0.036   0.647   5.106
20523WAT     H261812   0.123   0.578   5.226
20524WAT      O61813   2.094   3.248   4.540
20524WAT     H161814   2.094   3.235   4.639
20524WAT     H261815   2.011   3.209   4.501
20525WAT      O61816   1.245   5.667   0.794
20525WAT     H161817   1.167   5.624   0.748
20525WAT     H261818   1.269   5.613   0.875
20526WAT      O61819   0.105   3.689   0.636
20526WAT     H161820   0.013   3.690   0.675
20526WAT     H261821   0.102   3.724   0.542
20527WAT      O61822   8.046   1.195   7.194
20527WAT     H161823   8.060   1.129   7.120
20527WAT     H261824   8.097   1.165   7.275
20528WAT      O61825   5.151   2.454   2.601
20528WAT     H161826   5.066   2.505   2.602
20528WAT     H261827   5.204   2.477   2.520
20529WAT      O61828   9.641   4.962   3.870
20529WAT     H161829   9.618   4.918   3.783
20529WAT     H261830   9.740   4.968   3.879
20530WAT      O61831   1.173   5.355   3.298
20530WAT     H161832   1.199   5.272   3.247
20530WAT     H261833   1.252   5.416   3.305
20531WAT      O61834   8.508   0.706   5.541
20531WAT     H161835   8.562   0.773   5.592
20531WAT     H261836   8.428   0.681   5.595
20532WAT      O61837   9.616   1.061   4.455
20532WAT     H161838   9.656   0.993   4.393
20532WAT     H261839   9.690   1.114   4.497
20533WAT      O61840   3.316   3.582   3.604
20533WAT     H161841   3.235   3.632   3.573
20533WAT     H261842   3.315   3.490   3.564
20534WAT      O61843   6.330   3.788   7.100
20534WAT     H161844   6.416   3.824   7.134
20534WAT     H261845   6.326   3.797   7.000
20535WAT      O61846   1.771   5.758   5.518
20535WAT     H161847   1.820   5.688   5.569
20535WAT     H261848   1.678   5.767   5.553
20536WAT      O61849   3.157   3.762   7.032
20536WAT     H161850   3.254   3.739   7.035
20536WAT     H261851   3.130   3.784   6.939
20537WAT      O61852   6.307   4.122   2.592
20537WAT     H161853   6.239   4.123   2.666
20537WAT     H261854   6.371   4.047   2.606
20538WAT      O61855   6.291   9.178   7.290
20538WAT     H161856   6.372   9.232   7.271
20538WAT     H261857   6.233   9.173   7.208
20539WAT      O61858   8.193   6.014   8.821
20539WAT     H161859   8.203   6.066   8.905
20539WAT     H261860   8.121   6.056   8.764
20540WAT      O61861   3.576   4.875   2.704
20540WAT     H161862   3.631   4.916   2.631
20540WAT     H261863   3.637   4.840   2.775
20541WAT      O61864   4.320   2.238   4.411
20541WAT     H161865   4.396   2.177   4.433
20541WAT     H261866   4.242   2.183   4.379
20542WAT      O61867   6.108   9.177   4.014
20542WAT     H161868   6.184   9.132   4.061
20542WAT     H261869   6.023   9.161   4.065
20543WAT      O61870   2.910   6.246   9.642
20543WAT     H161871   2.986   6.308   9.623
20543WAT     H261872   2.931   6.155   9.608
20544WAT      O61873   2.967   8.593   7.694
20544WAT     H161874   2.942   8.607   7.598
20544WAT     H261875   3.050   8.538   7.700
20545WAT      O61876   4.831   5.077   1.945
20545WAT     H161877   4.889   5.027   1.880
20545WAT     H261878   4.841   5.175   1.931
20546WAT      O61879   8.280   8.716   2.238
20546WAT     H161880   8.197   8.667   2.263
20546WAT     H261881   8.319   8.675   2.156
20547WAT      O61882   8.880   1.886   6.580
20547WAT     H161883   8.860   1.885   6.482
20547WAT     H261884   8.899   1.793   6.611
20548WAT      O61885   6.570   4.948   4.616
20548WAT     H161886   6.491   4.964   4.557
20548WAT     H261887   6.587   4.850   4.622
20549WAT      O61888   7.338   8.696   4.199
20549WAT     H161889   7.281   8.708   4.118
20549WAT     H261890   7.419   8.642   4.175
20550WAT      O61891   9.130   3.714   4.298
20550WAT     H161892   9.084   3.635   4.340
20550WAT     H261893   9.177   3.766   4.369
20551WAT      O61894   4.801   8.868   8.823
20551WAT     H161895   4.890   8.825   8.838
20551WAT     H261896   4.802   8.961   8.861
20552WAT      O61897   5.565   8.603   6.732
20552WAT     H161898   5.510   8.546   6.792
20552WAT     H261899   5.647   8.634   6.781
20553WAT      O61900   8.003   7.802   1.373
20553WAT     H161901   8.001   7.881   1.434
20553WAT     H261902   8.014   7.719   1.427
20554WAT      O61903   5.034   5.197   1.769
20554WAT     H161904   5.008   5.274   1.711
20554WAT     H261905   5.050   5.117   1.712
20555WAT      O61906   9.791   0.497   5.728
20555WAT     H161907   9.881   0.501   5.769
20555WAT     H261908   9.798   0.458   5.635
20556WAT      O61909   9.184   8.080   8.476
20556WAT     H161910   9.225   8.143   8.410
20556WAT     H261911   9.256   8.040   8.533
20557WAT      O61912   7.039   9.201   1.504
20557WAT     H161913   7.105   9.131   1.477
20557WAT     H261914   7.054   9.284   1.450
20558WAT      O61915   1.129   4.559   0.462
20558WAT     H161916   1.083   4.470   0.459
20558WAT     H261917   1.063   4.632   0.445
20559WAT      O61918   2.355   8.281   3.538
20559WAT     H161919   2.283   8.220   3.571
20559WAT     H261920   2.406   8.235   3.465
20560WAT      O61921   1.360   9.363   6.352
20560WAT     H161922   1.388   9.445   6.402
20560WAT     H261923   1.304   9.390   6.274
20561WAT      O61924   4.484   5.184   8.454
20561WAT     H161925   4.446   5.124   8.384
20561WAT     H261926   4.544   5.132   8.515
20562WAT      O61927   5.219   6.705   6.732
20562WAT     H161928   5.304   6.744   6.769
20562WAT     H261929   5.239   6.618   6.686
20563WAT      O61930   1.096   5.933   8.201
20563WAT     H161931   1.082   6.003   8.271
20563WAT     H261932   1.119   5.978   8.114
20564WAT      O61933   7.766   7.392   7.280
20564WAT     H161934   7.712   7.311   7.303
20564WAT     H261935   7.743   7.466   7.344
20565WAT      O61936   2.460   1.902   3.906
20565WAT     H161937   2.472   1.950   3.993
20565WAT     H261938   2.471   1.804   3.921
20566WAT      O61939   8.123   1.508   8.477
20566WAT     H161940   8.177   1.563   8.414
20566WAT     H261941   8.028   1.505   8.447
20567WAT      O61942   8.268   9.151   6.753
20567WAT     H161943   8.320   9.066   6.766
20567WAT     H261944   8.329   9.223   6.722
20568WAT      O61945   7.569   8.271   7.028
20568WAT     H161946   7.555   8.286   6.930
20568WAT     H261947   7.550   8.355   7.078
20569WAT      O61948   1.553   3.427   7.726
20569WAT     H161949   1.458   3.421   7.693
20569WAT     H261950   1.593   3.335   7.728
20570WAT      O61951   6.790   9.768   2.545
20570WAT     H161952   6.726   9.840   2.573
20570WAT     H261953   6.805   9.706   2.622
20571WAT      O61954   9.313   5.230   7.651
20571WAT     H161955   9.359   5.315   7.626
20571WAT     H261956   9.214   5.244   7.654
20572WAT      O61957   8.051   1.393   0.755
20572WAT     H161958   8.071   1.295   0.745
20572WAT     H261959   8.092   1.426   0.841
20573WAT      O61960   3.490   4.237   4.890
20573WAT     H161961   3.514   4.157   4.835
20573WAT     H261962   3.504   4.320   4.837
20574WAT      O61963   9.555   9.567   8.838
20574WAT     H161964   9.547   9.649   8.894
20574WAT     H261965   9.625   9.507   8.877
20575WAT      O61966   5.620   8.697   0.311
20575WAT     H161967   5.661   8.788   0.309
20575WAT     H261968   5.548   8.691   0.242
20576WAT      O61969   9.786   0.842   0.448
20576WAT     H161970   9.784   0.888   0.359
20576WAT     H261971   9.833   0.900   0.514
20577WAT      O61972   9.139   2.275   4.865
20577WAT     H161973   9.085   2.327   4.931
20577WAT     H261974   9.186   2.337   4.803
20578WAT      O61975   6.928   8.791   7.204
20578WAT     H161976   6.865   8.820   7.131
20578WAT     H261977   7.017   8.769   7.164
20579WAT      O61978   7.053   0.162   3.225
20579WAT     H161979   7.139   0.124   3.191
20579WAT     H261980   7.020   0.232   3.161
20580WAT      O61981   5.880   5.924   2.513
20580WAT     H161982   5.862   5.857   2.442
20580WAT     H261983   5.794   5.948   2.559
20581WAT      O61984   0.652   9.613   2.853
20581WAT     H161985   0.615   9.650   2.767
20581WAT     H261986   0.658   9.687   2.921
20582WAT      O61987   6.295   5.045   3.807
20582WAT     H161988   6.286   5.061   3.709
20582WAT     H261989   6.210   5.005   3.842
20583WAT      O61990   9.565   1.773   4.681
20583WAT     H161991   9.475   1.798   4.718
20583WAT     H261992   9.557   1.691   4.624
20584WAT      O61993   9.501   8.321   7.677
20584WAT     H161994   9.495   8.394   7.608
20584WAT     H261995   9.597   8.302   7.696
20585WAT      O61996   8.371   8.503   8.534
20585WAT     H161997   8.359   8.561   8.615
20585WAT     H261998   8.448   8.442   8.548
20586WAT      O61999   4.619   3.681   7.887
20586WAT     H162000   4.630   3.603   7.825
20586WAT     H262001   4.578   3.649   7.973
20587WAT      O62002   9.550   5.595   4.441
20587WAT     H162003   9.612   5.654   4.493
20587WAT     H262004   9.598   5.512   4.414
20588WAT      O62005   5.381   1.129   2.134
20588WAT     H162006   5.431   1.188   2.198
20588WAT     H262007   5.405   1.034   2.151
20589WAT      O62008   7.285   5.938   4.649
20589WAT     H162009   7.190   5.956   4.627
20589WAT     H262010   7.291   5.858   4.709
20590WAT      O62011   8.736   6.407   8.371
20590WAT     H162012   8.724   6.381   8.467
20590WAT     H262013   8.674   6.353   8.314
20591WAT      O62014   7.517   0.682   1.969
20591WAT     H162015   7.458   0.723   2.039
20591WAT     H262016   7.461   0.632   1.903
20592WAT      O62017   1.370   6.058   7.630
20592WAT     H162018   1.436   6.093   7.564
20592WAT     H262019   1.382   6.104   7.717
20593WAT      O62020   6.657   9.069   6.626
20593WAT     H162021   6.701   8.985   6.655
20593WAT     H262022   6.678   9.086   6.530
20594WAT      O62023   5.061   5.154   4.774
20594WAT     H162024   5.033   5.234   4.826
20594WAT     H262025   4.997   5.138   4.699
20595WAT      O62026   9.693   2.988   7.366
20595WAT     H162027   9.718   2.962   7.459
20595WAT     H262028   9.625   3.062   7.369
20596WAT      O62029   0.368   3.827   3.618
20596WAT     H162030   0.289   3.767   3.606
20596WAT     H262031   0.346   3.899   3.684
20597WAT      O62032   2.418   2.467   4.790
20597WAT     H162033   2.338   2.467   4.849
20597WAT     H262034   2.423   2.555   4.741
20598WAT      O62035   1.688   3.645   7.613
20598WAT     H162036   1.649   3.566   7.661
20598WAT     H262037   1.666   3.639   7.516
20599WAT      O62038   3.790   9.683   8.949
20599WAT     H162039   3.839   9.601   8.917
20599WAT     H262040   3.853   9.741   9.001
20600WAT      O62041   2.323   2.108   4.957
20600WAT     H162042   2.300   2.062   5.043
20600WAT     H262043   2.358   2.199   4.977
20601WAT      O62044   0.745   6.282   5.312
20601WAT     H162045   0.763   6.308   5.407
20601WAT     H262046   0.810   6.329   5.252
20602WAT      O62047   7.274   1.762   0.572
20602WAT     H162048   7.294   1.691   0.641
20602WAT     H262049   7.265   1.720   0.482
20603WAT      O62050   0.536   1.794   2.769
20603WAT     H162051   0.487   1.715   2.733
20603WAT     H262052   0.624   1.764   2.807
20604WAT      O62053   8.296   3.653   8.591
20604WAT     H162054   8.352   3.601   8.654
20604WAT     H262055   8.334   3.646   8.499
20605WAT      O62056   6.012   2.811   1.586
20605WAT     H162057   5.925   2.806   1.537
20605WAT     H262058   6.087   2.812   1.520
20606WAT      O62059   5.487   3.307   8.398
20606WAT     H162060   5.452   3.311   8.492
20606WAT     H262061   5.467   3.217   8.359
20607WAT      O62062   1.639   5.575   6.794
20607WAT     H162063   1.603   5.568   6.700
20607WAT     H262064   1.602   5.501   6.849
20608WAT      O62065   3.146   2.779   9.076
20608WAT     H162066   3.105   2.868   9.055
20608WAT     H262067   3.186   2.782   9.168
20609WAT      O62068   5.064   2.820   8.685
20609WAT     H162069   5.071   2.889   8.756
20609WAT     H262070   5.059   2.864   8.595
20610WAT      O62071   9.854   2.595   7.819
20610WAT     H162072   9.867   2.508   7.867
20610WAT     H262073   9.898   2.669   7.871
20611WAT      O62074   8.009   4.049   0.620
20611WAT     H162075   7.981   4.139   0.588
20611WAT     H262076   7.935   4.007   0.672
20612WAT      O62077   6.609   7.833   2.913
20612WAT     H162078   6.528   7.801   2.962
20612WAT     H262079   6.613   7.933   2.916
20613WAT      O62080   7.390   4.312   2.741
20613WAT     H162081   7.385   4.212   2.737
20613WAT     H262082   7.486   4.341   2.730
20614WAT      O62083   7.661   2.975   3.202
20614WAT     H162084   7.701   2.885   3.219
20614WAT     H262085   7.663   3.028   3.286
20615WAT      O62086   4.426   2.677   5.047
20615WAT     H162087   4.379   2.595   5.081
20615WAT     H262088   4.375   2.715   4.970
20616WAT      O62089   0.193   6.253   7.896
20616WAT     H162090   0.141   6.189   7.952
20616WAT     H262091   0.244   6.204   7.825
20617WAT      O62092   8.866   9.807   1.202
20617WAT     H162093   8.867   9.892   1.149
20617WAT     H262094   8.782   9.803   1.257
20618WAT      O62095   4.329   1.267   1.634
20618WAT     H162096   4.377   1.200   1.690
20618WAT     H262097   4.286   1.335   1.693
20619WAT      O62098   3.530   1.230   0.448
20619WAT     H162099   3.621   1.266   0.430
20619WAT     H262100   3.502   1.172   0.372
20620WAT      O62101   3.981   6.493   7.060
20620WAT     H162102   4.065   6.438   7.055
20620WAT     H262103   3.991   6.562   7.132
20621WAT      O62104   2.654   3.493   1.092
20621WAT     H162105   2.604   3.579   1.081
20621WAT     H262106   2.605   3.435   1.158
20622WAT      O62107   6.557   3.145   0.320
20622WAT     H162108   6.613   3.133   0.403
20622WAT     H262109   6.600   3.095   0.244
20623WAT      O62110   6.328   9.529   3.022
20623WAT     H162111   6.392   9.479   3.080
20623WAT     H262112   6.314   9.621   3.058
20624WAT      O62113   4.300   1.071   2.955
20624WAT     H162114   4.391   1.078   2.916
20624WAT     H262115   4.232   1.100   2.888
20625WAT      O62116   6.952   4.990   0.164
20625WAT     H162117   6.971   5.038   0.078
20625WAT     H262118   6.884   5.041   0.216
20626WAT      O62119   5.478   7.707   4.437
20626WAT     H162120   5.414   7.650   4.386
20626WAT     H262121   5.568   7.702   4.393
20627WAT      O62122   2.786   6.830   2.147
20627WAT     H162123   2.704   6.772   2.147
20627WAT     H262124   2.761   6.922   2.175
20628WAT      O62125   3.648   7.598   1.336
20628WAT     H162126   3.622   7.633   1.426
20628WAT     H262127   3.624   7.501   1.331
20629WAT      O62128   9.522   9.205   2.494
20629WAT     H162129   9.481   9.250   2.415
20629WAT     H262130   9.457   9.139   2.532
20630WAT      O62131   2.015   5.583   3.532
20630WAT     H162132   2.007   5.536   3.620
20630WAT     H262133   2.068   5.667   3.545
20631WAT      O62134   9.469   1.435   5.245
20631WAT     H162135   9.401   1.362   5.255
20631WAT     H262136   9.561   1.395   5.245
20632WAT      O62137   7.919   1.683   8.222
20632WAT     H162138   7.918   1.629   8.306
20632WAT     H262139   7.825   1.698   8.191
20633WAT      O62140   9.649   7.419   4.954
20633WAT     H162141   9.600   7.504   4.937
20633WAT     H262142   9.583   7.345   4.971
20634WAT      O62143   8.606   6.400   3.650
20634WAT     H162144   8.580   6.369   3.741
20634WAT     H262145   8.702   6.426   3.649
20635WAT      O62146   3.323   3.239   8.215
20635WAT     H162147   3.391   3.167   8.202
20635WAT     H262148   3.257   3.237   8.140
20636WAT      O62149   3.937   1.511   6.933
20636WAT     H162150   3.977   1.438   6.877
20636WAT     H262151   3.892   1.578   6.873
20637WAT      O62152   5.416   7.140   8.541
20637WAT     H162153   5.384   7.165   8.449
20637WAT     H262154   5.512   7.112   8.536
20638WAT      O62155   7.960   5.344   6.081
20638WAT     H162156   7.891   5.304   6.141
20638WAT     H262157   7.925   5.350   5.988
20639WAT      O62158   2.135   5.824   8.536
20639WAT     H162159   2.167   5.861   8.449
20639WAT     H262160   2.141   5.895   8.606
20640WAT      O62161   4.928   3.515   1.376
20640WAT     H162162   4.931   3.605   1.333
20640WAT     H262163   4.882   3.450   1.316
20641WAT      O62164   0.698   1.432   8.350
20641WAT     H162165   0.640   1.470   8.423
20641WAT     H262166   0.727   1.340   8.375
20642WAT      O62167   3.313   0.927   2.343
20642WAT     H162168   3.364   0.986   2.281
20642WAT     H262169   3.261   0.984   2.408
20643WAT      O62170   4.532   7.733   3.021
20643WAT     H162171   4.515   7.831   3.014
20643WAT     H262172   4.518   7.703   3.115
20644WAT      O62173   4.791   2.658   6.699
20644WAT     H162174   4.779   2.611   6.786
20644WAT     H262175   4.841   2.599   6.636
20645WAT      O62176   7.414   3.577   9.173
20645WAT     H162177   7.388   3.627   9.255
20645WAT     H262178   7.454   3.489   9.199
20646WAT      O62179   0.945   4.818   9.236
20646WAT     H162180   0.912   4.813   9.142
20646WAT     H262181   0.934   4.911   9.270
20647WAT      O62182   0.073   3.055   8.257
20647WAT     H162183   0.132   2.987   8.213
20647WAT     H262184   0.125   3.139   8.272
20648WAT      O62185   3.968   8.425   1.163
20648WAT     H162186   3.961   8.524   1.164
20648WAT     H262187   4.051   8.398   1.115
20649WAT      O62188   2.478   1.289   5.192
20649WAT     H162189   2.451   1.202   5.232
20649WAT     H262190   2.571   1.312   5.221
20650WAT      O62191   8.649   2.902   5.654
20650WAT     H162192   8.620   2.989   5.693
20650WAT     H262193   8.731   2.916   5.599
20651WAT      O62194   0.102   5.009   5.341
20651WAT     H162195   0.134   5.048   5.428
20651WAT     H262196   0.003   4.996   5.345
20652WAT      O62197   5.476   7.461   2.921
20652WAT     H162198   5.485   7.519   2.840
20652WAT     H262199   5.412   7.503   2.985
20653WAT      O62200   4.120   0.386   7.353
20653WAT     H162201   4.141   0.347   7.264
20653WAT     H262202   4.118   0.486   7.346
20654WAT      O62203   2.626   2.057   6.501
20654WAT     H162204   2.643   2.128   6.432
20654WAT     H262205   2.714   2.024   6.537
20655WAT      O62206   0.495   2.643   3.363
20655WAT     H162207   0.436   2.687   3.295
20655WAT     H262208   0.439   2.589   3.426
20656WAT      O62209   7.945   9.636   0.631
20656WAT     H162210   7.900   9.691   0.561
20656WAT     H262211   8.019   9.583   0.591
20657WAT      O62212   9.201   8.769   1.225
20657WAT     H162213   9.261   8.731   1.295
20657WAT     H262214   9.137   8.699   1.194
20658WAT      O62215   1.349   5.308   8.333
20658WAT     H162216   1.379   5.401   8.315
20658WAT     H262217   1.370   5.284   8.428
20659WAT      O62218   0.021   1.841   2.166
20659WAT     H162219   0.078   1.921   2.145
20659WAT     H262220   0.074   1.776   2.221
20660WAT      O62221   5.473   5.561   0.478
20660WAT     H162222   5.552   5.591   0.531
20660WAT     H262223   5.417   5.499   0.535
20661WAT      O62224   5.863   3.017   3.801
20661WAT     H162225   5.855   2.930   3.851
20661WAT     H262226   5.881   3.091   3.866
20662WAT      O62227   6.316   7.237   7.489
20662WAT     H162228   6.315   7.207   7.585
20662WAT     H262229   6.226   7.226   7.449
20663WAT      O62230   2.624   4.991   1.301
20663WAT     H162231   2.596   4.903   1.263
20663WAT     H262232   2.544   5.048   1.318
20664WAT      O62233   0.942   7.573   5.665
20664WAT     H162234   0.917   7.481   5.635
20664WAT     H262235   1.028   7.601   5.622
20665WAT      O62236   6.091   2.675   6.077
20665WAT     H162237   6.037   2.598   6.111
20665WAT     H262238   6.113   2.736   6.153
20666WAT      O62239   7.617   3.704   6.521
20666WAT     H162240   7.533   3.709   6.575
20666WAT     H262241   7.626   3.788   6.467
20667WAT      O62242   2.891   5.779   7.025
20667WAT     H162243   2.861   5.838   7.100
20667WAT     H262244   2.853   5.812   6.939
20668WAT      O62245   8.054   7.248   1.683
20668WAT     H162246   8.107   7.187   1.624
20668WAT     H262247   8.053   7.340   1.642
20669WAT      O62248   3.367   7.720   4.445
20669WAT     H162249   3.372   7.818   4.430
20669WAT     H262250   3.460   7.683   4.454
20670WAT      O62251   3.964   2.873   1.797
20670WAT     H162252   3.932   2.952   1.848
20670WAT     H262253   4.012   2.904   1.714
20671WAT      O62254   3.461   5.865   0.992
20671WAT     H162255   3.544   5.921   0.982
20671WAT     H262256   3.482   5.770   0.972
20672WAT      O62257   8.478   1.838   9.289
20672WAT     H162258   8.481   1.932   9.321
20672WAT     H262259   8.398   1.825   9.230
20673WAT      O62260   5.795   0.642   2.440
20673WAT     H162261   5.759   0.551   2.461
20673WAT     H262262   5.872   0.663   2.500
20674WAT      O62263   4.587   6.808   6.126
20674WAT     H162264   4.509   6.748   6.143
20674WAT     H262265   4.664   6.779   6.182
20675WAT      O62266   9.512   9.687   7.768
20675WAT     H162267   9.500   9.750   7.845
20675WAT     H262268   9.428   9.635   7.755
20676WAT      O62269   1.616   7.282   8.132
20676WAT     H162270   1.682   7.289   8.207
20676WAT     H262271   1.592   7.186   8.118
20677WAT      O62272   6.800   4.811   6.421
20677WAT     H162273   6.783   4.833   6.325
20677WAT     H262274   6.713   4.794   6.468
20678WAT      O62275   5.457   2.756   6.311
20678WAT     H162276   5.432   2.749   6.214
20678WAT     H262277   5.382   2.721   6.367
20679WAT      O62278   8.011   3.098   7.021
20679WAT     H162279   7.915   3.071   7.029
20679WAT     H262280   8.057   3.084   7.109
20680WAT      O62281   8.058   4.261   3.302
20680WAT     H162282   8.156   4.255   3.288
20680WAT     H262283   8.037   4.342   3.357
20681WAT      O62284   3.995   6.644   0.388
20681WAT     H162285   3.918   6.593   0.349
20681WAT     H262286   4.060   6.667   0.316
20682WAT      O62287   5.773   8.476   3.615
20682WAT     H162288   5.835   8.491   3.539
20682WAT     H262289   5.823   8.480   3.702
20683WAT      O62290   3.094   1.266   0.519
20683WAT     H162291   3.178   1.320   0.511
20683WAT     H262292   3.109   1.191   0.583
20684WAT      O62293   8.642   7.090   1.831
20684WAT     H162294   8.686   7.179   1.826
20684WAT     H262295   8.597   7.080   1.920
20685WAT      O62296   8.112   1.805   9.223
20685WAT     H162297   8.096   1.854   9.308
20685WAT     H262298   8.154   1.867   9.156
20686WAT      O62299   4.107   6.400   7.692
20686WAT     H162300   4.183   6.335   7.691
20686WAT     H262301   4.052   6.385   7.774
20687WAT      O62302   1.552   6.491   5.832
20687WAT     H162303   1.606   6.561   5.786
20687WAT     H262304   1.496   6.533   5.903
20688WAT      O62305   1.701   3.769   5.507
20688WAT     H162306   1.754   3.783   5.591
20688WAT     H262307   1.713   3.846   5.446
20689WAT      O62308   6.560   1.913   2.434
20689WAT     H162309   6.616   1.991   2.465
20689WAT     H262310   6.470   1.918   2.478
20690WAT      O62311   8.090   2.620   3.535
20690WAT     H162312   8.180   2.655   3.561
20690WAT     H262313   8.019   2.675   3.579
20691WAT      O62314   8.833   6.763   0.655
20691WAT     H162315   8.889   6.754   0.572
20691WAT     H262316   8.883   6.724   0.732
20692WAT      O62317   1.995   7.562   8.542
20692WAT     H162318   2.069   7.629   8.548
20692WAT     H262319   1.957   7.562   8.450
20693WAT      O62320   5.743   7.269   5.274
20693WAT     H162321   5.675   7.202   5.304
20693WAT     H262322   5.824   7.262   5.332
20694WAT      O62323   5.952   7.176   1.809
20694WAT     H162324   5.969   7.132   1.721
20694WAT     H262325   6.033   7.226   1.837
20695WAT      O62326   6.681   8.561   1.992
20695WAT     H162327   6.732   8.647   1.999
20695WAT     H262328   6.605   8.572   1.928
20696WAT      O62329   8.709   1.581   6.104
20696WAT     H162330   8.626   1.541   6.142
20696WAT     H262331   8.703   1.681   6.110
20697WAT      O62332   5.244   9.432   7.909
20697WAT     H162333   5.208   9.355   7.856
20697WAT     H262334   5.188   9.446   7.991
20698WAT      O62335   6.117   0.436   2.575
20698WAT     H162336   6.115   0.504   2.502
20698WAT     H262337   6.207   0.393   2.578
20699WAT      O62338   4.907   6.304   9.544
20699WAT     H162339   4.903   6.325   9.447
20699WAT     H262340   4.917   6.205   9.557
20700WAT      O62341   5.022   1.325   8.644
20700WAT     H162342   5.080   1.369   8.713
20700WAT     H262343   4.966   1.394   8.599
20701WAT      O62344   8.748   3.442   8.244
20701WAT     H162345   8.769   3.409   8.152
20701WAT     H262346   8.723   3.364   8.302
20702WAT      O62347   8.695   1.985   9.140
20702WAT     H162348   8.738   1.994   9.051
20702WAT     H262349   8.642   1.900   9.143
20703WAT      O62350   7.176   6.485   1.421
20703WAT     H162351   7.230   6.545   1.480
20703WAT     H262352   7.091   6.532   1.394
20704WAT      O62353   7.945   6.541   8.220
20704WAT     H162354   7.897   6.565   8.304
20704WAT     H262355   7.887   6.561   8.141
20705WAT      O62356   5.518   4.934   0.032
20705WAT     H162357   5.536   4.979  -0.056
20705WAT     H262358   5.477   4.844   0.016
20706WAT      O62359   2.568   8.423   5.255
20706WAT     H162360   2.643   8.358   5.270
20706WAT     H262361   2.588   8.509   5.300
20707WAT      O62362   8.265   9.317   0.113
20707WAT     H162363   8.219   9.406   0.123
20707WAT     H262364   8.279   9.298   0.016
20708WAT      O62365   6.869   7.595   2.738
20708WAT     H162366   6.918   7.525   2.791
20708WAT     H262367   6.927   7.627   2.663
20709WAT      O62368   4.826   8.625   1.993
20709WAT     H162369   4.872   8.542   1.961
20709WAT     H262370   4.748   8.645   1.933
20710WAT      O62371   3.681   7.368   9.855
20710WAT     H162372   3.737   7.386   9.774
20710WAT     H262373   3.703   7.435   9.926
20711WAT      O62374   6.695   9.379   9.541
20711WAT     H162375   6.621   9.380   9.473
20711WAT     H262376   6.661   9.341   9.627
20712WAT      O62377   2.852   8.429   5.598
20712WAT     H162378   2.899   8.507   5.641
20712WAT     H262379   2.787   8.389   5.663
20713WAT      O62380   7.920   4.919   6.726
20713WAT     H162381   7.827   4.941   6.756
20713WAT     H262382   7.929   4.936   6.628
20714WAT      O62383   5.651   4.198   9.423
20714WAT     H162384   5.629   4.101   9.436
20714WAT     H262385   5.747   4.213   9.445
20715WAT      O62386   4.198   7.547   7.762
20715WAT     H162387   4.199   7.645   7.782
20715WAT     H262388   4.204   7.532   7.663
20716WAT      O62389   3.402   5.791   7.318
20716WAT     H162390   3.441   5.883   7.318
20716WAT     H262391   3.377   5.765   7.224
20717WAT      O62392   6.664   7.474   7.439
20717WAT     H162393   6.677   7.479   7.340
20717WAT     H262394   6.682   7.381   7.470
20718WAT      O62395   2.963   1.861   2.587
20718WAT     H162396   3.045   1.858   2.531
20718WAT     H262397   2.982   1.823   2.677
20719WAT      O62398   0.983   3.032   3.694
20719WAT     H162399   0.987   2.947   3.641
20719WAT     H262400   0.888   3.060   3.705
20720WAT      O62401   9.649   8.714   9.610
20720WAT     H162402   9.685   8.729   9.702
20720WAT     H262403   9.551   8.697   9.615
20721WAT      O62404   3.352   4.783   1.065
20721WAT     H162405   3.356   4.727   1.147
20721WAT     H262406   3.288   4.859   1.080
20722WAT      O62407   9.863   6.304   5.234
20722WAT     H162408   9.864   6.400   5.261
20722WAT     H262409   9.773   6.264   5.256
20723WAT      O62410   9.135   8.189   9.512
20723WAT     H162411   9.038   8.173   9.496
20723WAT     H262412   9.160   8.157   9.603
20724WAT      O62413   2.242   6.816   4.531
20724WAT     H162414   2.149   6.793   4.502
20724WAT     H262415   2.280   6.886   4.471
20725WAT      O62416   0.851   8.858   1.019
20725WAT     H162417   0.935   8.881   0.970
20725WAT     H262418   0.829   8.931   1.084
20726WAT      O62419   3.698   6.121   7.198
20726WAT     H162420   3.746   6.209   7.190
20726WAT     H262421   3.740   6.055   7.136
20727WAT      O62422   4.864   0.390   0.318
20727WAT     H162423   4.843   0.367   0.223
20727WAT     H262424   4.887   0.487   0.325
20728WAT      O62425   3.276   2.593   9.765
20728WAT     H162426   3.265   2.588   9.666
20728WAT     H262427   3.357   2.648   9.787
20729WAT      O62428   6.552   7.200   7.327
20729WAT     H162429   6.614   7.215   7.404
20729WAT     H262430   6.459   7.226   7.354
20730WAT      O62431   2.905   8.114   4.289
20730WAT     H162432   2.811   8.127   4.258
20730WAT     H262433   2.918   8.159   4.377
20731WAT      O62434   0.797   4.394   4.876
20731WAT     H162435   0.879   4.374   4.823
20731WAT     H262436   0.815   4.384   4.973
20732WAT      O62437   4.365   3.992   9.558
20732WAT     H162438   4.321   4.007   9.647
20732WAT     H262439   4.441   4.057   9.548
20733WAT      O62440   9.034   2.395   5.097
20733WAT     H162441   8.992   2.485   5.095
20733WAT     H262442   9.094   2.389   5.177
20734WAT      O62443   5.502   2.474   4.959
20734WAT     H162444   5.482   2.567   4.991
20734WAT     H262445   5.566   2.479   4.883
20735WAT      O62446   7.410   2.397   8.380
20735WAT     H162447   7.501   2.405   8.420
20735WAT     H262448   7.400   2.308   8.336
20736WAT      O62449   9.100   7.150   8.402
20736WAT     H162450   9.134   7.182   8.491
20736WAT     H262451   9.090   7.050   8.404
20737WAT      O62452   7.385   7.635   3.875
20737WAT     H162453   7.423   7.548   3.843
20737WAT     H262454   7.312   7.664   3.813
20738WAT      O62455   4.851   2.203   6.455
20738WAT     H162456   4.874   2.287   6.506
20738WAT     H262457   4.912   2.194   6.377
20739WAT      O62458   0.782   3.553   1.466
20739WAT     H162459   0.724   3.565   1.547
20739WAT     H262460   0.724   3.545   1.385
20740WAT      O62461   5.642   4.302   8.613
20740WAT     H162462   5.733   4.318   8.652
20740WAT     H262463   5.594   4.235   8.669
20741WAT      O62464   6.357   7.931   5.183
20741WAT     H162465   6.346   7.944   5.085
20741WAT     H262466   6.424   7.997   5.218
20742WAT      O62467   5.671   4.445   8.925
20742WAT     H162468   5.738   4.409   8.860
20742WAT     H262469   5.665   4.545   8.914
20743WAT      O62470   4.652   8.224   5.431
20743WAT     H162471   4.559   8.191   5.414
20743WAT     H262472   4.653   8.280   5.513
20744WAT      O62473   3.284   7.302   2.425
20744WAT     H162474   3.249   7.248   2.349
20744WAT     H262475   3.212   7.314   2.494
20745WAT      O62476   1.983   0.922   9.569
20745WAT     H162477   2.064   0.901   9.624
20745WAT     H262478   1.992   0.879   9.479
20746WAT      O62479   5.198   7.287   7.675
20746WAT     H162480   5.145   7.224   7.732
20746WAT     H262481   5.278   7.320   7.727
20747WAT      O62482   5.886   8.782   1.803
20747WAT     H162483   5.889   8.876   1.770
20747WAT     H262484   5.869   8.781   1.902
20748WAT      O62485   8.153   0.083   9.738
20748WAT     H162486   8.169   0.157   9.803
20748WAT     H262487   8.158   0.120   9.645
20749WAT      O62488   5.857   7.282   0.271
20749WAT     H162489   5.928   7.225   0.230
20749WAT     H262490   5.828   7.242   0.358
20750WAT      O62491   8.923   2.236   9.555
20750WAT     H162492   8.852   2.166   9.552
20750WAT     H262493   8.980   2.223   9.636
20751WAT      O62494   6.791   5.986   1.417
20751WAT     H162495   6.768   5.993   1.515
20751WAT     H262496   6.853   5.909   1.403
20752WAT      O62497   0.418   8.598   1.154
20752WAT     H162498   0.462   8.565   1.071
20752WAT     H262499   0.337   8.542   1.173
20753WAT      O62500   4.908   7.041   3.423
20753WAT     H162501   4.822   7.089   3.440
20753WAT     H262502   4.921   7.028   3.325
20754WAT      O62503   6.897   9.006   8.806
20754WAT     H162504   6.836   8.929   8.823
20754WAT     H262505   6.898   9.027   8.708
20755WAT      O62506   1.637   6.526   7.514
20755WAT     H162507   1.618   6.622   7.495
20755WAT     H262508   1.550   6.475   7.516
20756WAT      O62509   5.497   0.754   1.616
20756WAT     H162510   5.551   0.794   1.541
20756WAT     H262511   5.460   0.827   1.672
20757WAT      O62512   1.152   8.635   0.118
20757WAT     H162513   1.238   8.618   0.168
20757WAT     H262514   1.100   8.706   0.166
20758WAT      O62515   3.564   7.356   8.781
20758WAT     H162516   3.522   7.318   8.698
20758WAT     H262517   3.635   7.421   8.756
20759WAT      O62518   5.814   7.669   2.932
20759WAT     H162519   5.788   7.591   2.989
20759WAT     H262520   5.820   7.751   2.988
20760WAT      O62521   6.963   8.036   5.057
20760WAT     H162522   7.049   8.009   5.101
20760WAT     H262523   6.966   8.009   4.960
20761WAT      O62524   1.770   8.566   8.172
20761WAT     H162525   1.753   8.512   8.089
20761WAT     H262526   1.768   8.663   8.149
20762WAT      O62527   3.186   5.739   2.854
20762WAT     H162528   3.268   5.737   2.796
20762WAT     H262529   3.213   5.723   2.949
20763WAT      O62530   5.151   3.373   1.155
20763WAT     H162531   5.202   3.430   1.220
20763WAT     H262532   5.216   3.319   1.101
20764WAT      O62533   4.178   3.692   0.101
20764WAT     H162534   4.193   3.641   0.017
20764WAT     H262535   4.144   3.631   0.172
20765WAT      O62536   9.058   6.752   3.907
20765WAT     H162537   9.076   6.668   3.959
20765WAT     H262538   8.960   6.760   3.889
20766WAT      O62539   0.155   3.457   0.079
20766WAT     H162540   0.231   3.516   0.106
20766WAT     H262541   0.184   3.398   0.003
20767WAT      O62542   4.098   0.978   4.023
20767WAT     H162543   4.005   0.984   4.058
20767WAT     H262544   4.098   0.929   3.936
20768WAT      O62545   1.874   2.713   1.816
20768WAT     H162546   1.860   2.666   1.729
20768WAT     H262547   1.971   2.708   1.841
20769WAT      O62548   4.761   9.791   2.425
20769WAT     H162549   4.829   9.864   2.427
20769WAT     H262550   4.712   9.794   2.338
20770WAT      O62551   1.974   7.295   7.387
20770WAT     H162552   2.040   7.324   7.457
20770WAT     H262553   1.882   7.321   7.416
20771WAT      O62554   7.457   7.479   8.987
20771WAT     H162555   7.358   7.474   8.971
20771WAT     H262556   7.476   7.447   9.080
20772WAT      O62557   8.829   0.102   7.178
20772WAT     H162558   8.823   0.199   7.156
20772WAT     H262559   8.871   0.053   7.101
20773WAT      O62560   1.228   0.437   4.317
20773WAT     H162561   1.159   0.379   4.273
20773WAT     H262562   1.268   0.389   4.395
20774WAT      O62563   8.227   9.768   7.118
20774WAT     H162564   8.150   9.708   7.098
20774WAT     H262565   8.255   9.816   7.035
20775WAT      O62566   4.688   1.417   9.328
20775WAT     H162567   4.651   1.341   9.274
20775WAT     H262568   4.783   1.397   9.352
20776WAT      O62569   6.028   3.364   2.720
20776WAT     H162570   6.117   3.328   2.692
20776WAT     H262571   6.001   3.438   2.659
20777WAT      O62572   4.374   8.493   7.816
20777WAT     H162573   4.462   8.451   7.793
20777WAT     H262574   4.338   8.540   7.735
20778WAT      O62575   9.535   8.288   3.386
20778WAT     H162576   9.606   8.305   3.318
20778WAT     H262577   9.574   8.293   3.478
20779WAT      O62578   6.966   3.474   3.229
20779WAT     H162579   6.873   3.444   3.208
20779WAT     H262580   6.962   3.555   3.287
20780WAT      O62581   1.539   5.409   1.395
20780WAT     H162582   1.636   5.385   1.392
20780WAT     H262583   1.518   5.448   1.485
20781WAT      O62584   3.988   0.703   6.177
20781WAT     H162585   3.929   0.623   6.171
20781WAT     H262586   3.942   0.775   6.230
20782WAT      O62587   0.522   4.629   1.205
20782WAT     H162588   0.572   4.566   1.263
20782WAT     H262589   0.520   4.720   1.247
20783WAT      O62590   6.453   2.334   0.380
20783WAT     H162591   6.373   2.346   0.322
20783WAT     H262592   6.468   2.237   0.398
20784WAT      O62593   4.730   6.213   2.538
20784WAT     H162594   4.731   6.297   2.483
20784WAT     H262595   4.639   6.201   2.578
20785WAT      O62596   0.360   5.675   0.863
20785WAT     H162597   0.327   5.583   0.843
20785WAT     H262598   0.453   5.685   0.830
20786WAT      O62599   7.627   7.365   0.245
20786WAT     H162600   7.560   7.439   0.241
20786WAT     H262601   7.705   7.394   0.301
20787WAT      O62602   6.758   1.593   2.014
20787WAT     H162603   6.795   1.611   2.105
20787WAT     H262604   6.754   1.494   1.998
20788WAT      O62605   7.327   6.396   7.848
20788WAT     H162606   7.283   6.375   7.761
20788WAT     H262607   7.406   6.336   7.861
20789WAT      O62608   9.093   7.510   0.531
20789WAT     H162609   9.170   7.547   0.583
20789WAT     H262610   9.076   7.567   0.451
20790WAT      O62611   3.500   4.006   2.876
20790WAT     H162612   3.439   4.056   2.937
20790WAT     H262613   3.447   3.956   2.808
20791WAT      O62614   7.497   7.702   8.124
20791WAT     H162615   7.507   7.684   8.222
20791WAT     H262616   7.471   7.798   8.110
20792WAT      O62617   9.401   8.310   6.233
20792WAT     H162618   9.306   8.340   6.236
20792WAT     H262619   9.461   8.387   6.256
20793WAT      O62620   3.075   4.653   6.456
20793WAT     H162621   3.063   4.736   6.403
20793WAT     H262622   2.992   4.636   6.510
20794WAT      O62623   7.374   4.503   4.167
20794WAT     H162624   7.423   4.430   4.214
20794WAT     H262625   7.320   4.463   4.092
20795WAT      O62626   7.588   0.495   3.103
20795WAT     H162627   7.590   0.593   3.083
20795WAT     H262628   7.649   0.447   3.040
20796WAT      O62629   7.903   0.615   7.032
20796WAT     H162630   7.834   0.549   7.001
20796WAT     H262631   7.967   0.634   6.957
20797WAT      O62632   1.753   6.840   7.162
20797WAT     H162633   1.789   6.884   7.080
20797WAT     H262634   1.826   6.791   7.208
20798WAT      O62635   8.677   6.584   6.876
20798WAT     H162636   8.755   6.584   6.938
20798WAT     H262637   8.613   6.511   6.903
20799WAT      O62638   4.982   3.410   6.053
20799WAT     H162639   5.048   3.481   6.026
20799WAT     H262640   4.927   3.444   6.129
20800WAT      O62641   4.724   9.428   0.247
20800WAT     H162642   4.630   9.395   0.259
20800WAT     H262643   4.751   9.416   0.151
20801WAT      O62644   8.360   0.683   7.262
20801WAT     H162645   8.451   0.669   7.223
20801WAT     H262646   8.337   0.606   7.321
20802WAT      O62647   2.675   0.439   4.725
20802WAT     H162648   2.576   0.453   4.719
20802WAT     H262649   2.694   0.344   4.749
20803WAT      O62650   9.025   3.779   7.032
20803WAT     H162651   9.061   3.871   7.048
20803WAT     H262652   8.969   3.751   7.110
20804WAT      O62653   8.072   0.521   1.208
20804WAT     H162654   8.145   0.487   1.268
20804WAT     H262655   8.092   0.494   1.113
20805WAT      O62656   8.985   2.108   9.219
20805WAT     H162657   8.951   2.093   9.311
20805WAT     H262658   9.080   2.076   9.212
20806WAT      O62659   8.960   6.401   2.863
20806WAT     H162660   8.888   6.454   2.909
20806WAT     H262661   9.046   6.451   2.868
20807WAT      O62662   6.981   2.292   5.656
20807WAT     H162663   7.057   2.356   5.658
20807WAT     H262664   6.958   2.262   5.749
20808WAT      O62665   7.581   4.631   8.900
20808WAT     H162666   7.507   4.699   8.895
20808WAT     H262667   7.542   4.541   8.918
20809WAT      O62668   5.431   3.520   1.030
20809WAT     H162669   5.474   3.464   0.959
20809WAT     H262670   5.355   3.572   0.991
20810WAT      O62671   1.080   9.574   3.385
20810WAT     H162672   1.057   9.664   3.350
20810WAT     H262673   1.019   9.506   3.345
20811WAT      O62674   7.084   4.015   4.252
20811WAT     H162675   7.041   4.098   4.289
20811WAT     H262676   7.046   3.995   4.162
20812WAT      O62677   8.344   3.807   6.108
20812WAT     H162678   8.342   3.877   6.179
20812WAT     H262679   8.439   3.786   6.084
20813WAT      O62680   7.965   6.524   3.625
20813WAT     H162681   7.895   6.589   3.654
20813WAT     H262682   8.031   6.571   3.566
20814WAT      O62683   1.829   9.035   8.242
20814WAT     H162684   1.901   9.010   8.307
20814WAT     H262685   1.809   8.957   8.182
20815WAT      O62686   7.273   9.606   6.841
20815WAT     H162687   7.361   9.624   6.798
20815WAT     H262688   7.288   9.567   6.932
20816WAT      O62689   4.797   1.714   0.200
20816WAT     H162690   4.892   1.683   0.202
20816WAT     H262691   4.740   1.643   0.158
20817WAT      O62692   8.379   6.864   5.920
20817WAT     H162693   8.472   6.835   5.942
20817WAT     H262694   8.328   6.880   6.005
20818WAT      O62695   8.639   0.397   2.794
20818WAT     H162696   8.679   0.394   2.886
20818WAT     H262697   8.564   0.464   2.793
20819WAT      O62698   3.238   7.196   7.546
20819WAT     H162699   3.169   7.209   7.475
20819WAT     H262700   3.207   7.237   7.632
20820WAT      O62701   6.429   5.653   0.845
20820WAT     H162702   6.510   5.668   0.788
20820WAT     H262703   6.411   5.736   0.898
20821WAT      O62704   2.957   9.713   1.551
20821WAT     H162705   2.924   9.769   1.627
20821WAT     H262706   2.897   9.634   1.540
20822WAT      O62707   6.885   2.839   1.668
20822WAT     H162708   6.853   2.755   1.623
20822WAT     H262709   6.925   2.900   1.600
20823WAT      O62710   0.429   6.752   1.660
20823WAT     H162711   0.344   6.707   1.689
20823WAT     H262712   0.454   6.821   1.729
20824WAT      O62713   7.548   8.008   5.786
20824WAT     H162714   7.610   7.933   5.810
20824WAT     H262715   7.475   8.014   5.854
20825WAT      O62716   2.119   3.009   6.291
20825WAT     H162717   2.039   2.997   6.232
20825WAT     H262718   2.093   3.059   6.373
20826WAT      O62719   1.942   3.153   8.172
20826WAT     H162720   2.016   3.198   8.122
20826WAT     H262721   1.924   3.203   8.257
20827WAT      O62722   4.131   6.069   4.544
20827WAT     H162723   4.197   5.999   4.572
20827WAT     H262724   4.100   6.050   4.451
20828WAT      O62725   0.780   9.223   2.323
20828WAT     H162726   0.736   9.193   2.238
20828WAT     H262727   0.763   9.320   2.337
20829WAT      O62728   9.876   5.210   3.230
20829WAT     H162729   9.862   5.112   3.248
20829WAT     H262730   9.844   5.263   3.308
20830WAT      O62731   1.285   9.776   3.038
20830WAT     H162732   1.375   9.734   3.051
20830WAT     H262733   1.293   9.855   2.979
20831WAT      O62734   8.728   0.565   3.030
20831WAT     H162735   8.662   0.581   3.104
20831WAT     H262736   8.803   0.508   3.063
20832WAT      O62737   7.234   6.095   4.352
20832WAT     H162738   7.230   6.153   4.433
20832WAT     H262739   7.327   6.096   4.315
20833WAT      O62740   0.241   1.905   2.553
20833WAT     H162741   0.155   1.953   2.570
20833WAT     H262742   0.226   1.806   2.562
20834WAT      O62743   4.155   1.106   1.848
20834WAT     H162744   4.219   1.063   1.785
20834WAT     H262745   4.061   1.088   1.818
20835WAT      O62746   5.328   7.091   9.655
20835WAT     H162747   5.283   7.176   9.678
20835WAT     H262748   5.427   7.100   9.669
20836WAT      O62749   5.428   1.806   6.867
20836WAT     H162750   5.454   1.848   6.780
20836WAT     H262751   5.506   1.756   6.904
20837WAT      O62752   6.587   3.549   2.933
20837WAT     H162753   6.501   3.513   2.969
20837WAT     H262754   6.580   3.557   2.834
20838WAT      O62755   5.863   7.214   3.506
20838WAT     H162756   5.816   7.196   3.592
20838WAT     H262757   5.816   7.287   3.457
20839WAT      O62758   7.861   8.150   7.829
20839WAT     H162759   7.836   8.215   7.757
20839WAT     H262760   7.815   8.063   7.813
20840WAT      O62761   4.701   5.564   7.318
20840WAT     H162762   4.725   5.559   7.415
20840WAT     H262763   4.666   5.476   7.287
20841WAT      O62764   0.223   4.012   7.673
20841WAT     H162765   0.260   3.958   7.598
20841WAT     H262766   0.155   4.076   7.638
20842WAT      O62767   3.986   1.118   1.191
20842WAT     H162768   4.029   1.039   1.146
20842WAT     H262769   4.044   1.149   1.267
20843WAT      O62770   6.861   1.451   7.796
20843WAT     H162771   6.958   1.457   7.770
20843WAT     H262772   6.809   1.518   7.744
20844WAT      O62773   2.609   5.936   7.532
20844WAT     H162774   2.621   6.025   7.488
20844WAT     H262775   2.581   5.868   7.464
20845WAT      O62776   6.994   0.094   4.670
20845WAT     H162777   7.004   0.126   4.576
20845WAT     H262778   7.065   0.027   4.691
20846WAT      O62779   7.254   7.339   2.739
20846WAT     H162780   7.273   7.296   2.651
20846WAT     H262781   7.292   7.432   2.739
20847WAT      O62782   4.768   5.449   5.289
20847WAT     H162783   4.779   5.527   5.228
20847WAT     H262784   4.686   5.398   5.263
20848WAT      O62785   4.341   3.374   6.977
20848WAT     H162786   4.399   3.298   7.007
20848WAT     H262787   4.379   3.460   7.011
20849WAT      O62788   1.482   5.593   6.304
20849WAT     H162789   1.534   5.644   6.236
20849WAT     H262790   1.387   5.625   6.305
20850WAT      O62791   1.613   5.490   1.872
20850WAT     H162792   1.549   5.460   1.942
20850WAT     H262793   1.673   5.560   1.910
20851WAT      O62794   2.794   0.198   6.724
20851WAT     H162795   2.785   0.226   6.820
20851WAT     H262796   2.837   0.271   6.672
20852WAT      O62797   3.729   9.265   1.379
20852WAT     H162798   3.756   9.290   1.472
20852WAT     H262799   3.672   9.338   1.340
20853WAT      O62800   3.039   8.676   8.445
20853WAT     H162801   2.971   8.692   8.516
20853WAT     H262802   3.005   8.606   8.382
20854WAT      O62803   2.582   3.813   6.319
20854WAT     H162804   2.558   3.755   6.240
20854WAT     H262805   2.498   3.851   6.357
20855WAT      O62806   0.421   1.924   7.507
20855WAT     H162807   0.430   2.023   7.504
20855WAT     H262808   0.340   1.899   7.560
20856WAT      O62809   4.079   2.836   2.872
20856WAT     H162810   3.997   2.820   2.927
20856WAT     H262811   4.159   2.840   2.932
20857WAT      O62812   3.796   5.557   9.202
20857WAT     H162813   3.889   5.556   9.164
20857WAT     H262814   3.776   5.469   9.244
20858WAT      O62815   1.531   5.844   1.672
20858WAT     H162816   1.440   5.867   1.706
20858WAT     H262817   1.596   5.847   1.748
20859WAT      O62818   4.404   3.801   6.208
20859WAT     H162819   4.412   3.793   6.307
20859WAT     H262820   4.355   3.722   6.172
20860WAT      O62821   9.319   1.852   9.021
20860WAT     H162822   9.230   1.837   8.977
20860WAT     H262823   9.374   1.769   9.014
20861WAT      O62824   0.276   7.937   0.192
20861WAT     H162825   0.273   7.876   0.271
20861WAT     H262826   0.369   7.975   0.183
20862WAT      O62827   8.086   9.732   9.576
20862WAT     H162828   8.179   9.725   9.539
20862WAT     H262829   8.086   9.795   9.654
20863WAT      O62830   9.495   0.279   7.291
20863WAT     H162831   9.523   0.346   7.222
20863WAT     H262832   9.400   0.254   7.276
20864WAT      O62833   4.345   1.272   1.023
20864WAT     H162834   4.433   1.231   1.000
20864WAT     H262835   4.271   1.214   0.988
20865WAT      O62836   2.092   2.559   4.244
20865WAT     H162837   2.071   2.520   4.334
20865WAT     H262838   2.190   2.577   4.238
20866WAT      O62839   1.210   2.040   7.758
20866WAT     H162840   1.200   2.139   7.753
20866WAT     H262841   1.301   2.014   7.725
20867WAT      O62842   4.578   9.339   5.937
20867WAT     H162843   4.607   9.244   5.949
20867WAT     H262844   4.485   9.351   5.971
20868WAT      O62845   3.003   1.017   6.040
20868WAT     H162846   3.068   1.085   6.007
20868WAT     H262847   2.911   1.056   6.040
20869WAT      O62848   0.098   1.744   5.256
20869WAT     H162849   0.015   1.691   5.271
20869WAT     H262850   0.090   1.833   5.301
20870WAT      O62851   7.391   3.509   4.072
20870WAT     H162852   7.329   3.430   4.072
20870WAT     H262853   7.368   3.569   4.149
20871WAT      O62854   5.070   1.112   6.322
20871WAT     H162855   5.036   1.126   6.229
20871WAT     H262856   4.996   1.126   6.388
20872WAT      O62857   1.487   4.080   3.975
20872WAT     H162858   1.479   4.070   4.074
20872WAT     H262859   1.452   3.997   3.930
20873WAT      O62860   7.821   1.871   6.952
20873WAT     H162861   7.859   1.816   6.877
20873WAT     H262862   7.857   1.838   7.039
20874WAT      O62863   8.275   0.332   1.321
20874WAT     H162864   8.370   0.305   1.309
20874WAT     H262865   8.217   0.251   1.329
20875WAT      O62866   0.417   2.868   9.048
20875WAT     H162867   0.505   2.867   9.095
20875WAT     H262868   0.381   2.962   9.046
20876WAT      O62869   1.435   7.884   2.137
20876WAT     H162870   1.431   7.905   2.234
20876WAT     H262871   1.467   7.964   2.087
20877WAT      O62872   7.787   0.694   2.555
20877WAT     H162873   7.765   0.792   2.551
20877WAT     H262874   7.875   0.682   2.601
20878WAT      O62875   8.322   5.168   0.087
20878WAT     H162876   8.310   5.079   0.042
20878WAT     H262877   8.364   5.233   0.024
20879WAT      O62878   4.628   6.308   7.443
20879WAT     H162879   4.649   6.374   7.516
20879WAT     H262880   4.619   6.357   7.356
20880WAT      O62881   6.981   6.918   3.436
20880WAT     H162882   7.062   6.860   3.446
20880WAT     H262883   7.010   7.014   3.433
20881WAT      O62884   5.262   2.595   4.345
20881WAT     H162885   5.248   2.548   4.433
20881WAT     H262886   5.262   2.528   4.271
20882WAT      O62887   6.015   1.311   0.820
20882WAT     H162888   5.918   1.333   0.836
20882WAT     H262889   6.023   1.216   0.789
20883WAT      O62890   3.647   6.824   0.481
20883WAT     H162891   3.671   6.814   0.384
20883WAT     H262892   3.632   6.921   0.501
20884WAT      O62893   3.987   0.433   3.002
20884WAT     H162894   3.961   0.456   3.096
20884WAT     H262895   3.914   0.379   2.960
20885WAT      O62896   8.336   6.443   6.756
20885WAT     H162897   8.301   6.366   6.703
20885WAT     H262898   8.322   6.528   6.705
20886WAT      O62899   2.323   1.092   7.299
20886WAT     H162900   2.269   1.073   7.381
20886WAT     H262901   2.262   1.108   7.221
20887WAT      O62902   8.806   9.357   1.895
20887WAT     H162903   8.815   9.343   1.797
20887WAT     H262904   8.748   9.286   1.934
20888WAT      O62905   5.466   5.551   8.522
20888WAT     H162906   5.401   5.617   8.559
20888WAT     H262907   5.419   5.465   8.502
20889WAT      O62908   6.776   4.864   6.148
20889WAT     H162909   6.830   4.799   6.096
20889WAT     H262910   6.735   4.931   6.086
20890WAT      O62911   2.948   2.432   8.476
20890WAT     H162912   2.874   2.398   8.534
20890WAT     H262913   2.941   2.531   8.467
20891WAT      O62914   2.978   7.251   7.949
20891WAT     H162915   3.016   7.173   7.998
20891WAT     H262916   2.920   7.218   7.875
20892WAT      O62917   9.414   2.323   1.623
20892WAT     H162918   9.501   2.358   1.660
20892WAT     H262919   9.406   2.350   1.527
20893WAT      O62920   4.787   0.408   0.058
20893WAT     H162921   4.848   0.432  -0.018
20893WAT     H262922   4.693   0.429   0.032
20894WAT      O62923   8.994   5.193   5.214
20894WAT     H162924   9.004   5.278   5.265
20894WAT     H262925   9.009   5.115   5.275
20895WAT      O62926   9.237   1.872   7.419
20895WAT     H162927   9.170   1.936   7.456
20895WAT     H262928   9.282   1.824   7.495
20896WAT      O62929   4.067   8.227   2.730
20896WAT     H162930   4.053   8.188   2.639
20896WAT     H262931   4.081   8.326   2.723
20897WAT      O62932   5.801   0.359   3.664
20897WAT     H162933   5.723   0.358   3.727
20897WAT     H262934   5.786   0.291   3.592
20898WAT      O62935   6.506   3.241   7.336
20898WAT     H162936   6.605   3.248   7.329
20898WAT     H262937   6.480   3.232   7.432
20899WAT      O62938   1.387   7.821   6.308
20899WAT     H162939   1.307   7.810   6.248
20899WAT     H262940   1.463   7.766   6.272
20900WAT      O62941   0.469   0.769   8.864
20900WAT     H162942   0.466   0.855   8.915
20900WAT     H262943   0.483   0.694   8.928
20901WAT      O62944   5.527   1.510   9.016
20901WAT     H162945   5.551   1.585   9.077
20901WAT     H262946   5.557   1.532   8.923
20902WAT      O62947   3.531   7.086   9.649
20902WAT     H162948   3.539   7.056   9.745
20902WAT     H262949   3.510   7.183   9.646
20903WAT      O62950   5.807   5.783   2.296
20903WAT     H162951   5.903   5.762   2.276
20903WAT     H262952   5.775   5.854   2.234
20904WAT      O62953   7.397   2.541   5.520
20904WAT     H162954   7.316   2.547   5.579
20904WAT     H262955   7.398   2.453   5.474
20905WAT      O62956   1.752   0.011   7.039
20905WAT     H162957   1.748  -0.002   6.940
20905WAT     H262958   1.747  -0.078   7.085
20906WAT      O62959   7.863   1.701   6.119
20906WAT     H162960   7.789   1.636   6.130
20906WAT     H262961   7.877   1.751   6.205
20907WAT      O62962   3.900   0.731   0.115
20907WAT     H162963   3.974   0.798   0.117
20907WAT     H262964   3.855   0.729   0.205
20908WAT      O62965   8.853   4.953   4.041
20908WAT     H162966   8.848   4.865   4.088
20908WAT     H262967   8.938   4.957   3.988
20909WAT      O62968   1.419   6.088   4.050
20909WAT     H162969   1.497   6.107   3.991
20909WAT     H262970   1.450   6.044   4.134
20910WAT      O62971   0.861   6.001   6.856
20910WAT     H162972   0.941   6.057   6.877
20910WAT     H262973   0.794   6.055   6.807
20911WAT      O62974   7.679   3.109   8.329
20911WAT     H162975   7.590   3.077   8.297
20911WAT     H262976   7.752   3.055   8.287
20912WAT      O62977   5.387   5.792   8.625
20912WAT     H162978   5.298   5.803   8.671
20912WAT     H262979   5.457   5.841   8.676
20913WAT      O62980   2.844   8.020   6.991
20913WAT     H162981   2.847   8.112   7.031
20913WAT     H262982   2.783   7.962   7.044
20914WAT      O62983   1.967   0.896   1.932
20914WAT     H162984   1.920   0.808   1.936
20914WAT     H262985   1.923   0.954   1.864
20915WAT      O62986   0.140   0.258   8.324
20915WAT     H162987   0.216   0.205   8.361
20915WAT     H262988   0.128   0.343   8.376
20916WAT      O62989   3.430   3.263   2.928
20916WAT     H162990   3.455   3.166   2.926
20916WAT     H262991   3.337   3.271   2.964
20917WAT      O62992   7.060   3.221   0.533
20917WAT     H162993   7.034   3.134   0.492
20917WAT     H262994   7.004   3.237   0.614
20918WAT      O62995   0.145   3.451   7.691
20918WAT     H162996   0.218   3.392   7.726
20918WAT     H262997   0.150   3.540   7.736
20919WAT      O62998   0.646   0.322   1.867
20919WAT     H162999   0.607   0.393   1.926
20919WAT     H263000   0.634   0.348   1.771
20920WAT      O63001   1.873   2.846   2.211
20920WAT     H163002   1.918   2.935   2.211
20920WAT     H263003   1.799   2.845   2.144
20921WAT      O63004   0.308   3.828   8.069
20921WAT     H163005   0.237   3.761   8.090
20921WAT     H263006   0.395   3.797   8.108
20922WAT      O63007   8.983   9.704   2.253
20922WAT     H163008   8.936   9.793   2.252
20922WAT     H263009   9.082   9.719   2.251
20923WAT      O63010   6.275   8.101   4.370
20923WAT     H163011   6.255   8.198   4.366
20923WAT     H263012   6.340   8.077   4.298
20924WAT      O63013   8.965   8.903   1.690
20924WAT     H163014   8.989   8.969   1.762
20924WAT     H263015   8.914   8.950   1.618
20925WAT      O63016   6.924   5.971   3.378
20925WAT     H163017   6.890   5.979   3.284
20925WAT     H263018   7.019   6.002   3.382
20926WAT      O63019   0.398   4.554   8.224
20926WAT     H163020   0.467   4.586   8.289
20926WAT     H263021   0.320   4.615   8.226
20927WAT      O63022   5.981   5.457   8.622
20927WAT     H163023   5.936   5.543   8.643
20927WAT     H263024   6.046   5.434   8.694
20928WAT      O63025   8.098   7.608   8.892
20928WAT     H163026   8.051   7.696   8.895
20928WAT     H263027   8.063   7.555   8.815
20929WAT      O63028   0.698   8.162   2.500
20929WAT     H163029   0.664   8.163   2.406
20929WAT     H263030   0.776   8.224   2.508
20930WAT      O63031   4.389   3.203   0.467
20930WAT     H163032   4.350   3.291   0.441
20930WAT     H263033   4.445   3.168   0.392
20931WAT      O63034   2.366   4.737   5.086
20931WAT     H163035   2.367   4.725   4.986
20931WAT     H263036   2.457   4.765   5.116
20932WAT      O63037   3.214   7.945   1.802
20932WAT     H163038   3.127   7.934   1.850
20932WAT     H263039   3.250   8.036   1.819
20933WAT      O63040   3.621   6.207   8.734
20933WAT     H163041   3.596   6.123   8.781
20933WAT     H263042   3.714   6.199   8.698
20934WAT      O63043   7.515   5.119   7.515
20934WAT     H163044   7.453   5.151   7.443
20934WAT     H263045   7.591   5.182   7.525
20935WAT      O63046   4.270   5.582   2.418
20935WAT     H163047   4.290   5.614   2.511
20935WAT     H263048   4.349   5.598   2.359
20936WAT      O63049   2.348   5.815   6.840
20936WAT     H163050   2.431   5.844   6.792
20936WAT     H263051   2.268   5.837   6.785
20937WAT      O63052   6.254   0.457   7.767
20937WAT     H163053   6.316   0.457   7.689
20937WAT     H263054   6.178   0.395   7.748
20938WAT      O63055   5.356   1.893   0.966
20938WAT     H163056   5.336   1.924   0.873
20938WAT     H263057   5.383   1.796   0.964
20939WAT      O63058   2.334   1.344   9.522
20939WAT     H163059   2.242   1.326   9.555
20939WAT     H263060   2.332   1.421   9.457
20940WAT      O63061   7.502   8.403   6.431
20940WAT     H163062   7.552   8.332   6.482
20940WAT     H263063   7.496   8.376   6.335
20941WAT      O63064   2.312   7.853   1.693
20941WAT     H163065   2.317   7.935   1.635
20941WAT     H263066   2.230   7.801   1.671
20942WAT      O63067   0.635   7.906   5.324
20942WAT     H163068   0.713   7.855   5.288
20942WAT     H263069   0.619   7.987   5.267
20943WAT      O63070   2.507   6.472   9.691
20943WAT     H163071   2.550   6.559   9.717
20943WAT     H263072   2.483   6.422   9.774
20944WAT      O63073   2.934   9.291   5.433
20944WAT     H163074   2.982   9.357   5.375
20944WAT     H263075   2.974   9.291   5.525
20945WAT      O63076   0.998   7.474   1.156
20945WAT     H163077   0.961   7.386   1.126
20945WAT     H263078   1.084   7.492   1.108
20946WAT      O63079   7.105   2.956   2.362
20946WAT     H163080   7.202   2.979   2.364
20946WAT     H263081   7.051   3.033   2.396
20947WAT      O63082   3.326   8.891   2.765
20947WAT     H163083   3.387   8.945   2.823
20947WAT     H263084   3.296   8.948   2.688
20948WAT      O63085   5.100   3.844   6.557
20948WAT     H163086   5.120   3.746   6.548
20948WAT     H263087   5.084   3.866   6.653
20949WAT      O63088   1.188   0.281   7.440
20949WAT     H163089   1.233   0.363   7.475
20949WAT     H263090   1.098   0.271   7.483
20950WAT      O63091   4.813   1.161   7.023
20950WAT     H163092   4.734   1.153   6.962
20950WAT     H263093   4.809   1.089   7.092
20951WAT      O63094   4.665   9.358   9.134
20951WAT     H163095   4.614   9.416   9.070
20951WAT     H263096   4.762   9.382   9.130
20952WAT      O63097   2.054   8.484   4.251
20952WAT     H163098   2.149   8.476   4.222
20952WAT     H263099   2.015   8.570   4.218
20953WAT      O63100   6.212   2.964   0.643
20953WAT     H163101   6.162   3.029   0.586
20953WAT     H263102   6.147   2.897   0.681
20954WAT      O63103   5.373   3.076   8.836
20954WAT     H163104   5.471   3.078   8.856
20954WAT     H263105   5.322   3.087   8.921
20955WAT      O63106   9.059   7.136   1.370
20955WAT     H163107   9.056   7.158   1.272
20955WAT     H263108   9.143   7.087   1.390
20956WAT      O63109   2.968   0.551   4.372
20956WAT     H163110   3.032   0.601   4.315
20956WAT     H263111   2.963   0.456   4.342
20957WAT      O63112   9.517   3.093   1.376
20957WAT     H163113   9.424   3.128   1.367
20957WAT     H263114   9.569   3.153   1.437
20958WAT      O63115   5.369   7.260   8.307
20958WAT     H163116   5.272   7.279   8.322
20958WAT     H263117   5.378   7.190   8.236
20959WAT      O63118   8.174   4.975   3.304
20959WAT     H163119   8.088   4.932   3.331
20959WAT     H263120   8.164   5.075   3.310
20960WAT      O63121   8.860   6.541   3.205
20960WAT     H163122   8.801   6.585   3.272
20960WAT     H263123   8.807   6.516   3.124
20961WAT      O63124   1.343   4.676   7.722
20961WAT     H163125   1.400   4.682   7.804
20961WAT     H263126   1.255   4.720   7.739
20962WAT      O63127   5.609   9.505   9.618
20962WAT     H163128   5.542   9.509   9.544
20962WAT     H263129   5.567   9.459   9.697
20963WAT      O63130   6.104   1.650   4.268
20963WAT     H163131   6.087   1.744   4.299
20963WAT     H263132   6.126   1.593   4.347
20964WAT      O63133   2.566   3.242   4.101
20964WAT     H163134   2.612   3.211   4.018
20964WAT     H263135   2.526   3.164   4.148
20965WAT      O63136   7.199   1.998   0.420
20965WAT     H163137   7.242   1.982   0.331
20965WAT     H263138   7.211   1.917   0.478
20966WAT      O63139   7.675   8.990   5.852
20966WAT     H163140   7.595   8.949   5.808
20966WAT     H263141   7.758   8.953   5.810
20967WAT      O63142   5.559   7.858   3.236
20967WAT     H163143   5.571   7.759   3.244
20967WAT     H263144   5.594   7.903   3.319
20968WAT      O63145   1.655   8.099   2.076
20968WAT     H163146   1.612   8.141   1.996
20968WAT     H263147   1.682   8.005   2.054
20969WAT      O63148   2.554   5.931   9.102
20969WAT     H163149   2.567   6.028   9.082
20969WAT     H263150   2.457   5.912   9.112
20970WAT      O63151   2.439   7.804   1.919
20970WAT     H163152   2.379   7.822   1.841
20970WAT     H263153   2.408   7.721   1.966
20971WAT      O63154   5.478   5.977   9.324
20971WAT     H163155   5.516   5.899   9.375
20971WAT     H263156   5.550   6.043   9.306
20972WAT      O63157   6.097   3.659   8.137
20972WAT     H163158   6.013   3.624   8.095
20972WAT     H263159   6.116   3.751   8.101
20973WAT      O63160   6.275   8.584   7.138
20973WAT     H163161   6.234   8.612   7.225
20973WAT     H263162   6.330   8.658   7.101
20974WAT      O63163   1.312   6.133   6.713
20974WAT     H163164   1.377   6.059   6.694
20974WAT     H263165   1.307   6.149   6.811
20975WAT      O63166   7.843   2.710   5.310
20975WAT     H163167   7.798   2.713   5.221
20975WAT     H263168   7.774   2.703   5.382
20976WAT      O63169   1.179   8.243   5.138
20976WAT     H163170   1.196   8.239   5.236
20976WAT     H263171   1.122   8.166   5.111
20977WAT      O63172   2.425   2.839   0.048
20977WAT     H163173   2.523   2.829   0.033
20977WAT     H263174   2.376   2.817  -0.037
20978WAT      O63175   9.175   9.521   3.437
20978WAT     H163176   9.126   9.543   3.521
20978WAT     H263177   9.109   9.499   3.364
20979WAT      O63178   7.824   3.045   7.285
20979WAT     H163179   7.892   3.118   7.281
20979WAT     H263180   7.837   2.991   7.368
20980WAT      O63181   0.062   4.058   8.528
20980WAT     H163182  -0.023   4.075   8.478
20980WAT     H263183   0.060   4.106   8.615
20981WAT      O63184   6.146   2.085   2.814
20981WAT     H163185   6.135   2.028   2.896
20981WAT     H263186   6.146   2.181   2.840
20982WAT      O63187   1.350   5.784   1.141
20982WAT     H163188   1.371   5.687   1.127
20982WAT     H263189   1.386   5.837   1.064
20983WAT      O63190   6.631   0.230   8.828
20983WAT     H163191   6.565   0.214   8.755
20983WAT     H263192   6.582   0.245   8.915
20984WAT      O63193   1.439   1.446   8.292
20984WAT     H163194   1.387   1.479   8.371
20984WAT     H263195   1.422   1.506   8.213
20985WAT      O63196   8.903   5.582   0.554
20985WAT     H163197   8.872   5.520   0.483
20985WAT     H263198   8.827   5.641   0.582
20986WAT      O63199   0.694   5.105   6.754
20986WAT     H163200   0.657   5.158   6.831
20986WAT     H263201   0.621   5.053   6.712
20987WAT      O63202   1.133   2.485   9.028
20987WAT     H163203   1.062   2.482   9.099
20987WAT     H263204   1.220   2.513   9.069
20988WAT      O63205   5.853   4.811   0.875
20988WAT     H163206   5.777   4.875   0.864
20988WAT     H263207   5.915   4.845   0.945
20989WAT      O63208   8.009   8.550   8.154
20989WAT     H163209   8.036   8.524   8.247
20989WAT     H263210   7.943   8.484   8.119
20990WAT      O63211   9.806   6.678   2.730
20990WAT     H163212   9.795   6.750   2.799
20990WAT     H263213   9.851   6.717   2.649
20991WAT      O63214   4.195   2.302   6.821
20991WAT     H163215   4.237   2.353   6.896
20991WAT     H263216   4.260   2.235   6.785
20992WAT      O63217   0.311   0.729   9.227
20992WAT     H163218   0.253   0.804   9.195
20992WAT     H263219   0.253   0.652   9.255
20993WAT      O63220   0.248   7.460   0.947
20993WAT     H163221   0.248   7.506   1.036
20993WAT     H263222   0.340   7.424   0.928
20994WAT      O63223   9.780   2.239   4.773
20994WAT     H163224   9.827   2.179   4.708
20994WAT     H263225   9.686   2.254   4.743
20995WAT      O63226   0.164   3.723   4.444
20995WAT     H163227   0.215   3.725   4.530
20995WAT     H263228   0.130   3.630   4.428
20996WAT      O63229   4.888   9.406   3.881
20996WAT     H163230   4.946   9.337   3.924
20996WAT     H263231   4.794   9.394   3.913
20997WAT      O63232   1.500   1.190   8.420
20997WAT     H163233   1.533   1.284   8.415
20997WAT     H263234   1.516   1.144   8.332
20998WAT      O63235   5.727   6.771   7.276
20998WAT     H163236   5.687   6.694   7.327
20998WAT     H263237   5.763   6.738   7.189
20999WAT      O63238   1.753   1.285   1.205
20999WAT     H163239   1.798   1.325   1.125
20999WAT     H263240   1.792   1.324   1.288
21000WAT      O63241   9.595   2.227   8.814
21000WAT     H163242   9.609   2.202   8.719
21000WAT     H263243   9.583   2.144   8.869
21001WAT      O63244   3.175   9.344   3.871
21001WAT     H163245   3.240   9.299   3.932
21001WAT     H263246   3.157   9.286   3.792
21002WAT      O63247   6.754   0.261   4.168
21002WAT     H163248   6.785   0.211   4.249
21002WAT     H263249   6.778   0.357   4.178
21003WAT      O63250   7.271   5.952   3.983
21003WAT     H163251   7.337   5.987   4.050
21003WAT     H263252   7.269   5.852   3.988
21004WAT      O63253   1.684   9.125   6.810
21004WAT     H163254   1.742   9.114   6.890
21004WAT     H263255   1.662   9.222   6.798
21005WAT      O63256   0.118   2.348   7.893
21005WAT     H163257   0.217   2.349   7.905
21005WAT     H263258   0.078   2.275   7.948
21006WAT      O63259   6.188   8.805   6.000
21006WAT     H163260   6.187   8.898   6.036
21006WAT     H263261   6.238   8.804   5.913
21007WAT      O63262   2.982   7.557   2.341
21007WAT     H163263   3.076   7.571   2.372
21007WAT     H263264   2.924   7.630   2.376
21008WAT      O63265   1.978   9.158   4.292
21008WAT     H163266   1.885   9.124   4.309
21008WAT     H263267   1.984   9.191   4.198
21009WAT      O63268   3.090   2.347   1.384
21009WAT     H163269   3.119   2.264   1.431
21009WAT     H263270   3.066   2.327   1.290
21010WAT      O63271   2.665   9.321   1.959
21010WAT     H163272   2.626   9.314   2.051
21010WAT     H263273   2.703   9.233   1.932
21011WAT      O63274   0.731   1.991   2.637
21011WAT     H163275   0.680   1.930   2.698
21011WAT     H263276   0.676   2.012   2.557
21012WAT      O63277   1.252   3.850   4.831
21012WAT     H163278   1.288   3.829   4.922
21012WAT     H263279   1.177   3.916   4.839
21013WAT      O63280   2.935   4.689   1.988
21013WAT     H163281   3.024   4.701   1.944
21013WAT     H263282   2.863   4.717   1.925
21014WAT      O63283   3.271   3.240   4.632
21014WAT     H163284   3.214   3.158   4.638
21014WAT     H263285   3.296   3.269   4.724
21015WAT      O63286   6.743   0.394   7.828
21015WAT     H163287   6.662   0.362   7.878
21015WAT     H263288   6.824   0.385   7.887
21016WAT      O63289   5.288   4.607   6.462
21016WAT     H163290   5.262   4.639   6.554
21016WAT     H263291   5.277   4.681   6.397
21017WAT      O63292   4.152   0.662   0.693
21017WAT     H163293   4.184   0.592   0.757
21017WAT     H263294   4.058   0.687   0.716
21018WAT      O63295   7.961   3.892   7.890
21018WAT     H163296   7.887   3.825   7.876
21018WAT     H263297   8.046   3.843   7.913
21019WAT      O63298   5.681   5.403   5.378
21019WAT     H163299   5.685   5.388   5.279
21019WAT     H263300   5.612   5.343   5.418
21020WAT      O63301   0.991   9.842   4.303
21020WAT     H163302   0.945   9.753   4.305
21020WAT     H263303   1.089   9.829   4.318
21021WAT      O63304   3.558   7.940   5.744
21021WAT     H163305   3.598   8.026   5.714
21021WAT     H263306   3.516   7.953   5.834
21022WAT      O63307   2.014   4.634   1.426
21022WAT     H163308   2.077   4.567   1.467
21022WAT     H263309   2.028   4.723   1.470
21023WAT      O63310   4.900   9.022   1.558
21023WAT     H163311   4.830   8.969   1.606
21023WAT     H263312   4.982   8.966   1.547
21024WAT      O63313   7.267   0.784   3.188
21024WAT     H163314   7.293   0.803   3.093
21024WAT     H263315   7.208   0.704   3.191
21025WAT      O63316   7.562   6.417   2.031
21025WAT     H163317   7.543   6.405   2.128
21025WAT     H263318   7.647   6.369   2.008
21026WAT      O63319   1.379   3.014   2.203
21026WAT     H163320   1.353   2.919   2.188
21026WAT     H263321   1.432   3.047   2.124
21027WAT      O63322   6.834   4.165   4.610
21027WAT     H163323   6.904   4.101   4.640
21027WAT     H263324   6.756   4.114   4.572
21028WAT      O63325   3.376   5.209   9.053
21028WAT     H163326   3.342   5.215   8.959
21028WAT     H263327   3.300   5.222   9.117
21029WAT      O63328   9.309   8.531   8.565
21029WAT     H163329   9.306   8.606   8.632
21029WAT     H263330   9.384   8.546   8.501
21030WAT      O63331   3.923   9.389   8.106
21030WAT     H163332   3.877   9.331   8.173
21030WAT     H263333   4.022   9.388   8.124
21031WAT      O63334   8.532   1.396   9.226
21031WAT     H163335   8.499   1.400   9.131
21031WAT     H263336   8.478   1.328   9.277
21032WAT      O63337   7.229   1.679   6.554
21032WAT     H163338   7.271   1.601   6.507
21032WAT     H263339   7.132   1.682   6.533
21033WAT      O63340   8.535   2.935   7.750
21033WAT     H163341   8.512   3.029   7.723
21033WAT     H263342   8.629   2.931   7.782
21034WAT      O63343   5.484   9.633   0.801
21034WAT     H163344   5.510   9.579   0.721
21034WAT     H263345   5.483   9.574   0.882
21035WAT      O63346   9.830   8.444   1.644
21035WAT     H163347   9.760   8.499   1.690
21035WAT     H263348   9.785   8.372   1.590
21036WAT      O63349   8.305   4.011   3.864
21036WAT     H163350   8.284   3.941   3.933
21036WAT     H263351   8.388   4.060   3.892
21037WAT      O63352   5.379   6.118   1.965
21037WAT     H163353   5.371   6.073   2.054
21037WAT     H263354   5.289   6.148   1.934
21038WAT      O63355   1.641   3.811   8.412
21038WAT     H163356   1.646   3.791   8.315
21038WAT     H263357   1.590   3.739   8.459
21039WAT      O63358   0.125   3.381   2.764
21039WAT     H163359   0.133   3.457   2.829
21039WAT     H263360   0.165   3.408   2.677
21040WAT      O63361   4.432   4.421   7.588
21040WAT     H163362   4.378   4.439   7.506
21040WAT     H263363   4.464   4.508   7.627
21041WAT      O63364   2.203   0.474   2.018
21041WAT     H163365   2.279   0.410   2.021
21041WAT     H263366   2.122   0.428   1.981
21042WAT      O63367   5.755   8.638   5.084
21042WAT     H163368   5.805   8.709   5.134
21042WAT     H263369   5.795   8.548   5.105
21043WAT      O63370   7.952   3.504   6.449
21043WAT     H163371   7.990   3.426   6.499
21043WAT     H263372   7.854   3.490   6.435
21044WAT      O63373   9.012   8.883   8.565
21044WAT     H163374   9.095   8.932   8.589
21044WAT     H263375   9.034   8.789   8.540
21045WAT      O63376   4.318   0.573   2.369
21045WAT     H163377   4.248   0.602   2.434
21045WAT     H263378   4.340   0.477   2.385
21046WAT      O63379   5.503   4.834   8.987
21046WAT     H163380   5.420   4.781   8.968
21046WAT     H263381   5.498   4.922   8.940
21047WAT      O63382   2.139   7.116   2.364
21047WAT     H163383   2.174   7.097   2.272
21047WAT     H263384   2.216   7.132   2.426
21048WAT      O63385   0.398   4.112   6.876
21048WAT     H163386   0.444   4.195   6.907
21048WAT     H263387   0.302   4.133   6.855
21049WAT      O63388   2.428   7.820   3.443
21049WAT     H163389   2.330   7.809   3.458
21049WAT     H263390   2.445   7.843   3.348
21050WAT      O63391   2.960   4.917   5.619
21050WAT     H163392   2.881   4.976   5.600
21050WAT     H263393   3.032   4.971   5.662
21051WAT      O63394   9.621   8.823   0.871
21051WAT     H163395   9.546   8.790   0.814
21051WAT     H263396   9.681   8.882   0.816
21052WAT      O63397   8.758   8.226   8.411
21052WAT     H163398   8.820   8.149   8.427
21052WAT     H263399   8.712   8.215   8.323
21053WAT      O63400   0.875   0.576   8.830
21053WAT     H163401   0.826   0.640   8.771
21053WAT     H263402   0.825   0.565   8.916
21054WAT      O63403   7.360   6.030   0.458
21054WAT     H163404   7.423   5.954   0.474
21054WAT     H263405   7.292   6.004   0.389
21055WAT      O63406   0.163   2.375   3.714
21055WAT     H163407   0.244   2.324   3.686
21055WAT     H263408   0.091   2.364   3.646
21056WAT      O63409   6.307   7.808   8.494
21056WAT     H163410   6.333   7.779   8.586
21056WAT     H263411   6.325   7.734   8.430
21057WAT      O63412   0.379   0.730   8.175
21057WAT     H163413   0.430   0.797   8.228
21057WAT     H263414   0.437   0.695   8.101
21058WAT      O63415   8.639   6.113   2.396
21058WAT     H163416   8.723   6.061   2.377
21058WAT     H263417   8.646   6.155   2.486
21059WAT      O63418   3.111   6.554   9.810
21059WAT     H163419   3.164   6.593   9.885
21059WAT     H263420   3.023   6.601   9.804
21060WAT      O63421   3.002   8.470   2.640
21060WAT     H163422   2.945   8.528   2.582
21060WAT     H263423   3.058   8.527   2.700
21061WAT      O63424   5.801   7.645   8.135
21061WAT     H163425   5.865   7.706   8.183
21061WAT     H263426   5.711   7.654   8.176
21062WAT      O63427   1.003   1.241   6.175
21062WAT     H163428   0.990   1.244   6.274
21062WAT     H263429   0.914   1.230   6.130
21063WAT      O63430   0.503   8.222   7.812
21063WAT     H163431   0.438   8.170   7.867
21063WAT     H263432   0.455   8.293   7.761
21064WAT      O63433   6.922   6.117   7.258
21064WAT     H163434   6.849   6.050   7.248
21064WAT     H263435   6.886   6.209   7.240
21065WAT      O63436   5.104   4.119   8.566
21065WAT     H163437   5.112   4.128   8.467
21065WAT     H263438   5.130   4.026   8.593
21066WAT      O63439   2.776   6.150   3.199
21066WAT     H163440   2.741   6.108   3.282
21066WAT     H263441   2.835   6.228   3.223
21067WAT      O63442   9.737   3.571   4.333
21067WAT     H163443   9.825   3.524   4.337
21067WAT     H263444   9.670   3.512   4.286
21068WAT      O63445   4.401   6.440   7.868
21068WAT     H163446   4.363   6.409   7.955
21068WAT     H263447   4.438   6.533   7.878
21069WAT      O63448   9.290   2.619   8.574
21069WAT     H163449   9.359   2.666   8.520
21069WAT     H263450   9.243   2.686   8.632
21070WAT      O63451   9.449   7.481   4.642
21070WAT     H163452   9.402   7.488   4.555
21070WAT     H263453   9.492   7.391   4.649
21071WAT      O63454   6.234   7.562   2.202
21071WAT     H163455   6.310   7.500   2.183
21071WAT     H263456   6.149   7.510   2.202
21072WAT      O63457   7.234   2.526   3.184
21072WAT     H163458   7.175   2.539   3.264
21072WAT     H263459   7.180   2.532   3.101
21073WAT      O63460   7.020   5.897   0.202
21073WAT     H163461   7.077   5.832   0.151
21073WAT     H263462   7.070   5.983   0.211
21074WAT      O63463   9.209   9.688   7.399
21074WAT     H163464   9.256   9.773   7.422
21074WAT     H263465   9.255   9.644   7.322
21075WAT      O63466   5.766   6.585   9.797
21075WAT     H163467   5.723   6.512   9.850
21075WAT     H263468   5.718   6.595   9.710
21076WAT      O63469   1.498   8.271   0.182
21076WAT     H163470   1.482   8.252   0.085
21076WAT     H263471   1.555   8.353   0.191
21077WAT      O63472   7.167   3.852   1.305
21077WAT     H163473   7.084   3.883   1.352
21077WAT     H263474   7.209   3.779   1.358
21078WAT      O63475   8.181   1.219   8.002
21078WAT     H163476   8.253   1.227   8.071
21078WAT     H263477   8.101   1.271   8.033
21079WAT      O63478   3.955   3.639   8.511
21079WAT     H163479   3.902   3.579   8.451
21079WAT     H263480   3.925   3.734   8.497
21080WAT      O63481   0.017   2.824   1.891
21080WAT     H163482  -0.063   2.778   1.928
21080WAT     H263483   0.094   2.816   1.955
21081WAT      O63484   0.057   2.985   6.389
21081WAT     H163485   0.052   2.936   6.476
21081WAT     H263486   0.027   2.924   6.315
21082WAT      O63487   7.005   5.456   3.626
21082WAT     H163488   7.059   5.467   3.543
21082WAT     H263489   6.929   5.393   3.609
21083WAT      O63490   9.753   3.704   4.580
21083WAT     H163491   9.678   3.769   4.587
21083WAT     H263492   9.741   3.647   4.499
21084WAT      O63493   7.036   5.408   4.074
21084WAT     H163494   7.113   5.416   4.011
21084WAT     H263495   6.976   5.488   4.063
21085WAT      O63496   5.747   1.664   0.186
21085WAT     H163497   5.808   1.602   0.235
21085WAT     H263498   5.707   1.729   0.250
21086WAT      O63499   1.938   0.027   8.091
21086WAT     H163500   1.871   0.094   8.123
21086WAT     H263501   1.939   0.026   7.991
21087WAT      O63502   7.345   8.569   2.609
21087WAT     H163503   7.352   8.653   2.663
21087WAT     H263504   7.270   8.577   2.543
21088WAT      O63505   9.002   5.612   1.264
21088WAT     H163506   8.951   5.653   1.339
21088WAT     H263507   8.974   5.653   1.178
21089WAT      O63508   9.845   1.034   3.062
21089WAT     H163509   9.753   1.071   3.048
21089WAT     H263510   9.860   0.957   3.000
21090WAT      O63511   4.610   0.420   6.143
21090WAT     H163512   4.545   0.411   6.218
21090WAT     H263513   4.577   0.489   6.078
21091WAT      O63514   4.341   2.078   5.651
21091WAT     H163515   4.347   2.167   5.605
21091WAT     H263516   4.433   2.041   5.663
21092WAT      O63517   1.243   4.863   5.677
21092WAT     H163518   1.334   4.882   5.716
21092WAT     H263519   1.204   4.947   5.641
21093WAT      O63520   9.188   4.238   2.990
21093WAT     H163521   9.233   4.323   2.965
21093WAT     H263522   9.199   4.171   2.916
21094WAT      O63523   6.279   0.906   6.239
21094WAT     H163524   6.353   0.839   6.228
21094WAT     H263525   6.191   0.859   6.230
21095WAT      O63526   0.664   8.748   8.849
21095WAT     H163527   0.653   8.833   8.797
21095WAT     H263528   0.650   8.768   8.947
21096WAT      O63529   7.387   3.044   8.311
21096WAT     H163530   7.346   3.048   8.402
21096WAT     H263531   7.341   3.111   8.252
21097WAT      O63532   7.494   6.033   1.793
21097WAT     H163533   7.569   6.098   1.803
21097WAT     H263534   7.530   5.942   1.778
21098WAT      O63535   0.643   8.884   3.312
21098WAT     H163536   0.670   8.958   3.373
21098WAT     H263537   0.649   8.796   3.360
21099WAT      O63538   8.873   4.878   5.869
21099WAT     H163539   8.874   4.797   5.927
21099WAT     H263540   8.789   4.930   5.886
21100WAT      O63541   4.894   7.882   0.693
21100WAT     H163542   4.988   7.906   0.669
21100WAT     H263543   4.876   7.907   0.788
21101WAT      O63544   4.083   6.317   0.328
21101WAT     H163545   4.082   6.218   0.346
21101WAT     H263546   4.091   6.366   0.415
21102WAT      O63547   3.279   1.694   7.704
21102WAT     H163548   3.184   1.677   7.680
21102WAT     H263549   3.313   1.621   7.763
21103WAT      O63550   0.439   8.341   1.388
21103WAT     H163551   0.522   8.377   1.431
21103WAT     H263552   0.367   8.411   1.393
21104WAT      O63553   5.436   0.518   2.376
21104WAT     H163554   5.388   0.443   2.331
21104WAT     H263555   5.371   0.574   2.427
21105WAT      O63556   6.520   7.106   9.197
21105WAT     H163557   6.535   7.139   9.291
21105WAT     H263558   6.444   7.156   9.156
21106WAT      O63559   4.340   0.692   8.917
21106WAT     H163560   4.291   0.738   8.990
21106WAT     H263561   4.293   0.607   8.893
21107WAT      O63562   6.597   4.876   0.284
21107WAT     H163563   6.632   4.969   0.292
21107WAT     H263564   6.497   4.878   0.281
21108WAT      O63565   9.549   4.536   7.777
21108WAT     H163566   9.603   4.476   7.837
21108WAT     H263567   9.453   4.507   7.779
21109WAT      O63568   7.330   5.736   9.750
21109WAT     H163569   7.305   5.831   9.737
21109WAT     H263570   7.253   5.686   9.790
21110WAT      O63571   9.635   4.017   3.436
21110WAT     H163572   9.616   3.978   3.346
21110WAT     H263573   9.552   4.014   3.492
21111WAT      O63574   3.344   0.617   6.199
21111WAT     H163575   3.434   0.639   6.163
21111WAT     H263576   3.273   0.649   6.136
21112WAT      O63577   8.891   5.841   8.741
21112WAT     H163578   8.829   5.767   8.717
21112WAT     H263579   8.986   5.809   8.736
21113WAT      O63580   9.557   5.861   7.738
21113WAT     H163581   9.541   5.764   7.757
21113WAT     H263582   9.474   5.913   7.757
21114WAT      O63583   8.115   2.508   8.596
21114WAT     H163584   8.094   2.412   8.614
21114WAT     H263585   8.213   2.519   8.580
21115WAT      O63586   8.170   5.139   4.421
21115WAT     H163587   8.160   5.067   4.353
21115WAT     H263588   8.253   5.124   4.474
21116WAT      O63589   3.305   0.308   6.831
21116WAT     H163590   3.339   0.247   6.902
21116WAT     H263591   3.244   0.258   6.770
21117WAT      O63592   4.842   9.426   1.171
21117WAT     H163593   4.787   9.505   1.145
21117WAT     H263594   4.792   9.342   1.149
21118WAT      O63595   2.809   0.826   6.304
21118WAT     H163596   2.741   0.899   6.299
21118WAT     H263597   2.794   0.761   6.229
21119WAT      O63598   9.667   2.561   5.014
21119WAT     H163599   9.737   2.545   5.082
21119WAT     H263600   9.581   2.517   5.042
21120WAT      O63601   8.995   7.676   6.704
21120WAT     H163602   9.003   7.583   6.740
21120WAT     H263603   9.083   7.723   6.716
21121WAT      O63604   5.868   9.453   2.153
21121WAT     H163605   5.940   9.489   2.094
21121WAT     H263606   5.853   9.357   2.133
21122WAT      O63607   9.848   4.457   7.658
21122WAT     H163608   9.890   4.408   7.582
21122WAT     H263609   9.757   4.419   7.677
21123WAT      O63610   1.585   7.307   2.303
21123WAT     H163611   1.500   7.325   2.253
21123WAT     H263612   1.657   7.367   2.269
21124WAT      O63613   6.377   2.177   7.856
21124WAT     H163614   6.286   2.212   7.832
21124WAT     H263615   6.447   2.225   7.803
21125WAT      O63616   2.297   6.318   3.759
21125WAT     H163617   2.257   6.281   3.843
21125WAT     H263618   2.304   6.246   3.691
21126WAT      O63619   6.508   7.091   7.059
21126WAT     H163620   6.579   7.048   7.002
21126WAT     H263621   6.551   7.141   7.134
21127WAT      O63622   4.291   6.998   8.485
21127WAT     H163623   4.325   6.912   8.522
21127WAT     H263624   4.324   7.074   8.542
21128WAT      O63625   3.166   0.057   7.355
21128WAT     H163626   3.232  -0.008   7.393
21128WAT     H263627   3.213   0.141   7.330
21129WAT      O63628   5.733   0.848   9.612
21129WAT     H163629   5.655   0.833   9.673
21129WAT     H263630   5.778   0.934   9.636
21130WAT      O63631   5.689   7.317   8.974
21130WAT     H163632   5.775   7.294   8.928
21130WAT     H263633   5.635   7.234   8.988
21131WAT      O63634   6.354   4.140   6.340
21131WAT     H163635   6.300   4.058   6.360
21131WAT     H263636   6.364   4.150   6.241
21132WAT      O63637   6.504   1.001   5.730
21132WAT     H163638   6.518   0.907   5.761
21132WAT     H263639   6.485   1.060   5.808
21133WAT      O63640   4.941   9.557   2.089
21133WAT     H163641   5.023   9.580   2.141
21133WAT     H263642   4.900   9.640   2.052
21134WAT      O63643   8.462   1.912   3.874
21134WAT     H163644   8.484   1.816   3.856
21134WAT     H263645   8.526   1.948   3.943
21135WAT      O63646   0.030   9.020   0.357
21135WAT     H163647   0.105   9.070   0.401
21135WAT     H263648   0.028   9.042   0.259
21136WAT      O63649   0.986   6.039   5.842
21136WAT     H163650   0.928   6.023   5.762
21136WAT     H263651   1.061   6.100   5.817
21137WAT      O63652   2.374   1.002   9.636
21137WAT     H163653   2.461   0.987   9.588
21137WAT     H263654   2.359   1.100   9.648
21138WAT      O63655   9.853   0.020   6.548
21138WAT     H163656   9.839   0.069   6.461
21138WAT     H263657   9.779  -0.046   6.561
21139WAT      O63658   0.802   5.049   7.855
21139WAT     H163659   0.721   4.990   7.850
21139WAT     H263660   0.825   5.082   7.763
21140WAT      O63661   2.738   9.167   9.037
21140WAT     H163662   2.694   9.190   9.123
21140WAT     H263663   2.829   9.129   9.055
21141WAT      O63664   8.604   1.100   5.230
21141WAT     H163665   8.691   1.095   5.180
21141WAT     H263666   8.567   1.008   5.242
21142WAT      O63667   6.729   1.730   8.400
21142WAT     H163668   6.806   1.693   8.348
21142WAT     H263669   6.755   1.741   8.496
21143WAT      O63670   4.666   7.138   3.192
21143WAT     H163671   4.765   7.136   3.181
21143WAT     H263672   4.639   7.222   3.238
21144WAT      O63673   7.301   1.127   1.322
21144WAT     H163674   7.338   1.171   1.403
21144WAT     H263675   7.314   1.028   1.330
21145WAT      O63676   5.813   0.263   3.363
21145WAT     H163677   5.874   0.191   3.329
21145WAT     H263678   5.727   0.261   3.311
21146WAT      O63679   7.423   1.502   5.395
21146WAT     H163680   7.329   1.474   5.412
21146WAT     H263681   7.444   1.585   5.447
21147WAT      O63682   6.113   2.713   4.036
21147WAT     H163683   6.138   2.639   4.098
21147WAT     H263684   6.137   2.687   3.942
21148WAT      O63685   0.628   7.611   4.439
21148WAT     H163686   0.595   7.613   4.534
21148WAT     H263687   0.723   7.643   4.436
21149WAT      O63688   1.529   1.094   2.649
21149WAT     H163689   1.611   1.042   2.627
21149WAT     H263690   1.544   1.145   2.734
21150WAT      O63691   5.162   9.107   8.072
21150WAT     H163692   5.236   9.053   8.032
21150WAT     H263693   5.195   9.200   8.089
21151WAT      O63694   7.866   9.369   1.924
21151WAT     H163695   7.851   9.314   1.842
21151WAT     H263696   7.832   9.462   1.908
21152WAT      O63697   9.191   9.024   2.767
21152WAT     H163698   9.211   8.943   2.822
21152WAT     H263699   9.094   9.049   2.778
21153WAT      O63700   2.835   1.336   4.617
21153WAT     H163701   2.762   1.299   4.675
21153WAT     H263702   2.810   1.324   4.521
21154WAT      O63703   8.353   6.177   9.307
21154WAT     H163704   8.288   6.148   9.378
21154WAT     H263705   8.321   6.262   9.266
21155WAT      O63706   2.378   4.972   4.862
21155WAT     H163707   2.443   4.957   4.787
21155WAT     H263708   2.426   5.013   4.939
21156WAT      O63709   4.217   1.845   7.519
21156WAT     H163710   4.250   1.858   7.426
21156WAT     H263711   4.215   1.747   7.540
21157WAT      O63712   5.478   5.069   7.895
21157WAT     H163713   5.445   5.131   7.825
21157WAT     H263714   5.422   5.079   7.978
21158WAT      O63715   1.019   2.658   4.529
21158WAT     H163716   0.970   2.728   4.476
21158WAT     H263717   1.116   2.679   4.529
21159WAT      O63718   6.834   8.645   4.431
21159WAT     H163719   6.890   8.637   4.514
21159WAT     H263720   6.893   8.666   4.353
21160WAT      O63721   7.090   5.895   9.009
21160WAT     H163722   7.111   5.818   9.069
21160WAT     H263723   7.125   5.876   8.917
21161WAT      O63724   4.266   1.063   8.292
21161WAT     H163725   4.293   0.983   8.346
21161WAT     H263726   4.298   1.051   8.198
21162WAT      O63727   3.163   3.464   9.001
21162WAT     H163728   3.099   3.472   8.925
21162WAT     H263729   3.151   3.540   9.064
21163WAT      O63730   1.957   9.253   0.807
21163WAT     H163731   1.963   9.308   0.723
21163WAT     H263732   1.883   9.186   0.798
21164WAT      O63733   5.910   6.761   7.493
21164WAT     H163734   5.844   6.754   7.418
21164WAT     H263735   5.958   6.674   7.504
21165WAT      O63736   3.803   9.004   1.000
21165WAT     H163737   3.884   9.058   1.024
21165WAT     H263738   3.831   8.909   0.983
21166WAT      O63739   4.923   8.071   2.420
21166WAT     H163740   5.003   8.078   2.479
21166WAT     H263741   4.937   8.129   2.339
21167WAT      O63742   1.289   7.733   7.872
21167WAT     H163743   1.344   7.804   7.917
21167WAT     H263744   1.197   7.768   7.857
21168WAT      O63745   8.441   2.562   6.175
21168WAT     H163746   8.406   2.587   6.265
21168WAT     H263747   8.441   2.643   6.116
21169WAT      O63748   0.915   1.986   8.923
21169WAT     H163749   0.935   1.891   8.946
21169WAT     H263750   0.861   1.990   8.839
21170WAT      O63751   0.120   2.678   0.039
21170WAT     H163752   0.105   2.664   0.137
21170WAT     H263753   0.043   2.730   0.001
21171WAT      O63754   7.762   8.764   3.502
21171WAT     H163755   7.665   8.780   3.521
21171WAT     H263756   7.817   8.830   3.553
21172WAT      O63757   0.557   5.981   0.095
21172WAT     H163758   0.518   6.072   0.110
21172WAT     H263759   0.492   5.912   0.127
21173WAT      O63760   0.803   2.961   0.530
21173WAT     H163761   0.758   2.971   0.442
21173WAT     H263762   0.902   2.954   0.516
21174WAT      O63763   4.559   7.685   5.262
21174WAT     H163764   4.579   7.618   5.333
21174WAT     H263765   4.559   7.639   5.173
21175WAT      O63766   4.054   2.003   1.728
21175WAT     H163767   4.040   1.922   1.785
21175WAT     H263768   4.020   2.084   1.776
21176WAT      O63769   1.280   0.108   5.826
21176WAT     H163770   1.188   0.080   5.800
21176WAT     H263771   1.347   0.050   5.780
21177WAT      O63772   2.300   4.034   2.668
21177WAT     H163773   2.292   4.121   2.715
21177WAT     H263774   2.392   3.997   2.682
21178WAT      O63775   1.392   2.137   8.155
21178WAT     H163776   1.357   2.071   8.221
21178WAT     H263777   1.485   2.113   8.130
21179WAT      O63778   5.870   2.875   5.678
21179WAT     H163779   5.845   2.969   5.698
21179WAT     H263780   5.945   2.847   5.738
21180WAT      O63781   9.656   5.201   9.269
21180WAT     H163782   9.746   5.184   9.310
21180WAT     H263783   9.668   5.250   9.183
21181WAT      O63784   1.033   1.414   4.220
21181WAT     H163785   1.054   1.322   4.251
21181WAT     H263786   0.968   1.410   4.144
21182WAT      O63787   5.330   7.585   5.026
21182WAT     H163788   5.267   7.513   4.996
21182WAT     H263789   5.319   7.601   5.124
21183WAT      O63790   3.261   7.903   4.082
21183WAT     H163791   3.203   7.910   4.164
21183WAT     H263792   3.283   7.994   4.049
21184WAT      O63793   2.169   7.892   4.963
21184WAT     H163794   2.087   7.838   4.983
21184WAT     H263795   2.215   7.915   5.049
21185WAT      O63796   3.144   7.767   5.177
21185WAT     H163797   3.200   7.784   5.258
21185WAT     H263798   3.159   7.673   5.145
21186WAT      O63799   9.611   2.619   2.981
21186WAT     H163800   9.696   2.579   3.016
21186WAT     H263801   9.630   2.669   2.897
21187WAT      O63802   5.674   2.269   7.897
21187WAT     H163803   5.629   2.180   7.899
21187WAT     H263804   5.605   2.341   7.887
21188WAT      O63805   5.710   8.260   6.242
21188WAT     H163806   5.758   8.274   6.328
21188WAT     H263807   5.709   8.163   6.220
21189WAT      O63808   5.903   0.477   4.658
21189WAT     H163809   5.894   0.377   4.656
21189WAT     H263810   5.913   0.511   4.565
21190WAT      O63811   3.813   6.899   5.683
21190WAT     H163812   3.731   6.875   5.630
21190WAT     H263813   3.811   6.850   5.771
21191WAT      O63814   8.577   6.708   2.187
21191WAT     H163815   8.622   6.620   2.170
21191WAT     H263816   8.642   6.782   2.171
21192WAT      O63817   2.689   3.698   3.646
21192WAT     H163818   2.772   3.716   3.594
21192WAT     H263819   2.616   3.671   3.584
21193WAT      O63820   8.085   9.374   7.748
21193WAT     H163821   8.042   9.288   7.718
21193WAT     H263822   8.062   9.447   7.684
21194WAT      O63823   6.438   7.356   2.358
21194WAT     H163824   6.466   7.451   2.368
21194WAT     H263825   6.500   7.297   2.410
21195WAT      O63826   5.031   3.904   5.685
21195WAT     H163827   4.994   3.966   5.754
21195WAT     H263828   5.003   3.935   5.594
21196WAT      O63829   7.949   5.169   9.356
21196WAT     H163830   7.974   5.078   9.323
21196WAT     H263831   7.859   5.194   9.320
21197WAT      O63832   3.796   7.693   5.404
21197WAT     H163833   3.760   7.607   5.368
21197WAT     H263834   3.742   7.721   5.484
21198WAT      O63835   3.390   6.224   4.250
21198WAT     H163836   3.416   6.262   4.161
21198WAT     H263837   3.324   6.150   4.237
21199WAT      O63838   9.292   3.210   9.826
21199WAT     H163839   9.360   3.206   9.899
21199WAT     H263840   9.208   3.164   9.855
21200WAT      O63841   0.255   9.486   7.923
21200WAT     H163842   0.296   9.532   7.844
21200WAT     H263843   0.260   9.547   8.003
21201WAT      O63844   3.905   0.898   6.340
21201WAT     H163845   3.815   0.911   6.381
21201WAT     H263846   3.971   0.960   6.381
21202WAT      O63847   9.275   8.648   7.909
21202WAT     H163848   9.273   8.707   7.828
21202WAT     H263849   9.187   8.602   7.919
21203WAT      O63850   1.279   2.767   9.157
21203WAT     H163851   1.332   2.850   9.142
21203WAT     H263852   1.339   2.687   9.148
21204WAT      O63853   8.871   1.746   9.442
21204WAT     H163854   8.861   1.736   9.343
21204WAT     H263855   8.891   1.657   9.483
21205WAT      O63856   5.338   8.057   9.563
21205WAT     H163857   5.387   8.107   9.491
21205WAT     H263858   5.392   8.059   9.647
21206WAT      O63859   7.975   8.004   8.022
21206WAT     H163860   7.930   8.060   7.953
21206WAT     H263861   7.939   7.911   8.019
21207WAT      O63862   4.047   8.919   1.413
21207WAT     H163863   4.025   8.821   1.414
21207WAT     H263864   4.011   8.963   1.495
21208WAT      O63865   7.685   0.042   6.733
21208WAT     H163866   7.656   0.118   6.674
21208WAT     H263867   7.638   0.048   6.821
21209WAT      O63868   7.772   2.410   3.300
21209WAT     H163869   7.673   2.405   3.288
21209WAT     H263870   7.814   2.324   3.271
21210WAT      O63871   0.342   3.803   3.155
21210WAT     H163872   0.418   3.865   3.172
21210WAT     H263873   0.376   3.718   3.116
21211WAT      O63874   5.340   2.715   7.376
21211WAT     H163875   5.356   2.645   7.445
21211WAT     H263876   5.243   2.721   7.356
21212WAT      O63877   9.604   2.645   6.566
21212WAT     H163878   9.654   2.581   6.624
21212WAT     H263879   9.623   2.624   6.470
21213WAT      O63880   2.958   1.071   1.765
21213WAT     H163881   2.926   1.015   1.842
21213WAT     H263882   3.022   1.140   1.798
21214WAT      O63883   7.210   4.532   3.389
21214WAT     H163884   7.231   4.435   3.376
21214WAT     H263885   7.268   4.587   3.328
21215WAT      O63886   3.505   1.256   8.491
21215WAT     H163887   3.449   1.201   8.552
21215WAT     H263888   3.559   1.321   8.545
21216WAT      O63889   8.356   9.755   1.468
21216WAT     H163890   8.374   9.744   1.371
21216WAT     H263891   8.290   9.828   1.483
21217WAT      O63892   9.614   4.439   9.381
21217WAT     H163893   9.644   4.478   9.468
21217WAT     H263894   9.603   4.340   9.391
21218WAT      O63895   7.287   2.706   5.887
21218WAT     H163896   7.233   2.717   5.970
21218WAT     H263897   7.384   2.705   5.910
21219WAT      O63898   1.749   7.530   5.501
21219WAT     H163899   1.814   7.465   5.541
21219WAT     H263900   1.794   7.581   5.427
21220WAT      O63901   3.515   7.816   8.207
21220WAT     H163902   3.577   7.884   8.168
21220WAT     H263903   3.531   7.727   8.163
21221WAT      O63904   8.669   5.954   6.071
21221WAT     H163905   8.619   6.026   6.119
21221WAT     H263906   8.762   5.986   6.050
21222WAT      O63907   8.147   6.430   6.961
21222WAT     H163908   8.182   6.457   6.871
21222WAT     H263909   8.183   6.339   6.984
21223WAT      O63910   5.300   1.708   6.185
21223WAT     H163911   5.321   1.773   6.257
21223WAT     H263912   5.212   1.665   6.204
21224WAT      O63913   1.384   7.803   9.841
21224WAT     H163914   1.295   7.840   9.815
21224WAT     H263915   1.413   7.843   9.928
21225WAT      O63916   4.266   6.476   4.322
21225WAT     H163917   4.222   6.539   4.257
21225WAT     H263918   4.230   6.492   4.413
21226WAT      O63919   6.616   4.195   5.040
21226WAT     H163920   6.583   4.155   5.126
21226WAT     H263921   6.546   4.256   5.002
21227WAT      O63922   5.752   4.170   6.300
21227WAT     H163923   5.792   4.240   6.359
21227WAT     H263924   5.654   4.187   6.288
21228WAT      O63925   4.975   1.465   2.955
21228WAT     H163926   5.038   1.475   2.879
21228WAT     H263927   4.882   1.453   2.920
21229WAT      O63928   0.287   3.245   6.106
21229WAT     H163929   0.320   3.337   6.084
21229WAT     H263930   0.359   3.179   6.086
21230WAT      O63931   6.368   5.837   8.857
21230WAT     H163932   6.390   5.868   8.949
21230WAT     H263933   6.290   5.888   8.822
21231WAT      O63934   5.389   1.589   0.976
21231WAT     H163935   5.393   1.525   1.053
21231WAT     H263936   5.293   1.609   0.954
21232WAT      O63937   8.082   4.274   1.837
21232WAT     H163938   8.110   4.193   1.785
21232WAT     H263939   8.161   4.335   1.850
21233WAT      O63940   8.839   2.276   9.065
21233WAT     H163941   8.809   2.364   9.101
21233WAT     H263942   8.885   2.224   9.138
21234WAT      O63943   3.374   5.141   7.686
21234WAT     H163944   3.401   5.140   7.590
21234WAT     H263945   3.318   5.221   7.704
21235WAT      O63946   3.098   3.021   4.750
21235WAT     H163947   3.030   3.044   4.820
21235WAT     H263948   3.058   2.957   4.685
21236WAT      O63949   3.702   5.460   8.669
21236WAT     H163950   3.622   5.401   8.673
21236WAT     H263951   3.756   5.448   8.753
21237WAT      O63952   4.636   1.003   9.012
21237WAT     H163953   4.580   0.964   8.938
21237WAT     H263954   4.722   0.953   9.019
21238WAT      O63955   7.842   2.110   3.306
21238WAT     H163956   7.794   2.083   3.222
21238WAT     H263957   7.931   2.148   3.282
21239WAT      O63958   6.748   0.400   2.011
21239WAT     H163959   6.752   0.467   1.937
21239WAT     H263960   6.697   0.438   2.088
21240WAT      O63961   1.842   9.295   1.336
21240WAT     H163962   1.857   9.287   1.435
21240WAT     H263963   1.919   9.256   1.287
21241WAT      O63964   1.151   3.722   9.573
21241WAT     H163965   1.163   3.654   9.645
21241WAT     H263966   1.240   3.760   9.548
21242WAT      O63967   7.301   7.996   3.177
21242WAT     H163968   7.251   8.048   3.246
21242WAT     H263969   7.399   7.998   3.199
21243WAT      O63970   3.845   6.577   9.838
21243WAT     H163971   3.768   6.515   9.823
21243WAT     H263972   3.902   6.542   9.912
21244WAT      O63973   2.319   6.158   4.261
21244WAT     H163974   2.368   6.079   4.297
21244WAT     H263975   2.329   6.235   4.324
21245WAT      O63976   4.117   4.390   6.815
21245WAT     H163977   4.157   4.311   6.769
21245WAT     H263978   4.033   4.362   6.862
21246WAT      O63979   8.981   1.580   4.322
21246WAT     H163980   9.072   1.592   4.362
21246WAT     H263981   8.911   1.602   4.390
21247WAT      O63982   0.879   5.729   5.365
21247WAT     H163983   0.875   5.808   5.303
21247WAT     H263984   0.786   5.696   5.381
21248WAT      O63985   2.401   0.260   2.029
21248WAT     H163986   2.324   0.223   1.977
21248WAT     H263987   2.477   0.278   1.966
21249WAT      O63988   7.994   0.597   0.458
21249WAT     H163989   8.065   0.598   0.388
21249WAT     H263990   8.024   0.543   0.536
21250WAT      O63991   4.455   4.972   6.131
21250WAT     H163992   4.495   4.984   6.222
21250WAT     H263993   4.525   4.938   6.068
21251WAT      O63994   0.688   9.082   4.029
21251WAT     H163995   0.675   8.990   3.992
21251WAT     H263996   0.620   9.099   4.101
21252WAT      O63997   8.679   4.375   9.306
21252WAT     H163998   8.590   4.395   9.347
21252WAT     H263999   8.747   4.439   9.343
21253WAT      O64000   6.555   6.892   8.429
21253WAT     H164001   6.595   6.826   8.492
21253WAT     H264002   6.623   6.920   8.362
21254WAT      O64003   8.627   8.610   4.854
21254WAT     H164004   8.542   8.573   4.890
21254WAT     H264005   8.691   8.625   4.930
21255WAT      O64006   1.887   2.322   9.004
21255WAT     H164007   1.963   2.359   8.951
21255WAT     H264008   1.907   2.228   9.031
21256WAT      O64009   7.301   4.389   8.002
21256WAT     H164010   7.201   4.397   7.999
21256WAT     H264011   7.326   4.306   8.052
21257WAT      O64012   5.202   5.674   0.840
21257WAT     H164013   5.248   5.601   0.790
21257WAT     H264014   5.117   5.698   0.792
21258WAT      O64015   0.536   0.085   1.362
21258WAT     H164016   0.508   0.165   1.309
21258WAT     H264017   0.634   0.071   1.352
21259WAT      O64018   0.095   4.584   3.812
21259WAT     H164019   0.191   4.557   3.812
21259WAT     H264020   0.079   4.650   3.740
21260WAT      O64021   5.899   4.841   6.973
21260WAT     H164022   5.990   4.817   7.009
21260WAT     H264023   5.845   4.883   7.046
21261WAT      O64024   8.298   4.686   1.460
21261WAT     H164025   8.308   4.721   1.553
21261WAT     H264026   8.232   4.611   1.460
21262WAT      O64027   6.187   4.773   5.908
21262WAT     H164028   6.125   4.771   5.986
21262WAT     H264029   6.186   4.683   5.864
21263WAT      O64030   4.376   1.679   8.710
21263WAT     H164031   4.429   1.608   8.662
21263WAT     H264032   4.280   1.671   8.683
21264WAT      O64033   1.021   4.496   2.222
21264WAT     H164034   1.116   4.513   2.195
21264WAT     H264035   0.968   4.579   2.211
21265WAT      O64036   8.293   1.818   0.953
21265WAT     H164037   8.314   1.751   0.882
21265WAT     H264038   8.197   1.844   0.948
21266WAT      O64039   2.687   9.636   4.773
21266WAT     H164040   2.609   9.597   4.822
21266WAT     H264041   2.740   9.562   4.732
21267WAT      O64042   5.649   2.535   2.506
21267WAT     H164043   5.567   2.586   2.480
21267WAT     H264044   5.728   2.597   2.503
21268WAT      O64045   8.647   4.049   1.283
21268WAT     H164046   8.679   4.140   1.260
21268WAT     H264047   8.654   4.036   1.382
21269WAT      O64048   1.398   3.586   8.800
21269WAT     H164049   1.377   3.682   8.819
21269WAT     H264050   1.337   3.527   8.853
21270WAT      O64051   7.884   9.325   1.305
21270WAT     H164052   7.939   9.369   1.376
21270WAT     H264053   7.788   9.325   1.332
21271WAT      O64054   2.686   1.614   2.263
21271WAT     H164055   2.710   1.708   2.239
21271WAT     H264056   2.715   1.596   2.357
21272WAT      O64057   2.486   5.599   0.908
21272WAT     H164058   2.532   5.636   0.827
21272WAT     H264059   2.499   5.500   0.912
21273WAT      O64060   4.815   7.801   5.248
21273WAT     H164061   4.822   7.898   5.269
21273WAT     H264062   4.720   7.772   5.255
21274WAT      O64063   1.252   9.034   9.080
21274WAT     H164064   1.165   8.989   9.103
21274WAT     H264065   1.322   9.006   9.146
21275WAT      O64066   9.328   1.057   6.113
21275WAT     H164067   9.244   1.092   6.154
21275WAT     H264068   9.327   0.957   6.114
21276WAT      O64069   1.463   0.609   0.042
21276WAT     H164070   1.406   0.669  -0.013
21276WAT     H264071   1.558   0.640   0.038
21277WAT      O64072   3.945   1.452   4.113
21277WAT     H164073   3.992   1.387   4.053
21277WAT     H264074   3.854   1.473   4.075
21278WAT      O64075   9.390   9.230   3.808
21278WAT     H164076   9.345   9.291   3.744
21278WAT     H264077   9.360   9.250   3.901
21279WAT      O64078   4.549   6.255   2.245
21279WAT     H164079   4.509   6.169   2.276
21279WAT     H264080   4.592   6.241   2.156
21280WAT      O64081   0.061   9.304   6.222
21280WAT     H164082   0.139   9.316   6.160
21280WAT     H264083   0.094   9.295   6.316
21281WAT      O64084   8.306   6.076   0.308
21281WAT     H164085   8.290   6.066   0.406
21281WAT     H264086   8.239   6.140   0.270
21282WAT      O64087   4.587   4.655   2.541
21282WAT     H164088   4.499   4.615   2.516
21282WAT     H264089   4.620   4.712   2.466
21283WAT      O64090   6.538   7.640   2.267
21283WAT     H164091   6.623   7.644   2.216
21283WAT     H264092   6.468   7.696   2.222
21284WAT      O64093   6.383   7.691   8.205
21284WAT     H164094   6.373   7.596   8.174
21284WAT     H264095   6.327   7.751   8.147
21285WAT      O64096   4.621   5.402   7.899
21285WAT     H164097   4.653   5.467   7.968
21285WAT     H264098   4.659   5.311   7.919
21286WAT      O64099   4.275   4.823   9.291
21286WAT     H164100   4.194   4.847   9.237
21286WAT     H264101   4.251   4.822   9.388
21287WAT      O64102   7.472   1.296   2.739
21287WAT     H164103   7.407   1.248   2.680
21287WAT     H264104   7.451   1.276   2.834
21288WAT      O64105   6.613   3.874   5.403
21288WAT     H164106   6.616   3.972   5.420
21288WAT     H264107   6.706   3.837   5.401
21289WAT      O64108   9.094   8.553   9.238
21289WAT     H164109   9.149   8.485   9.286
21289WAT     H264110   9.129   8.564   9.144
21290WAT      O64111   1.313   1.801   0.166
21290WAT     H164112   1.409   1.798   0.138
21290WAT     H264113   1.281   1.895   0.167
21291WAT      O64114   7.392   6.642   6.779
21291WAT     H164115   7.423   6.730   6.743
21291WAT     H264116   7.306   6.617   6.735
21292WAT      O64117   2.926   4.470   2.503
21292WAT     H164118   2.949   4.477   2.601
21292WAT     H264119   2.835   4.430   2.493
21293WAT      O64120   1.872   9.297   7.821
21293WAT     H164121   1.930   9.270   7.898
21293WAT     H264122   1.777   9.303   7.851
21294WAT      O64123   7.524   7.179   8.488
21294WAT     H164124   7.611   7.130   8.501
21294WAT     H264125   7.504   7.233   8.570
21295WAT      O64126   6.160   6.212   4.508
21295WAT     H164127   6.226   6.287   4.515
21295WAT     H264128   6.179   6.144   4.579
21296WAT      O64129   2.777   4.455   3.688
21296WAT     H164130   2.789   4.553   3.703
21296WAT     H264131   2.740   4.412   3.770
21297WAT      O64132   1.959   7.847   7.164
21297WAT     H164133   1.873   7.798   7.180
21297WAT     H264134   2.035   7.796   7.205
21298WAT      O64135   1.566   2.914   0.063
21298WAT     H164136   1.632   2.934   0.135
21298WAT     H264137   1.608   2.934  -0.026
21299WAT      O64138   3.365   8.474   8.738
21299WAT     H164139   3.316   8.471   8.651
21299WAT     H264140   3.387   8.568   8.761
21300WAT      O64141   4.147   0.559   9.611
21300WAT     H164142   4.059   0.597   9.639
21300WAT     H264143   4.132   0.481   9.549
21301WAT      O64144   1.460   8.697   5.949
21301WAT     H164145   1.438   8.723   6.043
21301WAT     H264146   1.555   8.668   5.944
21302WAT      O64147   8.620   9.018   0.923
21302WAT     H164148   8.618   9.092   0.856
21302WAT     H264149   8.590   9.053   1.012
21303WAT      O64150   1.199   1.283   8.236
21303WAT     H164151   1.166   1.207   8.293
21303WAT     H264152   1.289   1.312   8.268
21304WAT      O64153   3.781   1.710   5.011
21304WAT     H164154   3.830   1.765   5.079
21304WAT     H264155   3.745   1.628   5.054
21305WAT      O64156   4.795   4.690   4.711
21305WAT     H164157   4.840   4.607   4.744
21305WAT     H264158   4.701   4.693   4.747
21306WAT      O64159   0.039   9.257   6.483
21306WAT     H164160  -0.041   9.201   6.462
21306WAT     H264161   0.019   9.315   6.563
21307WAT      O64162   1.014   2.867   3.107
21307WAT     H164163   1.046   2.959   3.090
21307WAT     H264164   1.092   2.806   3.123
21308WAT      O64165   8.966   4.108   0.096
21308WAT     H164166   8.891   4.070   0.042
21308WAT     H264167   8.956   4.079   0.191
21309WAT      O64168   3.546   3.231   8.519
21309WAT     H164169   3.583   3.323   8.524
21309WAT     H264170   3.621   3.164   8.528
21310WAT      O64171   5.886   1.766   6.862
21310WAT     H164172   5.969   1.815   6.888
21310WAT     H264173   5.864   1.786   6.766
21311WAT      O64174   0.467   6.365   3.378
21311WAT     H164175   0.431   6.444   3.429
21311WAT     H264176   0.484   6.391   3.283
21312WAT      O64177   9.294   6.091   7.101
21312WAT     H164178   9.233   6.022   7.139
21312WAT     H264179   9.308   6.164   7.168
21313WAT      O64180   4.458   2.903   4.055
21313WAT     H164181   4.368   2.858   4.054
21313WAT     H264182   4.461   2.974   3.985
21314WAT      O64183   8.105   8.997   1.509
21314WAT     H164184   8.180   8.931   1.509
21314WAT     H264185   8.108   9.050   1.424
21315WAT      O64186   9.089   0.991   6.877
21315WAT     H164187   9.088   1.027   6.970
21315WAT     H264188   9.169   1.028   6.828
21316WAT      O64189   3.852   1.054   0.069
21316WAT     H164190   3.887   1.044  -0.024
21316WAT     H264191   3.926   1.081   0.130
21317WAT      O64192   3.206   8.155   1.071
21317WAT     H164193   3.136   8.218   1.039
21317WAT     H264194   3.275   8.206   1.123
21318WAT      O64195   4.375   9.788   1.843
21318WAT     H164196   4.325   9.736   1.912
21318WAT     H264197   4.460   9.823   1.883
21319WAT      O64198   1.782   9.687   2.645
21319WAT     H164199   1.710   9.750   2.616
21319WAT     H264200   1.794   9.616   2.576
21320WAT      O64201   7.032   4.604   7.709
21320WAT     H164202   6.974   4.667   7.657
21320WAT     H264203   7.127   4.636   7.706
21321WAT      O64204   4.265   8.118   3.124
21321WAT     H164205   4.187   8.170   3.090
21321WAT     H264206   4.322   8.178   3.180
21322WAT      O64207   0.463   3.292   6.518
21322WAT     H164208   0.544   3.291   6.577
21322WAT     H264209   0.412   3.207   6.529
21323WAT      O64210   8.905   6.244   1.706
21323WAT     H164211   8.864   6.308   1.640
21323WAT     H264212   8.848   6.162   1.713
21324WAT      O64213   7.885   2.283   9.178
21324WAT     H164214   7.837   2.309   9.262
21324WAT     H264215   7.849   2.335   9.101
21325WAT      O64216   6.760   4.935   1.241
21325WAT     H164217   6.788   4.938   1.145
21325WAT     H264218   6.754   5.028   1.277
21326WAT      O64219   3.757   9.804   7.142
21326WAT     H164220   3.701   9.761   7.072
21326WAT     H264221   3.851   9.813   7.110
21327WAT      O64222   7.812   2.039   1.671
21327WAT     H164223   7.750   1.985   1.728
21327WAT     H264224   7.798   2.137   1.689
21328WAT      O64225   3.106   3.624   7.406
21328WAT     H164226   3.187   3.591   7.358
21328WAT     H264227   3.130   3.703   7.462
21329WAT      O64228   5.667   8.807   7.678
21329WAT     H164229   5.618   8.743   7.619
21329WAT     H264230   5.601   8.871   7.719
21330WAT      O64231   9.783   8.887   5.859
21330WAT     H164232   9.704   8.827   5.869
21330WAT     H264233   9.865   8.832   5.845
21331WAT      O64234   3.962   7.393   6.673
21331WAT     H164235   3.901   7.364   6.599
21331WAT     H264236   4.053   7.356   6.657
21332WAT      O64237   6.193   6.997   6.815
21332WAT     H164238   6.168   6.940   6.893
21332WAT     H264239   6.117   7.000   6.750
21333WAT      O64240   9.652   8.784   8.587
21333WAT     H164241   9.556   8.805   8.572
21333WAT     H264242   9.708   8.854   8.543
21334WAT      O64243   7.871   2.597   4.960
21334WAT     H164244   7.780   2.622   4.995
21334WAT     H264245   7.905   2.516   5.009
21335WAT      O64246   1.216   3.958   7.599
21335WAT     H164247   1.313   3.980   7.589
21335WAT     H264248   1.161   4.028   7.553
21336WAT      O64249   2.505   4.141   3.569
21336WAT     H164250   2.413   4.144   3.528
21336WAT     H264251   2.518   4.052   3.613
21337WAT      O64252   4.784   8.215   1.514
21337WAT     H164253   4.861   8.153   1.501
21337WAT     H264254   4.818   8.305   1.540
21338WAT      O64255   3.635   5.731   3.570
21338WAT     H164256   3.707   5.752   3.636
21338WAT     H264257   3.608   5.816   3.523
21339WAT      O64258   2.701   3.414   6.070
21339WAT     H164259   2.749   3.501   6.061
21339WAT     H264260   2.756   3.351   6.125
21340WAT      O64261   6.665   5.793   7.944
21340WAT     H164262   6.595   5.736   7.900
21340WAT     H264263   6.683   5.873   7.887
21341WAT      O64264   4.406   5.540   0.322
21341WAT     H164265   4.397   5.498   0.412
21341WAT     H264266   4.419   5.639   0.332
21342WAT      O64267   4.152   5.972   8.596
21342WAT     H164268   4.075   6.022   8.635
21342WAT     H264269   4.121   5.921   8.515
21343WAT      O64270   6.733   5.374   7.853
21343WAT     H164271   6.792   5.452   7.834
21343WAT     H264272   6.661   5.368   7.784
21344WAT      O64273   8.237   5.783   6.291
21344WAT     H164274   8.255   5.808   6.386
21344WAT     H264275   8.323   5.765   6.244
21345WAT      O64276   6.564   5.520   5.356
21345WAT     H164277   6.631   5.594   5.354
21345WAT     H264278   6.533   5.506   5.450
21346WAT      O64279   5.016   3.925   1.697
21346WAT     H164280   5.040   3.830   1.715
21346WAT     H264281   5.099   3.981   1.697
21347WAT      O64282   6.377   4.376   2.183
21347WAT     H164283   6.357   4.284   2.218
21347WAT     H264284   6.307   4.401   2.116
21348WAT      O64285   0.085   9.657   0.626
21348WAT     H164286   0.175   9.681   0.588
21348WAT     H264287   0.064   9.562   0.604
21349WAT      O64288   4.396   2.154   6.689
21349WAT     H164289   4.378   2.179   6.594
21349WAT     H264290   4.454   2.072   6.692
21350WAT      O64291   5.690   3.411   0.436
21350WAT     H164292   5.668   3.490   0.493
21350WAT     H264293   5.631   3.409   0.356
21351WAT      O64294   9.559   9.042   5.789
21351WAT     H164295   9.475   8.991   5.770
21351WAT     H264296   9.633   8.979   5.810
21352WAT      O64297   5.150   7.904   5.628
21352WAT     H164298   5.074   7.847   5.597
21352WAT     H264299   5.209   7.927   5.551
21353WAT      O64300   3.681   1.740   8.987
21353WAT     H164301   3.719   1.658   8.945
21353WAT     H264302   3.605   1.716   9.047
21354WAT      O64303   7.206   0.046   8.333
21354WAT     H164304   7.258   0.106   8.272
21354WAT     H264305   7.113   0.082   8.344
21355WAT      O64306   7.174   4.927   2.773
21355WAT     H164307   7.130   4.846   2.735
21355WAT     H264308   7.249   4.899   2.833
21356WAT      O64309   4.085   8.438   7.498
21356WAT     H164310   4.044   8.477   7.416
21356WAT     H264311   4.127   8.511   7.553
21357WAT      O64312   4.270   2.171   6.451
21357WAT     H164313   4.171   2.186   6.443
21357WAT     H264314   4.317   2.216   6.375
21358WAT      O64315   5.120   5.773   7.276
21358WAT     H164316   5.113   5.684   7.231
21358WAT     H264317   5.075   5.842   7.220
21359WAT      O64318   0.584   2.973   2.339
21359WAT     H164319   0.601   3.067   2.310
21359WAT     H264320   0.670   2.923   2.344
21360WAT      O64321   8.307   6.755   1.390
21360WAT     H164322   8.390   6.773   1.444
21360WAT     H264323   8.234   6.724   1.451
21361WAT      O64324   7.672   7.205   6.251
21361WAT     H164325   7.573   7.202   6.267
21361WAT     H264326   7.703   7.300   6.256
21362WAT      O64327   3.285   2.172   0.053
21362WAT     H164328   3.301   2.096   0.116
21362WAT     H264329   3.299   2.259   0.100
21363WAT      O64330   8.521   8.963   9.657
21363WAT     H164331   8.540   9.015   9.740
21363WAT     H264332   8.526   9.024   9.578
21364WAT      O64333   2.045   9.214   7.379
21364WAT     H164334   2.108   9.150   7.424
21364WAT     H264335   2.092   9.301   7.364
21365WAT      O64336   6.883   0.230   2.173
21365WAT     H164337   6.977   0.212   2.142
21365WAT     H264338   6.841   0.298   2.113
21366WAT      O64339   9.774   8.690   3.238
21366WAT     H164340   9.681   8.666   3.210
21366WAT     H264341   9.774   8.717   3.334
21367WAT      O64342   3.480   2.493   3.714
21367WAT     H164343   3.508   2.513   3.808
21367WAT     H264344   3.431   2.406   3.712
21368WAT      O64345   7.048   3.210   3.221
21368WAT     H164346   7.035   3.309   3.225
21368WAT     H264347   7.019   3.177   3.131
21369WAT      O64348   2.698   8.845   6.840
21369WAT     H164349   2.796   8.830   6.829
21369WAT     H264350   2.648   8.798   6.767
21370WAT      O64351   9.494   6.377   7.557
21370WAT     H164352   9.525   6.372   7.652
21370WAT     H264353   9.567   6.415   7.500
21371WAT      O64354   2.971   9.259   3.235
21371WAT     H164355   2.909   9.296   3.166
21371WAT     H264356   2.960   9.159   3.239
21372WAT      O64357   4.457   4.633   9.814
21372WAT     H164358   4.547   4.595   9.836
21372WAT     H264359   4.416   4.670   9.897
21373WAT      O64360   4.962   9.557   9.345
21373WAT     H164361   4.936   9.481   9.404
21373WAT     H264362   4.975   9.523   9.251
21374WAT      O64363   1.717   7.267   9.105
21374WAT     H164364   1.801   7.246   9.056
21374WAT     H264365   1.735   7.338   9.174
21375WAT      O64366   9.018   3.406   7.652
21375WAT     H164367   9.053   3.491   7.614
21375WAT     H264368   9.079   3.374   7.725
21376WAT      O64369   7.567   9.213   5.973
21376WAT     H164370   7.568   9.124   5.928
21376WAT     H264371   7.645   9.219   6.036
21377WAT      O64372   9.760   6.441   3.351
21377WAT     H164373   9.794   6.361   3.401
21377WAT     H264374   9.821   6.518   3.366
21378WAT      O64375   4.680   0.299   8.309
21378WAT     H164376   4.767   0.256   8.284
21378WAT     H264377   4.647   0.354   8.232
21379WAT      O64378   4.425   3.077   3.814
21379WAT     H164379   4.514   3.115   3.841
21379WAT     H264380   4.435   3.027   3.728
21380WAT      O64381   6.456   1.047   9.885
21380WAT     H164382   6.534   1.065   9.826
21380WAT     H264383   6.488   1.021   9.976
21381WAT      O64384   7.728   2.377   6.209
21381WAT     H164385   7.736   2.327   6.295
21381WAT     H264386   7.719   2.313   6.133
21382WAT      O64387   1.888   6.153   0.194
21382WAT     H164388   1.902   6.184   0.288
21382WAT     H264389   1.935   6.214   0.131
21383WAT      O64390   8.392   0.846   8.895
21383WAT     H164391   8.400   0.785   8.974
21383WAT     H264392   8.375   0.939   8.927
21384WAT      O64393   7.825   6.297   1.243
21384WAT     H164394   7.769   6.229   1.290
21384WAT     H264395   7.800   6.300   1.146
21385WAT      O64396   8.804   4.326   2.823
21385WAT     H164397   8.851   4.360   2.905
21385WAT     H264398   8.706   4.323   2.839
21386WAT      O64399   0.400   6.412   7.971
21386WAT     H164400   0.328   6.350   7.942
21386WAT     H264401   0.361   6.501   7.994
21387WAT      O64402   5.668   1.838   5.652
21387WAT     H164403   5.674   1.887   5.565
21387WAT     H264404   5.614   1.755   5.640
21388WAT      O64405   2.074   8.728   6.391
21388WAT     H164406   2.005   8.737   6.463
21388WAT     H264407   2.100   8.819   6.359
21389WAT      O64408   7.426   2.249   8.912
21389WAT     H164409   7.486   2.311   8.862
21389WAT     H264410   7.341   2.236   8.860
21390WAT      O64411   1.420   6.132   5.891
21390WAT     H164412   1.417   6.154   5.989
21390WAT     H264413   1.504   6.169   5.852
21391WAT      O64414   9.301   4.891   1.661
21391WAT     H164415   9.232   4.911   1.592
21391WAT     H264416   9.294   4.796   1.690
21392WAT      O64417   1.768   4.335   4.955
21392WAT     H164418   1.725   4.319   4.867
21392WAT     H264419   1.864   4.305   4.951
21393WAT      O64420   2.022   0.927   3.943
21393WAT     H164421   2.025   0.978   3.857
21393WAT     H264422   2.063   0.837   3.929
21394WAT      O64423   9.459   5.941   9.433
21394WAT     H164424   9.479   5.922   9.529
21394WAT     H264425   9.362   5.960   9.422
21395WAT      O64426   2.828   8.132   1.942
21395WAT     H164427   2.763   8.151   1.868
21395WAT     H264428   2.867   8.218   1.975
21396WAT      O64429   1.659   1.516   5.195
21396WAT     H164430   1.736   1.563   5.153
21396WAT     H264431   1.627   1.568   5.274
21397WAT      O64432   3.124   5.872   3.235
21397WAT     H164433   3.131   5.971   3.247
21397WAT     H264434   3.063   5.852   3.158
21398WAT      O64435   7.703   6.788   3.018
21398WAT     H164436   7.763   6.862   3.047
21398WAT     H264437   7.706   6.780   2.918
21399WAT      O64438   1.537   5.580   5.334
21399WAT     H164439   1.619   5.609   5.285
21399WAT     H264440   1.487   5.513   5.279
21400WAT      O64441   3.113   9.701   8.635
21400WAT     H164442   3.149   9.701   8.728
21400WAT     H264443   3.068   9.788   8.616
21401WAT      O64444   4.806   7.090   9.362
21401WAT     H164445   4.775   7.185   9.355
21401WAT     H264446   4.728   7.031   9.379
21402WAT      O64447   7.911   8.095   6.492
21402WAT     H164448   7.918   8.131   6.399
21402WAT     H264449   7.993   8.121   6.544
21403WAT      O64450   9.323   5.654   9.654
21403WAT     H164451   9.347   5.625   9.561
21403WAT     H264452   9.404   5.649   9.712
21404WAT      O64453   5.513   3.475   6.562
21404WAT     H164454   5.481   3.492   6.655
21404WAT     H264455   5.438   3.490   6.498
21405WAT      O64456   9.440   5.698   2.247
21405WAT     H164457   9.479   5.701   2.339
21405WAT     H264458   9.470   5.614   2.202
21406WAT      O64459   6.758   8.998   1.539
21406WAT     H164460   6.800   8.930   1.599
21406WAT     H264461   6.782   9.090   1.571
21407WAT      O64462   1.386   6.539   4.097
21407WAT     H164463   1.344   6.612   4.150
21407WAT     H264464   1.330   6.456   4.105
21408WAT      O64465   6.165   9.221   9.689
21408WAT     H164466   6.103   9.144   9.678
21408WAT     H264467   6.187   9.261   9.600
21409WAT      O64468   9.876   7.991   3.704
21409WAT     H164469   9.879   7.937   3.620
21409WAT     H264470   9.801   7.958   3.762
21410WAT      O64471   3.255   7.785   0.578
21410WAT     H164472   3.315   7.732   0.518
21410WAT     H264473   3.219   7.864   0.529
21411WAT      O64474   5.311   9.194   5.524
21411WAT     H164475   5.285   9.188   5.427
21411WAT     H264476   5.321   9.102   5.562
21412WAT      O64477   1.821   8.285   7.093
21412WAT     H164478   1.807   8.381   7.115
21412WAT     H264479   1.742   8.249   7.045
21413WAT      O64480   0.927   3.175   1.385
21413WAT     H164481   0.896   3.218   1.300
21413WAT     H264482   0.894   3.230   1.463
21414WAT      O64483   6.371   0.333   2.654
21414WAT     H164484   6.334   0.245   2.626
21414WAT     H264485   6.365   0.342   2.753
21415WAT      O64486   6.260   9.794   8.297
21415WAT     H164487   6.272   9.722   8.366
21415WAT     H264488   6.165   9.824   8.297
21416WAT      O64489   6.989   9.406   0.907
21416WAT     H164490   7.080   9.434   0.937
21416WAT     H264491   6.950   9.342   0.973
21417WAT      O64492   6.173   5.668   8.528
21417WAT     H164493   6.234   5.590   8.533
21417WAT     H264494   6.086   5.645   8.571
21418WAT      O64495   6.742   2.422   0.004
21418WAT     H164496   6.730   2.394   0.100
21418WAT     H264497   6.669   2.382  -0.051
21419WAT      O64498   7.675   1.399   1.975
21419WAT     H164499   7.638   1.483   2.017
21419WAT     H264500   7.671   1.325   2.042
21420WAT      O64501   7.886   0.468   3.645
21420WAT     H164502   7.959   0.400   3.642
21420WAT     H264503   7.920   0.556   3.612
21421WAT      O64504   2.144   7.655   5.580
21421WAT     H164505   2.045   7.651   5.595
21421WAT     H264506   2.181   7.735   5.626
21422WAT      O64507   1.578   7.065   7.167
21422WAT     H164508   1.620   7.156   7.163
21422WAT     H264509   1.647   6.998   7.193
21423WAT      O64510   0.580   2.208   0.096
21423WAT     H164511   0.613   2.279   0.035
21423WAT     H264512   0.488   2.232   0.128
21424WAT      O64513   0.796   2.737   6.265
21424WAT     H164514   0.759   2.732   6.358
21424WAT     H264515   0.724   2.713   6.200
21425WAT      O64516   3.535   8.611   5.646
21425WAT     H164517   3.613   8.548   5.645
21425WAT     H264518   3.565   8.700   5.681
21426WAT      O64519   7.048   4.320   1.968
21426WAT     H164520   6.950   4.330   1.953
21426WAT     H264521   7.097   4.338   1.883
21427WAT      O64522   6.901   9.771   7.016
21427WAT     H164523   6.984   9.746   6.966
21427WAT     H264524   6.829   9.704   6.998
21428WAT      O64525   5.531   3.239   7.504
21428WAT     H164526   5.590   3.311   7.541
21428WAT     H264527   5.508   3.174   7.577
21429WAT      O64528   4.292   7.579   3.923
21429WAT     H164529   4.309   7.676   3.941
21429WAT     H264530   4.350   7.549   3.848
21430WAT      O64531   0.961   2.289   2.094
21430WAT     H164532   1.028   2.233   2.048
21430WAT     H264533   0.952   2.260   2.190
21431WAT      O64534   6.017   4.770   0.515
21431WAT     H164535   6.020   4.868   0.493
21431WAT     H264536   5.958   4.723   0.450
21432WAT      O64537   9.853   3.894   3.537
21432WAT     H164538   9.772   3.944   3.508
21432WAT     H264539   9.909   3.872   3.456
21433WAT      O64540   7.844   0.498   1.511
21433WAT     H164541   7.910   0.570   1.531
21433WAT     H264542   7.891   0.420   1.470
21434WAT      O64543   8.106   6.620   6.263
21434WAT     H164544   8.086   6.707   6.217
21434WAT     H264545   8.057   6.617   6.350
21435WAT      O64546   1.114   3.930   6.151
21435WAT     H164547   1.103   3.988   6.232
21435WAT     H264548   1.062   3.846   6.163
21436WAT      O64549   6.309   8.123   6.395
21436WAT     H164550   6.368   8.146   6.317
21436WAT     H264551   6.255   8.204   6.420
21437WAT      O64552   0.884   1.292   5.533
21437WAT     H164553   0.963   1.231   5.525
21437WAT     H264554   0.915   1.386   5.546
21438WAT      O64555   0.653   7.022   3.306
21438WAT     H164556   0.672   7.074   3.389
21438WAT     H264557   0.585   7.070   3.251
21439WAT      O64558   0.047   1.240   8.918
21439WAT     H164559  -0.025   1.188   8.964
21439WAT     H264560   0.006   1.312   8.862
21440WAT      O64561   3.029   0.579   2.357
21440WAT     H164562   2.957   0.579   2.426
21440WAT     H264563   3.043   0.486   2.323
21441WAT      O64564   1.616   1.714   1.952
21441WAT     H164565   1.524   1.683   1.974
21441WAT     H264566   1.625   1.812   1.971
21442WAT      O64567   4.918   0.188   6.944
21442WAT     H164568   4.893   0.233   6.858
21442WAT     H264569   4.836   0.156   6.990
21443WAT      O64570   7.188   0.207   9.283
21443WAT     H164571   7.103   0.202   9.336
21443WAT     H264572   7.203   0.301   9.253
21444WAT      O64573   8.879   5.419   1.547
21444WAT     H164574   8.879   5.395   1.644
21444WAT     H264575   8.807   5.486   1.529
21445WAT      O64576   2.492   2.363   9.242
21445WAT     H164577   2.540   2.298   9.183
21445WAT     H264578   2.458   2.316   9.323
21446WAT      O64579   8.379   4.665   4.621
21446WAT     H164580   8.447   4.596   4.598
21446WAT     H264581   8.417   4.728   4.689
21447WAT      O64582   5.676   8.285   5.665
21447WAT     H164583   5.681   8.206   5.725
21447WAT     H264584   5.765   8.299   5.620
21448WAT      O64585   7.201   0.394   3.823
21448WAT     H164586   7.137   0.383   3.900
21448WAT     H264587   7.191   0.485   3.784
21449WAT      O64588   7.734   8.145   8.202
21449WAT     H164589   7.737   8.047   8.179
21449WAT     H264590   7.667   8.191   8.143
21450WAT      O64591   8.411   1.466   7.666
21450WAT     H164592   8.451   1.524   7.737
21450WAT     H264593   8.337   1.411   7.704
21451WAT      O64594   9.407   2.975   8.307
21451WAT     H164595   9.414   3.074   8.303
21451WAT     H264596   9.311   2.948   8.299
21452WAT      O64597   3.060   3.057   0.063
21452WAT     H164598   3.064   2.957   0.051
21452WAT     H264599   2.967   3.084   0.089
21453WAT      O64600   3.884   4.844   0.824
21453WAT     H164601   3.830   4.840   0.908
21453WAT     H264602   3.826   4.876   0.749
21454WAT      O64603   5.086   1.343   2.541
21454WAT     H164604   5.087   1.263   2.600
21454WAT     H264605   5.096   1.315   2.445
21455WAT      O64606   3.075   8.921   0.272
21455WAT     H164607   3.010   8.995   0.289
21455WAT     H264608   3.025   8.835   0.262
21456WAT      O64609   4.941   0.140   9.640
21456WAT     H164610   4.883   0.221   9.655
21456WAT     H264611   4.931   0.110   9.545
21457WAT      O64612   4.942   4.286   6.203
21457WAT     H164613   5.009   4.330   6.263
21457WAT     H264614   4.901   4.354   6.143
21458WAT      O64615   8.414   5.320   1.318
21458WAT     H164616   8.336   5.317   1.254
21458WAT     H264617   8.450   5.228   1.331
21459WAT      O64618   9.197   6.536   2.048
21459WAT     H164619   9.158   6.594   2.120
21459WAT     H264620   9.178   6.440   2.068
21460WAT      O64621   3.347   3.383   9.236
21460WAT     H164622   3.309   3.364   9.146
21460WAT     H264623   3.372   3.480   9.241
21461WAT      O64624   0.728   9.064   3.519
21461WAT     H164625   0.709   9.049   3.616
21461WAT     H264626   0.823   9.037   3.499
21462WAT      O64627   6.590   0.112   7.155
21462WAT     H164628   6.589   0.014   7.175
21462WAT     H264629   6.615   0.163   7.237
21463WAT      O64630   1.827   6.193   0.780
21463WAT     H164631   1.895   6.136   0.733
21463WAT     H264632   1.741   6.143   0.789
21464WAT      O64633   1.254   1.870   3.445
21464WAT     H164634   1.338   1.901   3.399
21464WAT     H264635   1.244   1.919   3.531
21465WAT      O64636   8.015   6.851   1.593
21465WAT     H164637   8.062   6.763   1.592
21465WAT     H264638   7.984   6.873   1.685
21466WAT      O64639   6.045   3.057   8.760
21466WAT     H164640   6.061   2.996   8.838
21466WAT     H264641   6.082   3.147   8.779
21467WAT      O64642   8.370   1.683   5.407
21467WAT     H164643   8.344   1.756   5.343
21467WAT     H264644   8.426   1.722   5.480
21468WAT      O64645   7.908   3.277   3.638
21468WAT     H164646   7.974   3.289   3.712
21468WAT     H264647   7.913   3.183   3.604
21469WAT      O64648   4.010   0.220   6.118
21469WAT     H164649   4.041   0.146   6.177
21469WAT     H264650   4.063   0.219   6.033
21470WAT      O64651   3.036   5.738   0.253
21470WAT     H164652   2.983   5.662   0.293
21470WAT     H264653   2.988   5.774   0.173
21471WAT      O64654   8.573   0.320   7.855
21471WAT     H164655   8.596   0.296   7.949
21471WAT     H264656   8.473   0.330   7.846
21472WAT      O64657   4.387   4.634   2.823
21472WAT     H164658   4.483   4.654   2.845
21472WAT     H264659   4.343   4.592   2.902
21473WAT      O64660   3.382   1.546   7.476
21473WAT     H164661   3.385   1.624   7.413
21473WAT     H264662   3.337   1.575   7.561
21474WAT      O64663   2.616   0.039   7.371
21474WAT     H164664   2.612   0.110   7.441
21474WAT     H264665   2.708   0.035   7.332
21475WAT      O64666   3.655   5.246   3.708
21475WAT     H164667   3.589   5.284   3.644
21475WAT     H264668   3.635   5.280   3.800
21476WAT      O64669   7.785   0.223   4.154
21476WAT     H164670   7.770   0.319   4.179
21476WAT     H264671   7.750   0.207   4.062
21477WAT      O64672   8.705   0.502   8.379
21477WAT     H164673   8.754   0.521   8.464
21477WAT     H264674   8.764   0.452   8.316
21478WAT      O64675   1.408   7.201   5.277
21478WAT     H164676   1.438   7.167   5.366
21478WAT     H264677   1.379   7.297   5.286
21479WAT      O64678   0.983   1.950   0.815
21479WAT     H164679   1.072   1.983   0.782
21479WAT     H264680   0.998   1.875   0.880
21480WAT      O64681   8.843   6.555   7.651
21480WAT     H164682   8.923   6.535   7.708
21480WAT     H264683   8.866   6.536   7.556
21481WAT      O64684   3.647   7.023   4.845
21481WAT     H164685   3.609   6.945   4.895
21481WAT     H264686   3.730   7.054   4.891
21482WAT      O64687   0.022   5.306   6.378
21482WAT     H164688  -0.027   5.332   6.294
21482WAT     H264689   0.118   5.288   6.355
21483WAT      O64690   5.100   9.139   4.339
21483WAT     H164691   5.133   9.222   4.295
21483WAT     H264692   5.161   9.063   4.317
21484WAT      O64693   4.551   4.443   6.731
21484WAT     H164694   4.589   4.528   6.768
21484WAT     H264695   4.493   4.464   6.652
21485WAT      O64696   7.371   2.790   2.290
21485WAT     H164697   7.436   2.715   2.274
21485WAT     H264698   7.280   2.761   2.261
21486WAT      O64699   5.699   2.262   3.328
21486WAT     H164700   5.683   2.164   3.318
21486WAT     H264701   5.793   2.283   3.302
21487WAT      O64702   9.764   0.568   0.470
21487WAT     H164703   9.665   0.551   0.474
21487WAT     H264704   9.781   0.665   0.488
21488WAT      O64705   7.587   7.693   0.544
21488WAT     H164706   7.551   7.600   0.557
21488WAT     H264707   7.687   7.689   0.537
21489WAT      O64708   1.816   6.368   6.020
21489WAT     H164709   1.739   6.344   5.961
21489WAT     H264710   1.895   6.392   5.964
21490WAT      O64711   9.848   5.816   2.385
21490WAT     H164712   9.815   5.732   2.343
21490WAT     H264713   9.896   5.794   2.470
21491WAT      O64714   3.445   5.768   2.315
21491WAT     H164715   3.425   5.861   2.286
21491WAT     H264716   3.538   5.764   2.352
21492WAT      O64717   7.051   2.872   5.644
21492WAT     H164718   7.054   2.933   5.566
21492WAT     H264719   6.997   2.791   5.621
21493WAT      O64720   9.681   5.476   2.542
21493WAT     H164721   9.618   5.406   2.578
21493WAT     H264722   9.671   5.482   2.443
21494WAT      O64723   5.657   3.572   2.378
21494WAT     H164724   5.669   3.508   2.302
21494WAT     H264725   5.664   3.666   2.343
21495WAT      O64726   7.219   8.989   1.821
21495WAT     H164727   7.158   8.963   1.896
21495WAT     H264728   7.262   9.077   1.842
21496WAT      O64729   6.481   4.546   5.380
21496WAT     H164730   6.501   4.632   5.333
21496WAT     H264731   6.564   4.509   5.420
21497WAT      O64732   5.171   3.177   9.195
21497WAT     H164733   5.158   3.142   9.288
21497WAT     H264734   5.082   3.198   9.154
21498WAT      O64735   6.278   6.628   5.781
21498WAT     H164736   6.292   6.702   5.715
21498WAT     H264737   6.180   6.612   5.792
21499WAT      O64738   3.886   1.433   7.598
21499WAT     H164739   3.905   1.488   7.517
21499WAT     H264740   3.792   1.399   7.595
21500WAT      O64741   2.031   3.766   0.732
21500WAT     H164742   1.937   3.761   0.699
21500WAT     H264743   2.075   3.677   0.721
21501WAT      O64744   1.845   6.395   2.765
21501WAT     H164745   1.898   6.406   2.849
21501WAT     H264746   1.832   6.298   2.747
21502WAT      O64747   3.809   0.412   1.496
21502WAT     H164748   3.747   0.380   1.425
21502WAT     H264749   3.866   0.336   1.527
21503WAT      O64750   6.607   4.724   6.596
21503WAT     H164751   6.656   4.670   6.665
21503WAT     H264752   6.522   4.677   6.572
21504WAT      O64753   2.855   5.667   1.732
21504WAT     H164754   2.826   5.691   1.639
21504WAT     H264755   2.852   5.567   1.742
21505WAT      O64756   7.793   4.753   1.977
21505WAT     H164757   7.751   4.759   1.886
21505WAT     H264758   7.886   4.790   1.973
21506WAT      O64759   5.628   7.919   0.438
21506WAT     H164760   5.543   7.958   0.472
21506WAT     H264761   5.609   7.832   0.392
21507WAT      O64762   0.475   2.255   1.142
21507WAT     H164763   0.403   2.320   1.118
21507WAT     H264764   0.436   2.180   1.196
21508WAT      O64765   9.345   8.245   8.925
21508WAT     H164766   9.306   8.169   8.977
21508WAT     H264767   9.369   8.319   8.988
21509WAT      O64768   5.386   7.903   6.641
21509WAT     H164769   5.374   7.931   6.546
21509WAT     H264770   5.472   7.938   6.676
21510WAT      O64771   4.452   5.801   9.660
21510WAT     H164772   4.489   5.712   9.632
21510WAT     H264773   4.381   5.788   9.728
21511WAT      O64774   2.748   6.275   1.367
21511WAT     H164775   2.757   6.344   1.294
21511WAT     H264776   2.711   6.191   1.328
21512WAT      O64777   8.762   7.986   4.677
21512WAT     H164778   8.837   7.982   4.743
21512WAT     H264779   8.785   8.051   4.605
21513WAT      O64780   0.738   5.623  -0.002
21513WAT     H164781   0.710   5.644   0.092
21513WAT     H264782   0.720   5.526  -0.021
21514WAT      O64783   0.296   3.133   6.854
21514WAT     H164784   0.263   3.102   6.943
21514WAT     H264785   0.349   3.217   6.866
21515WAT      O64786   8.091   1.057   9.021
21515WAT     H164787   8.013   1.108   9.057
21515WAT     H264788   8.059   0.970   8.983
21516WAT      O64789   3.442   0.133   8.459
21516WAT     H164790   3.498   0.151   8.378
21516WAT     H264791   3.496   0.151   8.541
21517WAT      O64792   7.476   3.663   4.958
21517WAT     H164793   7.567   3.624   4.973
21517WAT     H264794   7.415   3.633   5.031
21518WAT      O64795   6.763   8.293   0.737
21518WAT     H164796   6.708   8.212   0.752
21518WAT     H264797   6.704   8.374   0.732
21519WAT      O64798   3.474   4.919   9.182
21519WAT     H164799   3.427   5.005   9.200
21519WAT     H264800   3.511   4.882   9.267
21520WAT      O64801   1.675   8.637   6.602
21520WAT     H164802   1.642   8.640   6.508
21520WAT     H264803   1.630   8.561   6.650
21521WAT      O64804   3.514   2.325   2.858
21521WAT     H164805   3.441   2.349   2.794
21521WAT     H264806   3.600   2.315   2.808
21522WAT      O64807   1.251   9.795   4.319
21522WAT     H164808   1.263   9.724   4.389
21522WAT     H264809   1.341   9.828   4.291
21523WAT      O64810   4.491   6.253   3.400
21523WAT     H164811   4.536   6.319   3.461
21523WAT     H264812   4.418   6.300   3.349
21524WAT      O64813   1.834   1.071   5.407
21524WAT     H164814   1.898   0.997   5.429
21524WAT     H264815   1.741   1.044   5.433
21525WAT      O64816   6.575   2.030   9.343
21525WAT     H164817   6.579   2.001   9.439
21525WAT     H264818   6.544   2.125   9.338
21526WAT      O64819   5.697   8.087   1.521
21526WAT     H164820   5.650   8.171   1.495
21526WAT     H264821   5.633   8.028   1.571
21527WAT      O64822   8.188   5.129   7.996
21527WAT     H164823   8.116   5.193   7.971
21527WAT     H264824   8.169   5.040   7.954
21528WAT      O64825   3.157   8.084   6.529
21528WAT     H164826   3.078   8.025   6.519
21528WAT     H264827   3.202   8.096   6.440
21529WAT      O64828   8.122   4.561   4.612
21529WAT     H164829   8.213   4.599   4.601
21529WAT     H264830   8.076   4.604   4.690
21530WAT      O64831   0.557   3.562   4.341
21530WAT     H164832   0.509   3.531   4.259
21530WAT     H264833   0.576   3.660   4.334
21531WAT      O64834   8.655   4.768   8.919
21531WAT     H164835   8.689   4.685   8.874
21531WAT     H264836   8.625   4.834   8.849
21532WAT      O64837   7.455   1.005   7.929
21532WAT     H164838   7.428   1.033   7.838
21532WAT     H264839   7.508   1.077   7.973
21533WAT      O64840   2.007   0.344   9.406
21533WAT     H164841   1.923   0.336   9.460
21533WAT     H264842   2.050   0.433   9.423
21534WAT      O64843   4.914   7.760   5.533
21534WAT     H164844   4.885   7.838   5.587
21534WAT     H264845   4.870   7.763   5.443
21535WAT      O64846   4.041   8.885   7.907
21535WAT     H164847   4.082   8.817   7.846
21535WAT     H264848   4.038   8.974   7.862
21536WAT      O64849   0.182   2.851   7.539
21536WAT     H164850   0.229   2.767   7.567
21536WAT     H264851   0.209   2.925   7.600
21537WAT      O64852   8.353   5.134   1.985
21537WAT     H164853   8.264   5.115   1.945
21537WAT     H264854   8.388   5.221   1.950
21538WAT      O64855   3.617   1.808   1.922
21538WAT     H164856   3.650   1.787   2.014
21538WAT     H264857   3.530   1.759   1.906
21539WAT      O64858   6.639   6.235   2.860
21539WAT     H164859   6.689   6.181   2.793
21539WAT     H264860   6.693   6.243   2.944
21540WAT      O64861   3.044   7.598   5.410
21540WAT     H164862   3.099   7.653   5.474
21540WAT     H264863   2.954   7.641   5.398
21541WAT      O64864   9.523   2.080   5.116
21541WAT     H164865   9.480   2.103   5.029
21541WAT     H264866   9.576   1.996   5.106
21542WAT      O64867   5.466   7.174   4.641
21542WAT     H164868   5.409   7.187   4.560
21542WAT     H264869   5.518   7.258   4.659
21543WAT      O64870   5.300   5.246   9.743
21543WAT     H164871   5.322   5.279   9.651
21543WAT     H264872   5.210   5.201   9.741
21544WAT      O64873   6.014   6.209   1.758
21544WAT     H164874   6.070   6.265   1.820
21544WAT     H264875   6.040   6.229   1.663
21545WAT      O64876   6.973   9.553   7.475
21545WAT     H164877   6.907   9.590   7.410
21545WAT     H264878   7.042   9.622   7.495
21546WAT      O64879   6.552   6.100   2.425
21546WAT     H164880   6.556   6.009   2.466
21546WAT     H264881   6.461   6.139   2.439
21547WAT      O64882   3.072   6.249   1.270
21547WAT     H164883   2.975   6.272   1.272
21547WAT     H264884   3.102   6.223   1.362
21548WAT      O64885   6.279   5.287   4.685
21548WAT     H164886   6.188   5.247   4.698
21548WAT     H264887   6.349   5.222   4.713
21549WAT      O64888   5.078   7.819   5.149
21549WAT     H164889   4.984   7.835   5.178
21549WAT     H264890   5.129   7.904   5.151
21550WAT      O64891   8.834   0.554   3.969
21550WAT     H164892   8.923   0.510   3.959
21550WAT     H264893   8.847   0.651   3.991
21551WAT      O64894   5.286   2.183   2.463
21551WAT     H164895   5.209   2.238   2.495
21551WAT     H264896   5.266   2.147   2.372
21552WAT      O64897   1.961   4.720   6.532
21552WAT     H164898   2.028   4.711   6.606
21552WAT     H264899   1.945   4.817   6.513
21553WAT      O64900   3.642   8.576   0.982
21553WAT     H164901   3.564   8.585   1.043
21553WAT     H264902   3.610   8.573   0.887
21554WAT      O64903   4.536   6.285   3.903
21554WAT     H164904   4.598   6.289   3.825
21554WAT     H264905   4.497   6.375   3.920
21555WAT      O64906   1.234   3.963   3.610
21555WAT     H164907   1.279   3.953   3.521
21555WAT     H264908   1.221   4.060   3.630
21556WAT      O64909   0.590   8.799   0.434
21556WAT     H164910   0.500   8.795   0.477
21556WAT     H264911   0.603   8.890   0.394
21557WAT      O64912   9.573   7.177   0.968
21557WAT     H164913   9.638   7.160   1.042
21557WAT     H264914   9.593   7.265   0.925
21558WAT      O64915   1.518   4.289   6.535
21558WAT     H164916   1.595   4.230   6.557
21558WAT     H264917   1.550   4.370   6.487
21559WAT      O64918   9.279   0.521   8.059
21559WAT     H164919   9.260   0.603   8.112
21559WAT     H264920   9.205   0.505   7.993
21560WAT      O64921   6.362   4.609   6.529
21560WAT     H164922   6.329   4.514   6.525
21560WAT     H264923   6.303   4.662   6.590
21561WAT      O64924   3.334   4.099   8.633
21561WAT     H164925   3.259   4.087   8.698
21561WAT     H264926   3.356   4.011   8.591
21562WAT      O64927   8.111   4.186   5.311
21562WAT     H164928   8.138   4.201   5.216
21562WAT     H264929   8.094   4.273   5.356
21563WAT      O64930   1.507   3.875   7.330
21563WAT     H164931   1.585   3.937   7.329
21563WAT     H264932   1.424   3.927   7.351
21564WAT      O64933   7.216   5.759   5.001
21564WAT     H164934   7.171   5.848   4.988
21564WAT     H264935   7.219   5.737   5.098
21565WAT      O64936   6.627   5.107   7.668
21565WAT     H164937   6.588   5.031   7.616
21565WAT     H264938   6.641   5.080   7.763
21566WAT      O64939   9.181   6.808   9.077
21566WAT     H164940   9.095   6.792   9.125
21566WAT     H264941   9.241   6.865   9.134
21567WAT      O64942   2.792   7.133   5.892
21567WAT     H164943   2.762   7.228   5.884
21567WAT     H264944   2.892   7.130   5.898
21568WAT      O64945   6.642   8.743   6.453
21568WAT     H164946   6.639   8.811   6.381
21568WAT     H264947   6.580   8.667   6.431
21569WAT      O64948   5.158   0.155   9.812
21569WAT     H164949   5.120   0.206   9.889
21569WAT     H264950   5.090   0.152   9.738
21570WAT      O64951   5.803   6.611   2.273
21570WAT     H164952   5.716   6.649   2.243
21570WAT     H264953   5.794   6.572   2.364
21571WAT      O64954   9.211   6.887   0.505
21571WAT     H164955   9.190   6.907   0.409
21571WAT     H264956   9.127   6.862   0.553
21572WAT      O64957   1.812   5.799   9.394
21572WAT     H164958   1.750   5.787   9.471
21572WAT     H264959   1.889   5.857   9.421
21573WAT      O64960   3.412   8.419   4.000
21573WAT     H164961   3.365   8.497   4.042
21573WAT     H264962   3.475   8.451   3.931
21574WAT      O64963   9.626   4.252   3.686
21574WAT     H164964   9.723   4.240   3.711
21574WAT     H264965   9.621   4.298   3.597
21575WAT      O64966   6.756   7.357   6.360
21575WAT     H164967   6.734   7.292   6.287
21575WAT     H264968   6.835   7.412   6.333
21576WAT      O64969   7.827   7.221   2.427
21576WAT     H164970   7.870   7.145   2.476
21576WAT     H264971   7.824   7.201   2.329
21577WAT      O64972   6.482   9.267   5.190
21577WAT     H164973   6.478   9.169   5.173
21577WAT     H264974   6.566   9.289   5.240
21578WAT      O64975   6.657   7.541   9.407
21578WAT     H164976   6.584   7.609   9.399
21578WAT     H264977   6.619   7.456   9.443
21579WAT      O64978   9.332   4.270   9.437
21579WAT     H164979   9.284   4.351   9.471
21579WAT     H264980   9.395   4.298   9.364
21580WAT      O64981   7.112   3.371   2.074
21580WAT     H164982   7.095   3.362   2.172
21580WAT     H264983   7.198   3.325   2.051
21581WAT      O64984   3.853   1.160   3.819
21581WAT     H164985   3.792   1.238   3.808
21581WAT     H264986   3.854   1.132   3.915
21582WAT      O64987   7.958   4.973   2.733
21582WAT     H164988   7.991   5.056   2.689
21582WAT     H264989   8.035   4.914   2.756
21583WAT      O64990   9.574   4.953   7.783
21583WAT     H164991   9.588   4.964   7.685
21583WAT     H264992   9.561   5.042   7.826
21584WAT      O64993   8.900   8.595   6.982
21584WAT     H164994   8.879   8.692   6.999
21584WAT     H264995   8.949   8.557   7.060
21585WAT      O64996   7.052   7.284   0.999
21585WAT     H164997   6.964   7.315   1.035
21585WAT     H264998   7.038   7.239   0.911
21586WAT      O64999   2.036   4.558   7.483
21586WAT     H165000   2.031   4.545   7.582
21586WAT     H265001   2.116   4.510   7.447
21587WAT      O65002   2.849   8.479   1.271
21587WAT     H165003   2.825   8.397   1.322
21587WAT     H265004   2.772   8.542   1.270
21588WAT      O65005   0.755   6.113   7.519
21588WAT     H165006   0.797   6.026   7.544
21588WAT     H265007   0.779   6.136   7.425
21589WAT      O65008   6.194   7.594   1.562
21589WAT     H165009   6.290   7.610   1.583
21589WAT     H265010   6.141   7.677   1.577
21590WAT      O65011   5.930   2.434   7.920
21590WAT     H165012   5.835   2.403   7.921
21590WAT     H265013   5.940   2.514   7.979
21591WAT      O65014   5.429   6.592   5.682
21591WAT     H165015   5.412   6.496   5.661
21591WAT     H265016   5.382   6.649   5.614
21592WAT      O65017   5.126   3.831   7.692
21592WAT     H165018   5.109   3.882   7.776
21592WAT     H265019   5.094   3.737   7.703
21593WAT      O65020   5.390   6.781   6.309
21593WAT     H165021   5.347   6.869   6.290
21593WAT     H265022   5.442   6.787   6.394
21594WAT      O65023   3.377   9.431   9.880
21594WAT     H165024   3.310   9.404   9.812
21594WAT     H265025   3.347   9.516   9.924
21595WAT      O65026   5.261   2.612   2.847
21595WAT     H165027   5.225   2.555   2.773
21595WAT     H265028   5.308   2.691   2.808
21596WAT      O65029   3.624   6.177   7.666
21596WAT     H165030   3.579   6.186   7.755
21596WAT     H265031   3.676   6.260   7.647
21597WAT      O65032   8.057   8.603   5.073
21597WAT     H165033   8.063   8.587   5.171
21597WAT     H265034   8.080   8.699   5.054
21598WAT      O65035   3.151   3.108   1.096
21598WAT     H165036   3.250   3.098   1.092
21598WAT     H265037   3.113   3.100   1.003
21599WAT      O65038   1.834   7.624   0.822
21599WAT     H165039   1.875   7.533   0.829
21599WAT     H265040   1.783   7.644   0.906
21600WAT      O65041   4.555   8.455   2.154
21600WAT     H165042   4.536   8.436   2.057
21600WAT     H265043   4.601   8.543   2.161
21601WAT      O65044   7.812   1.045   4.914
21601WAT     H165045   7.814   1.145   4.916
21601WAT     H265046   7.863   1.010   4.992
21602WAT      O65047   0.807   2.120   3.646
21602WAT     H165048   0.774   2.179   3.572
21602WAT     H265049   0.897   2.151   3.675
21603WAT      O65050   2.448   9.589   8.051
21603WAT     H165051   2.455   9.541   8.138
21603WAT     H265052   2.351   9.605   8.030
21604WAT      O65053   9.325   8.084   4.760
21604WAT     H165054   9.242   8.113   4.808
21604WAT     H265055   9.317   7.988   4.733
21605WAT      O65056   0.879   1.716   7.435
21605WAT     H165057   0.809   1.779   7.402
21605WAT     H265058   0.961   1.768   7.461
21606WAT      O65059   3.662   3.000   0.997
21606WAT     H165060   3.751   3.029   1.034
21606WAT     H265061   3.666   2.903   0.973
21607WAT      O65062   7.793   4.203   5.450
21607WAT     H165063   7.806   4.279   5.387
21607WAT     H265064   7.719   4.144   5.417
21608WAT      O65065   0.168   7.468   9.525
21608WAT     H165066   0.179   7.452   9.426
21608WAT     H265067   0.072   7.458   9.550
21609WAT      O65068   2.702   6.014   6.193
21609WAT     H165069   2.695   5.999   6.094
21609WAT     H265070   2.711   5.926   6.239
21610WAT      O65071   3.984   5.261   1.347
21610WAT     H165072   3.987   5.351   1.388
21610WAT     H265073   3.952   5.194   1.414
21611WAT      O65074   7.520   6.435   4.423
21611WAT     H165075   7.528   6.404   4.518
21611WAT     H265076   7.426   6.465   4.405
21612WAT      O65077   6.873   5.076   2.935
21612WAT     H165078   6.786   5.122   2.953
21612WAT     H265079   6.872   5.038   2.842
21613WAT      O65080   2.857   6.873   4.989
21613WAT     H165081   2.841   6.901   5.083
21613WAT     H265082   2.797   6.924   4.928
21614WAT      O65083   1.472   5.013   8.258
21614WAT     H165084   1.453   5.074   8.335
21614WAT     H265085   1.533   5.059   8.194
21615WAT      O65086   4.211   3.176   1.910
21615WAT     H165087   4.220   3.078   1.924
21615WAT     H265088   4.207   3.196   1.812
21616WAT      O65089   5.013   3.449   3.783
21616WAT     H165090   4.925   3.492   3.804
21616WAT     H265091   5.040   3.473   3.689
21617WAT      O65092   1.252   7.037   3.008
21617WAT     H165093   1.230   6.975   2.933
21617WAT     H265094   1.290   7.122   2.970
21618WAT      O65095   2.674   0.065   0.304
21618WAT     H165096   2.747   0.102   0.246
21618WAT     H265097   2.609   0.015   0.247
21619WAT      O65098   6.980   5.546   1.197
21619WAT     H165099   6.907   5.501   1.249
21619WAT     H265100   7.054   5.482   1.182
21620WAT      O65101   0.512   4.658   6.093
21620WAT     H165102   0.606   4.624   6.087
21620WAT     H265103   0.514   4.755   6.117
21621WAT      O65104   5.026   1.998   4.891
21621WAT     H165105   5.119   1.962   4.882
21621WAT     H265106   4.982   1.957   4.971
21622WAT      O65107   8.078   0.330   1.707
21622WAT     H165108   8.059   0.412   1.761
21622WAT     H265109   8.035   0.251   1.750
21623WAT      O65110   7.068   0.010   0.978
21623WAT     H165111   7.042   0.099   1.014
21623WAT     H265112   7.141  -0.029   1.034
21624WAT      O65113   2.501   7.910   7.250
21624WAT     H165114   2.580   7.861   7.212
21624WAT     H265115   2.532   7.969   7.325
21625WAT      O65116   5.387   3.937   1.848
21625WAT     H165117   5.363   3.990   1.929
21625WAT     H265118   5.481   3.903   1.856
21626WAT      O65119   1.381   5.120   6.248
21626WAT     H165120   1.411   5.195   6.307
21626WAT     H265121   1.460   5.062   6.227
21627WAT      O65122   5.615   4.796   2.041
21627WAT     H165123   5.672   4.873   2.010
21627WAT     H265124   5.557   4.766   1.966
21628WAT      O65125   2.142   2.985   0.746
21628WAT     H165126   2.200   2.923   0.693
21628WAT     H265127   2.165   2.976   0.843
21629WAT      O65128   2.532   5.611   0.305
21629WAT     H165129   2.538   5.512   0.317
21629WAT     H265130   2.446   5.645   0.344
21630WAT      O65131   5.591   0.272   9.245
21630WAT     H165132   5.527   0.347   9.231
21630WAT     H265133   5.544   0.196   9.290
21631WAT      O65134   9.543   1.329   6.795
21631WAT     H165135   9.505   1.391   6.727
21631WAT     H265136   9.560   1.239   6.753
21632WAT      O65137   2.820   1.728   7.883
21632WAT     H165138   2.742   1.781   7.918
21632WAT     H265139   2.811   1.716   7.785
21633WAT      O65140   4.565   5.817   8.045
21633WAT     H165141   4.586   5.825   7.947
21633WAT     H265142   4.599   5.730   8.080
21634WAT      O65143   7.044   6.870   4.167
21634WAT     H165144   7.105   6.931   4.216
21634WAT     H265145   6.976   6.923   4.117
21635WAT      O65146   0.324   6.275   2.046
21635WAT     H165147   0.312   6.316   1.955
21635WAT     H265148   0.350   6.346   2.111
21636WAT      O65149   6.880   8.727   0.237
21636WAT     H165150   6.873   8.807   0.178
21636WAT     H265151   6.891   8.756   0.332
21637WAT      O65152   9.626   0.914   3.652
21637WAT     H165153   9.554   0.945   3.590
21637WAT     H265154   9.704   0.881   3.599
21638WAT      O65155   0.494   9.639   2.628
21638WAT     H165156   0.537   9.552   2.602
21638WAT     H265157   0.456   9.683   2.547
21639WAT      O65158   9.138   3.758   3.094
21639WAT     H165159   9.083   3.791   3.017
21639WAT     H265160   9.147   3.832   3.161
21640WAT      O65161   8.283   6.810   1.756
21640WAT     H165162   8.311   6.798   1.851
21640WAT     H265163   8.248   6.724   1.720
21641WAT      O65164   2.814   5.204   3.667
21641WAT     H165165   2.839   5.250   3.582
21641WAT     H265166   2.892   5.153   3.702
21642WAT      O65167   4.214   0.138   1.758
21642WAT     H165168   4.258   0.069   1.815
21642WAT     H265169   4.194   0.100   1.668
21643WAT      O65170   6.913   2.405   6.107
21643WAT     H165171   6.945   2.329   6.051
21643WAT     H265172   6.866   2.472   6.049
21644WAT      O65173   6.608   3.101   3.370
21644WAT     H165174   6.675   3.113   3.443
21644WAT     H265175   6.548   3.181   3.366
21645WAT      O65176   8.388   5.020   4.575
21645WAT     H165177   8.405   4.985   4.483
21645WAT     H265178   8.397   4.946   4.641
21646WAT      O65179   8.675   9.144   7.300
21646WAT     H165180   8.687   9.171   7.205
21646WAT     H265181   8.665   9.226   7.357
21647WAT      O65182   6.940   8.054   5.557
21647WAT     H165183   6.896   7.978   5.509
21647WAT     H265184   6.871   8.107   5.607
21648WAT      O65185   6.287   7.512   8.427
21648WAT     H165186   6.204   7.505   8.372
21648WAT     H265187   6.264   7.534   8.521
21649WAT      O65188   0.463   5.314   2.362
21649WAT     H165189   0.441   5.381   2.433
21649WAT     H265190   0.493   5.361   2.279
21650WAT      O65191   3.477   9.662   3.865
21650WAT     H165192   3.498   9.757   3.891
21650WAT     H265193   3.378   9.650   3.861
21651WAT      O65194   2.776   3.110   9.880
21651WAT     H165195   2.726   3.026   9.899
21651WAT     H265196   2.819   3.104   9.791
21652WAT      O65197   6.890   4.027   3.231
21652WAT     H165198   6.900   4.078   3.316
21652WAT     H265199   6.829   4.077   3.169
21653WAT      O65200   6.252   3.857   4.614
21653WAT     H165201   6.189   3.871   4.537
21653WAT     H265202   6.213   3.789   4.677
21654WAT      O65203   3.121   8.236   9.571
21654WAT     H165204   3.198   8.208   9.629
21654WAT     H265205   3.152   8.308   9.509
21655WAT      O65206   7.920   4.019   9.694
21655WAT     H165207   7.835   3.997   9.645
21655WAT     H265208   7.964   3.934   9.724
21656WAT      O65209   1.488   2.478   8.768
21656WAT     H165210   1.425   2.420   8.719
21656WAT     H265211   1.582   2.446   8.753
21657WAT      O65212   9.196   4.904   7.350
21657WAT     H165213   9.107   4.945   7.369
21657WAT     H265214   9.263   4.936   7.417
21658WAT      O65215   0.561   9.837   1.625
21658WAT     H165216   0.555   9.847   1.525
21658WAT     H265217   0.477   9.796   1.659
21659WAT      O65218   8.721   2.203   3.608
21659WAT     H165219   8.802   2.258   3.631
21659WAT     H265220   8.744   2.106   3.617
21660WAT      O65221   0.758   3.816   1.919
21660WAT     H165222   0.717   3.761   1.992
21660WAT     H265223   0.819   3.884   1.958
21661WAT      O65224   8.800   3.665   3.640
21661WAT     H165225   8.701   3.652   3.647
21661WAT     H265226   8.834   3.622   3.557
21662WAT      O65227   8.543   4.325   2.848
21662WAT     H165228   8.486   4.393   2.894
21662WAT     H265229   8.497   4.236   2.851
21663WAT      O65230   9.178   7.770   8.666
21663WAT     H165231   9.114   7.802   8.596
21663WAT     H265232   9.222   7.686   8.633
21664WAT      O65233   1.353   3.309   7.170
21664WAT     H165234   1.430   3.341   7.225
21664WAT     H265235   1.287   3.383   7.158
21665WAT      O65236   4.149   4.085   1.285
21665WAT     H165237   4.223   4.022   1.265
21665WAT     H265238   4.065   4.032   1.303
21666WAT      O65239   5.894   6.927   9.132
21666WAT     H165240   5.882   7.007   9.072
21666WAT     H265241   5.978   6.937   9.184
21667WAT      O65242   5.916   1.444   6.085
21667WAT     H165243   5.907   1.345   6.082
21667WAT     H265244   6.012   1.470   6.076
21668WAT      O65245   3.628   2.853   7.990
21668WAT     H165246   3.708   2.913   7.986
21668WAT     H265247   3.552   2.895   7.940
21669WAT      O65248   8.703   3.807   6.366
21669WAT     H165249   8.754   3.820   6.281
21669WAT     H265250   8.679   3.710   6.375
21670WAT      O65251   0.297   0.896   3.283
21670WAT     H165252   0.386   0.887   3.326
21670WAT     H265253   0.271   0.808   3.242
21671WAT      O65254   8.457   4.324   2.164
21671WAT     H165255   8.394   4.400   2.146
21671WAT     H265256   8.546   4.345   2.126
21672WAT      O65257   9.459   6.781   1.013
21672WAT     H165258   9.536   6.808   1.072
21672WAT     H265259   9.465   6.682   0.995
21673WAT      O65260   6.962   6.548   2.975
21673WAT     H165261   7.002   6.639   2.990
21673WAT     H265262   6.866   6.558   2.951
21674WAT      O65263   8.399   9.102   6.067
21674WAT     H165264   8.491   9.119   6.101
21674WAT     H265265   8.377   9.005   6.073
21675WAT      O65266   7.302   6.255   9.098
21675WAT     H165267   7.204   6.239   9.085
21675WAT     H265268   7.323   6.351   9.079
21676WAT      O65269   7.864   1.439   1.120
21676WAT     H165270   7.846   1.340   1.114
21676WAT     H265271   7.786   1.489   1.084
21677WAT      O65272   9.299   2.037   2.729
21677WAT     H165273   9.358   1.957   2.722
21677WAT     H265274   9.264   2.060   2.638
21678WAT      O65275   6.624   4.407   8.963
21678WAT     H165276   6.574   4.322   8.947
21678WAT     H265277   6.584   4.455   9.041
21679WAT      O65278   3.048   9.680   9.302
21679WAT     H165279   3.123   9.681   9.237
21679WAT     H265280   2.988   9.602   9.284
21680WAT      O65281   7.063   6.561   0.883
21680WAT     H165282   7.009   6.476   0.879
21680WAT     H265283   7.157   6.539   0.909
21681WAT      O65284   2.122   8.536   8.487
21681WAT     H165285   2.056   8.512   8.558
21681WAT     H265286   2.086   8.510   8.397
21682WAT      O65287   0.231   9.360   2.922
21682WAT     H165288   0.132   9.355   2.940
21682WAT     H265289   0.249   9.431   2.854
21683WAT      O65290   9.445   5.166   5.905
21683WAT     H165291   9.544   5.183   5.905
21683WAT     H265292   9.428   5.073   5.873
21684WAT      O65293   2.852   8.015   5.444
21684WAT     H165294   2.838   8.059   5.532
21684WAT     H265295   2.828   8.078   5.370
21685WAT      O65296   3.851   4.702   0.246
21685WAT     H165297   3.898   4.711   0.333
21685WAT     H265298   3.804   4.613   0.243
21686WAT      O65299   8.638   4.050   4.589
21686WAT     H165300   8.685   4.025   4.504
21686WAT     H265301   8.646   4.148   4.603
21687WAT      O65302   6.897   8.375   5.183
21687WAT     H165303   6.883   8.288   5.134
21687WAT     H265304   6.823   8.438   5.160
21688WAT      O65305   6.931   4.324   9.361
21688WAT     H165306   6.938   4.224   9.364
21688WAT     H265307   6.868   4.355   9.431
21689WAT      O65308   6.667   9.020   3.277
21689WAT     H165309   6.627   9.074   3.204
21689WAT     H265310   6.602   8.949   3.305
21690WAT      O65311   6.655   8.997   7.312
21690WAT     H165312   6.566   8.986   7.356
21690WAT     H265313   6.725   9.013   7.382
21691WAT      O65314   1.623   4.876   0.763
21691WAT     H165315   1.587   4.824   0.840
21691WAT     H265316   1.568   4.959   0.750
21692WAT      O65317   8.662   1.709   7.567
21692WAT     H165318   8.718   1.759   7.501
21692WAT     H265319   8.567   1.707   7.535
21693WAT      O65320   8.201   1.053   3.019
21693WAT     H165321   8.141   1.105   2.959
21693WAT     H265322   8.215   1.103   3.105
21694WAT      O65323   9.280   3.409   8.354
21694WAT     H165324   9.188   3.368   8.353
21694WAT     H265325   9.307   3.426   8.449
21695WAT      O65326   1.144   2.003   1.136
21695WAT     H165327   1.131   1.929   1.070
21695WAT     H265328   1.062   2.060   1.139
21696WAT      O65329   4.661   8.211   5.105
21696WAT     H165330   4.682   8.188   5.200
21696WAT     H265331   4.718   8.157   5.044
21697WAT      O65332   4.057   3.925   6.220
21697WAT     H165333   4.153   3.950   6.217
21697WAT     H265334   4.032   3.875   6.137
21698WAT      O65335   6.755   6.074   2.693
21698WAT     H165336   6.786   5.983   2.720
21698WAT     H265337   6.670   6.067   2.642
21699WAT      O65338   1.831   7.154   1.979
21699WAT     H165339   1.852   7.248   2.006
21699WAT     H265340   1.902   7.121   1.916
21700WAT      O65341   9.135   4.891   5.041
21700WAT     H165342   9.090   4.909   4.954
21700WAT     H265343   9.068   4.893   5.115
21701WAT      O65344   5.136   8.371   2.013
21701WAT     H165345   5.178   8.323   1.936
21701WAT     H265346   5.144   8.469   1.999
21702WAT      O65347   7.815   7.070   0.707
21702WAT     H165348   7.735   7.096   0.761
21702WAT     H265349   7.893   7.128   0.732
21703WAT      O65350   3.545   7.107   7.067
21703WAT     H165351   3.622   7.147   7.018
21703WAT     H265352   3.579   7.043   7.136
21704WAT      O65353   0.353   7.178   7.895
21704WAT     H165354   0.437   7.226   7.919
21704WAT     H265355   0.283   7.196   7.965
21705WAT      O65356   0.937   7.498   7.377
21705WAT     H165357   0.891   7.434   7.438
21705WAT     H265358   1.033   7.507   7.403
21706WAT      O65359   0.813   8.625   6.463
21706WAT     H165360   0.869   8.641   6.382
21706WAT     H265361   0.743   8.557   6.443
21707WAT      O65362   4.027   0.480   0.896
21707WAT     H165363   3.933   0.515   0.899
21707WAT     H265364   4.026   0.388   0.857
21708WAT      O65365   1.243   6.505   0.201
21708WAT     H165366   1.257   6.442   0.125
21708WAT     H265367   1.245   6.599   0.166
21709WAT      O65368   5.993   4.326   2.866
21709WAT     H165369   5.915   4.266   2.887
21709WAT     H265370   6.003   4.395   2.937
21710WAT      O65371   5.286   8.428   6.619
21710WAT     H165372   5.349   8.455   6.692
21710WAT     H265373   5.327   8.354   6.566
21711WAT      O65374   8.681   7.495   2.655
21711WAT     H165375   8.650   7.430   2.585
21711WAT     H265376   8.635   7.582   2.642
21712WAT      O65377   1.930   8.965   0.242
21712WAT     H165378   1.884   8.904   0.307
21712WAT     H265379   1.961   9.047   0.289
21713WAT      O65380   8.062   4.506   3.450
21713WAT     H165381   8.115   4.510   3.534
21713WAT     H265382   8.033   4.598   3.424
21714WAT      O65383   9.334   4.841   0.782
21714WAT     H165384   9.418   4.895   0.790
21714WAT     H265385   9.274   4.862   0.860
21715WAT      O65386   9.428   8.387   8.125
21715WAT     H165387   9.397   8.360   8.033
21715WAT     H265388   9.525   8.409   8.122
21716WAT      O65389   3.694   3.735   6.083
21716WAT     H165390   3.659   3.799   6.151
21716WAT     H265391   3.640   3.651   6.084
21717WAT      O65392   0.514   1.255   9.885
21717WAT     H165393   0.423   1.217   9.868
21717WAT     H265394   0.578   1.180   9.903
21718WAT      O65395   7.905   7.432   6.020
21718WAT     H165396   7.876   7.396   5.932
21718WAT     H265397   7.955   7.361   6.070
21719WAT      O65398   7.888   2.387   4.508
21719WAT     H165399   7.880   2.306   4.450
21719WAT     H265400   7.807   2.394   4.566
21720WAT      O65401   9.035   1.798   6.002
21720WAT     H165402   8.977   1.857   5.946
21720WAT     H265403   9.124   1.842   6.015
21721WAT      O65404   8.263   1.673   8.286
21721WAT     H165405   8.338   1.632   8.234
21721WAT     H265406   8.197   1.714   8.222
21722WAT      O65407   3.782   3.216   1.548
21722WAT     H165408   3.814   3.151   1.480
21722WAT     H265409   3.695   3.184   1.586
21723WAT      O65410   9.349   9.659   5.631
21723WAT     H165411   9.359   9.728   5.702
21723WAT     H265412   9.430   9.600   5.631
21724WAT      O65413   2.159   0.085   8.363
21724WAT     H165414   2.191   0.163   8.310
21724WAT     H265415   2.219   0.006   8.345
21725WAT      O65416   5.800   1.726   1.482
21725WAT     H165417   5.867   1.674   1.535
21725WAT     H265418   5.786   1.815   1.524
21726WAT      O65419   5.326   9.083   1.568
21726WAT     H165420   5.422   9.057   1.553
21726WAT     H265421   5.314   9.179   1.545
21727WAT      O65422   6.369   9.767   8.067
21727WAT     H165423   6.323   9.776   8.155
21727WAT     H265424   6.381   9.670   8.046
21728WAT      O65425   3.273   3.636   1.896
21728WAT     H165426   3.353   3.686   1.863
21728WAT     H265427   3.190   3.672   1.854
21729WAT      O65428   3.434   8.474   8.407
21729WAT     H165429   3.336   8.471   8.426
21729WAT     H265430   3.463   8.569   8.395
21730WAT      O65431   2.547   5.382   6.507
21730WAT     H165432   2.478   5.317   6.540
21730WAT     H265433   2.568   5.362   6.412
21731WAT      O65434   3.139   8.593   5.478
21731WAT     H165435   3.134   8.591   5.577
21731WAT     H265436   3.072   8.659   5.442
21732WAT      O65437   4.218   2.299   8.185
21732WAT     H165438   4.226   2.247   8.100
21732WAT     H265439   4.307   2.304   8.229
21733WAT      O65440   8.344   7.263   2.888
21733WAT     H165441   8.338   7.221   2.798
21733WAT     H265442   8.257   7.253   2.936
21734WAT      O65443   8.533   2.874   9.712
21734WAT     H165444   8.552   2.953   9.770
21734WAT     H265445   8.612   2.856   9.653
21735WAT      O65446   7.521   7.726   1.579
21735WAT     H165447   7.575   7.643   1.569
21735WAT     H265448   7.576   7.806   1.555
21736WAT      O65449   2.958   6.444   8.300
21736WAT     H165450   3.054   6.416   8.302
21736WAT     H265451   2.933   6.480   8.389
21737WAT      O65452   2.015   7.923   1.104
21737WAT     H165453   2.020   7.962   1.012
21737WAT     H265454   1.980   7.830   1.099
21738WAT      O65455   6.761   0.584   9.193
21738WAT     H165456   6.719   0.609   9.106
21738WAT     H265457   6.747   0.486   9.209
21739WAT      O65458   9.371   9.284   4.240
21739WAT     H165459   9.332   9.205   4.287
21739WAT     H265460   9.470   9.274   4.233
21740WAT      O65461   9.694   6.082   1.768
21740WAT     H165462   9.691   6.182   1.765
21740WAT     H265463   9.789   6.052   1.778
21741WAT      O65464   1.320   4.342   9.344
21741WAT     H165465   1.308   4.425   9.398
21741WAT     H265466   1.363   4.365   9.257
21742WAT      O65467   6.299   8.139   3.419
21742WAT     H165468   6.359   8.061   3.399
21742WAT     H265469   6.355   8.222   3.430
21743WAT      O65470   3.882   0.674   9.753
21743WAT     H165471   3.897   0.662   9.851
21743WAT     H265472   3.797   0.628   9.726
21744WAT      O65473   7.264   7.402   9.286
21744WAT     H165474   7.363   7.390   9.299
21744WAT     H265475   7.224   7.316   9.253
21745WAT      O65476   1.911   5.996   4.232
21745WAT     H165477   1.963   5.954   4.157
21745WAT     H265478   1.897   6.093   4.212
21746WAT      O65479   8.864   0.617   2.169
21746WAT     H165480   8.909   0.530   2.150
21746WAT     H265481   8.770   0.602   2.198
21747WAT      O65482   7.388   1.046   8.988
21747WAT     H165483   7.341   1.120   8.939
21747WAT     H265484   7.400   1.071   9.084
21748WAT      O65485   3.237   1.945   3.270
21748WAT     H165486   3.242   2.042   3.295
21748WAT     H265487   3.300   1.926   3.195
21749WAT      O65488   7.731   2.601   0.589
21749WAT     H165489   7.656   2.568   0.646
21749WAT     H265490   7.700   2.611   0.495
21750WAT      O65491   4.481   4.818   1.152
21750WAT     H165492   4.513   4.912   1.162
21750WAT     H265493   4.452   4.803   1.057
21751WAT      O65494   9.846   0.045   4.559
21751WAT     H165495   9.867  -0.036   4.504
21751WAT     H265496   9.890   0.036   4.649
21752WAT      O65497   4.009   1.342   1.885
21752WAT     H165498   4.047   1.260   1.843
21752WAT     H265499   3.940   1.317   1.953
21753WAT      O65500   2.336   1.251   9.858
21753WAT     H165501   2.432   1.245   9.888
21753WAT     H265502   2.286   1.172   9.893
21754WAT      O65503   5.263   7.398   8.829
21754WAT     H165504   5.330   7.389   8.756
21754WAT     H265505   5.250   7.309   8.874
21755WAT      O65506   6.426   8.806   9.842
21755WAT     H165507   6.351   8.747   9.813
21755WAT     H265508   6.400   8.902   9.827
21756WAT      O65509   7.536   9.695   8.072
21756WAT     H165510   7.634   9.680   8.084
21756WAT     H265511   7.522   9.758   7.996
21757WAT      O65512   7.321   1.280   9.580
21757WAT     H165513   7.395   1.225   9.542
21757WAT     H265514   7.334   1.289   9.679
21758WAT      O65515   7.779   1.581   7.455
21758WAT     H165516   7.683   1.607   7.457
21758WAT     H265517   7.787   1.485   7.429
21759WAT      O65518   5.798   9.223   2.030
21759WAT     H165519   5.788   9.278   1.948
21759WAT     H265520   5.726   9.154   2.033
21760WAT      O65521   5.016   2.655   2.270
21760WAT     H165522   5.070   2.700   2.341
21760WAT     H265523   4.923   2.638   2.305
21761WAT      O65524   5.167   0.512   0.470
21761WAT     H165525   5.128   0.427   0.436
21761WAT     H265526   5.103   0.555   0.535
21762WAT      O65527   7.456   3.419   1.995
21762WAT     H165528   7.444   3.509   2.038
21762WAT     H265529   7.512   3.361   2.054
21763WAT      O65530   1.978   7.911   1.370
21763WAT     H165531   1.916   7.984   1.400
21763WAT     H265532   2.002   7.926   1.273
21764WAT      O65533   0.611   3.378   6.307
21764WAT     H165534   0.575   3.345   6.395
21764WAT     H265535   0.575   3.470   6.289
21765WAT      O65536   9.567   8.582   0.236
21765WAT     H165537   9.539   8.514   0.169
21765WAT     H265538   9.571   8.672   0.192
21766WAT      O65539   6.497   4.534   6.285
21766WAT     H165540   6.443   4.563   6.207
21766WAT     H265541   6.452   4.563   6.370
21767WAT      O65542   7.959   0.234   6.977
21767WAT     H165543   7.951   0.149   6.926
21767WAT     H265544   7.925   0.220   7.070
21768WAT      O65545   8.574   1.506   5.512
21768WAT     H165546   8.640   1.558   5.458
21768WAT     H265547   8.604   1.500   5.607
21769WAT      O65548   0.481   1.673   3.073
21769WAT     H165549   0.565   1.724   3.094
21769WAT     H265550   0.489   1.580   3.106
21770WAT      O65551   3.255   7.871   6.988
21770WAT     H165552   3.245   7.954   7.043
21770WAT     H265553   3.164   7.843   6.955
21771WAT      O65554   2.246   3.151   6.929
21771WAT     H165555   2.171   3.208   6.895
21771WAT     H265556   2.270   3.083   6.860
21772WAT      O65557   0.405   8.503   9.158
21772WAT     H165558   0.503   8.524   9.162
21772WAT     H265559   0.391   8.407   9.184
21773WAT      O65560   4.703   7.107   1.915
21773WAT     H165561   4.622   7.103   1.973
21773WAT     H265562   4.783   7.078   1.967
21774WAT      O65563   4.759   6.715   2.267
21774WAT     H165564   4.834   6.744   2.327
21774WAT     H265565   4.774   6.750   2.175
21775WAT      O65566   0.112   7.392   8.966
21775WAT     H165567   0.126   7.293   8.957
21775WAT     H265568   0.046   7.409   9.038
21776WAT      O65569   6.270   8.105   2.957
21776WAT     H165570   6.297   8.118   2.862
21776WAT     H265571   6.241   8.192   2.996
21777WAT      O65572   8.572   3.497   2.982
21777WAT     H165573   8.566   3.458   3.073
21777WAT     H265574   8.482   3.529   2.953
21778WAT      O65575   7.422   1.374   7.212
21778WAT     H165576   7.362   1.294   7.207
21778WAT     H265577   7.373   1.455   7.179
21779WAT      O65578   7.188   3.100   3.882
21779WAT     H165579   7.188   3.182   3.939
21779WAT     H265580   7.224   3.122   3.791
21780WAT      O65581   0.645   1.948   1.650
21780WAT     H165582   0.600   2.034   1.627
21780WAT     H265583   0.578   1.882   1.683
21781WAT      O65584   4.592   7.769   7.882
21781WAT     H165585   4.545   7.787   7.796
21781WAT     H265586   4.594   7.852   7.938
21782WAT      O65587   7.732   0.775   9.623
21782WAT     H165588   7.765   0.707   9.688
21782WAT     H265589   7.632   0.780   9.628
21783WAT      O65590   2.719   4.130   8.943
21783WAT     H165591   2.783   4.126   8.866
21783WAT     H265592   2.630   4.162   8.909
21784WAT      O65593   8.268   1.136   9.722
21784WAT     H165594   8.351   1.080   9.712
21784WAT     H265595   8.294   1.229   9.748
21785WAT      O65596   4.552   2.401   8.997
21785WAT     H165597   4.577   2.494   9.022
21785WAT     H265598   4.529   2.349   9.079
21786WAT      O65599   7.517   5.207   8.716
21786WAT     H165600   7.495   5.304   8.705
21786WAT     H265601   7.604   5.198   8.766
21787WAT      O65602   2.401   1.202   3.523
21787WAT     H165603   2.364   1.215   3.430
21787WAT     H265604   2.494   1.237   3.526
21788WAT      O65605   3.332   6.286   9.729
21788WAT     H165606   3.345   6.378   9.692
21788WAT     H265607   3.248   6.284   9.784
21789WAT      O65608   4.310   3.344   2.117
21789WAT     H165609   4.272   3.277   2.054
21789WAT     H265610   4.236   3.397   2.159
21790WAT      O65611   7.092   0.839   9.536
21790WAT     H165612   7.129   0.747   9.547
21790WAT     H265613   7.134   0.900   9.604
21791WAT      O65614   0.988   8.115   2.728
21791WAT     H165615   1.052   8.062   2.673
21791WAT     H265616   0.943   8.184   2.671
21792WAT      O65617   2.192   5.319   8.020
21792WAT     H165618   2.203   5.311   7.920
21792WAT     H265619   2.108   5.273   8.048
21793WAT      O65620   1.085   7.463   6.939
21793WAT     H165621   1.018   7.456   7.013
21793WAT     H265622   1.091   7.375   6.891
21794WAT      O65623   4.229   3.698   8.486
21794WAT     H165624   4.252   3.659   8.397
21794WAT     H265625   4.133   3.678   8.507
21795WAT      O65626   4.437   4.288   3.242
21795WAT     H165627   4.380   4.247   3.171
21795WAT     H265628   4.487   4.216   3.291
21796WAT      O65629   8.112   4.431   5.419
21796WAT     H165630   8.104   4.497   5.494
21796WAT     H265631   8.205   4.435   5.381
21797WAT      O65632   3.285   4.073   0.942
21797WAT     H165633   3.312   4.157   0.895
21797WAT     H265634   3.309   3.994   0.886
21798WAT      O65635   7.815   2.312   1.268
21798WAT     H165636   7.905   2.286   1.233
21798WAT     H265637   7.799   2.409   1.251
21799WAT      O65638   6.784   0.430   6.153
21799WAT     H165639   6.855   0.359   6.151
21799WAT     H265640   6.823   0.515   6.188
21800WAT      O65641   8.560   2.739   5.443
21800WAT     H165642   8.540   2.644   5.468
21800WAT     H265643   8.566   2.794   5.526
21801WAT      O65644   4.252   8.986   2.022
21801WAT     H165645   4.346   9.014   2.043
21801WAT     H265646   4.252   8.895   1.983
21802WAT      O65647   4.593   6.214   4.166
21802WAT     H165648   4.540   6.267   4.232
21802WAT     H265649   4.587   6.258   4.076
21803WAT      O65650   4.647   4.261   2.353
21803WAT     H165651   4.738   4.293   2.380
21803WAT     H265652   4.653   4.211   2.266
21804WAT      O65653   8.041   2.610   1.311
21804WAT     H165654   8.054   2.570   1.402
21804WAT     H265655   8.085   2.700   1.308
21805WAT      O65656   1.059   9.406   6.762
21805WAT     H165657   1.111   9.334   6.717
21805WAT     H265658   0.981   9.431   6.705
21806WAT      O65659   7.588   3.025   1.644
21806WAT     H165660   7.557   2.967   1.719
21806WAT     H265661   7.674   3.069   1.668
21807WAT      O65662   6.871   7.047   4.038
21807WAT     H165663   6.775   7.026   4.017
21807WAT     H265664   6.890   7.142   4.014
21808WAT      O65665   4.310   7.370   8.917
21808WAT     H165666   4.390   7.429   8.910
21808WAT     H265667   4.338   7.275   8.928
21809WAT      O65668   0.018   0.330   5.531
21809WAT     H165669   0.050   0.244   5.569
21809WAT     H265670   0.063   0.346   5.443
21810WAT      O65671   0.730   5.489   9.328
21810WAT     H165672   0.642   5.487   9.281
21810WAT     H265673   0.719   5.458   9.422
21811WAT      O65674   0.198   4.736   8.198
21811WAT     H165675   0.218   4.821   8.247
21811WAT     H265676   0.113   4.696   8.231
21812WAT      O65677   4.700   8.906   7.057
21812WAT     H165678   4.766   8.838   7.089
21812WAT     H265679   4.615   8.860   7.031
21813WAT      O65680   3.541   1.233   9.704
21813WAT     H165681   3.557   1.149   9.756
21813WAT     H265682   3.608   1.241   9.631
21814WAT      O65683   7.720   2.505   8.193
21814WAT     H165684   7.708   2.604   8.202
21814WAT     H265685   7.718   2.463   8.284
21815WAT      O65686   2.233   1.753   9.058
21815WAT     H165687   2.310   1.761   8.994
21815WAT     H265688   2.234   1.663   9.101
21816WAT      O65689   6.632   6.626   0.613
21816WAT     H165690   6.557   6.560   0.610
21816WAT     H265691   6.714   6.585   0.573
21817WAT      O65692   7.546   0.100   6.357
21817WAT     H165693   7.490   0.181   6.341
21817WAT     H265694   7.503   0.042   6.426
21818WAT      O65695   5.513   4.076   9.738
21818WAT     H165696   5.612   4.063   9.747
21818WAT     H265697   5.483   4.151   9.797
21819WAT      O65698   4.462   7.455   1.640
21819WAT     H165699   4.403   7.468   1.560
21819WAT     H265700   4.444   7.365   1.681
21820WAT      O65701   7.383   7.895   4.993
21820WAT     H165702   7.391   7.811   4.939
21820WAT     H265703   7.474   7.928   5.016
21821WAT      O65704   2.541   6.148   5.217
21821WAT     H165705   2.537   6.129   5.315
21821WAT     H265706   2.582   6.239   5.203
21822WAT      O65707   1.317   8.306   4.736
21822WAT     H165708   1.253   8.258   4.677
21822WAT     H265709   1.374   8.367   4.681
21823WAT      O65710   5.599   5.223   0.414
21823WAT     H165711   5.615   5.250   0.319
21823WAT     H265712   5.502   5.203   0.428
21824WAT      O65713   0.308   9.687   6.506
21824WAT     H165714   0.345   9.596   6.526
21824WAT     H265715   0.262   9.722   6.588
21825WAT      O65716   3.424   9.154   7.230
21825WAT     H165717   3.387   9.160   7.323
21825WAT     H265718   3.349   9.140   7.165
21826WAT      O65719   8.440   1.038   8.448
21826WAT     H165720   8.371   1.002   8.511
21826WAT     H265721   8.419   1.010   8.355
21827WAT      O65722   6.500   3.413   5.981
21827WAT     H165723   6.426   3.366   6.030
21827WAT     H265724   6.588   3.384   6.019
21828WAT      O65725   3.500   8.482   8.000
21828WAT     H165726   3.598   8.497   7.991
21828WAT     H265727   3.458   8.560   8.047
21829WAT      O65728   1.172   2.138   1.989
21829WAT     H165729   1.159   2.079   1.909
21829WAT     H265730   1.212   2.225   1.960
21830WAT      O65731   4.153   5.863   5.895
21830WAT     H165732   4.127   5.960   5.886
21830WAT     H265733   4.216   5.853   5.972
21831WAT      O65734   3.463   2.329   3.132
21831WAT     H165735   3.441   2.342   3.035
21831WAT     H265736   3.560   2.309   3.142
21832WAT      O65737   2.901   1.960   0.263
21832WAT     H165738   2.874   2.052   0.293
21832WAT     H265739   2.822   1.899   0.270
21833WAT      O65740   9.260   6.819   3.290
21833WAT     H165741   9.240   6.914   3.315
21833WAT     H265742   9.322   6.818   3.212
21834WAT      O65743   1.579   1.471   7.302
21834WAT     H165744   1.649   1.479   7.230
21834WAT     H265745   1.582   1.379   7.341
21835WAT      O65746   4.520   5.190   5.969
21835WAT     H165747   4.618   5.208   5.979
21835WAT     H265748   4.490   5.126   6.040
21836WAT      O65749   6.004   9.726   7.467
21836WAT     H165750   5.987   9.818   7.433
21836WAT     H265751   6.087   9.726   7.523
21837WAT      O65752   6.952   6.280   0.180
21837WAT     H165753   6.854   6.281   0.199
21837WAT     H265754   6.978   6.364   0.133
21838WAT      O65755   8.429   1.923   7.099
21838WAT     H165756   8.348   1.952   7.047
21838WAT     H265757   8.412   1.833   7.140
21839WAT      O65758   2.603   9.635   2.125
21839WAT     H165759   2.566   9.543   2.110
21839WAT     H265760   2.527   9.700   2.134
21840WAT      O65761   7.931   9.004   4.414
21840WAT     H165762   7.843   9.023   4.370
21840WAT     H265763   7.947   9.071   4.487
21841WAT      O65764   7.578   6.210   4.936
21841WAT     H165765   7.589   6.114   4.962
21841WAT     H265766   7.612   6.269   5.009
21842WAT      O65767   0.023   4.204   8.806
21842WAT     H165768  -0.074   4.179   8.798
21842WAT     H265769   0.030   4.290   8.858
21843WAT      O65770   9.799   2.473   5.239
21843WAT     H165771   9.887   2.453   5.283
21843WAT     H265772   9.739   2.518   5.305
21844WAT      O65773   8.516   7.344   9.605
21844WAT     H165774   8.524   7.369   9.701
21844WAT     H265775   8.494   7.426   9.551
21845WAT      O65776   7.060   1.763   0.874
21845WAT     H165777   6.968   1.727   0.860
21845WAT     H265778   7.119   1.693   0.914
21846WAT      O65779   1.638   6.988   8.920
21846WAT     H165780   1.642   6.890   8.903
21846WAT     H265781   1.615   7.004   9.016
21847WAT      O65782   8.949   4.844   3.693
21847WAT     H165783   8.919   4.869   3.786
21847WAT     H265784   9.042   4.807   3.697
21848WAT      O65785   1.935   4.583   1.950
21848WAT     H165786   1.926   4.518   1.874
21848WAT     H265787   1.972   4.535   2.030
21849WAT      O65788   4.375   9.079   5.725
21849WAT     H165789   4.374   9.075   5.625
21849WAT     H265790   4.380   8.987   5.762
21850WAT      O65791   1.297   6.301   8.361
21850WAT     H165792   1.343   6.288   8.448
21850WAT     H265793   1.349   6.255   8.289
21851WAT      O65794   8.370   2.504   7.372
21851WAT     H165795   8.291   2.539   7.422
21851WAT     H265796   8.381   2.406   7.392
21852WAT      O65797   2.726   8.000   1.487
21852WAT     H165798   2.672   7.930   1.533
21852WAT     H265799   2.823   7.989   1.511
21853WAT      O65800   5.944  -0.001   6.912
21853WAT     H165801   5.992  -0.036   6.832
21853WAT     H265802   5.878   0.069   6.883
21854WAT      O65803   5.448   4.414   6.536
21854WAT     H165804   5.445   4.339   6.470
21854WAT     H265805   5.397   4.492   6.500
21855WAT      O65806   1.566   0.876   0.344
21855WAT     H165807   1.504   0.899   0.269
21855WAT     H265808   1.649   0.933   0.337
21856WAT      O65809   8.800   3.276   2.652
21856WAT     H165810   8.801   3.330   2.568
21856WAT     H265811   8.789   3.337   2.731
21857WAT      O65812   9.519   1.006   4.700
21857WAT     H165813   9.566   1.017   4.612
21857WAT     H265814   9.423   1.029   4.690
21858WAT      O65815   9.130   9.346   8.093
21858WAT     H165816   9.197   9.411   8.058
21858WAT     H265817   9.165   9.253   8.083
21859WAT      O65818   5.676   7.314   8.372
21859WAT     H165819   5.731   7.278   8.297
21859WAT     H265820   5.582   7.329   8.341
21860WAT      O65821   6.828   8.192   2.668
21860WAT     H165822   6.883   8.192   2.584
21860WAT     H265823   6.803   8.098   2.690
21861WAT      O65824   9.534   5.128   4.262
21861WAT     H165825   9.454   5.187   4.253
21861WAT     H265826   9.516   5.039   4.219
21862WAT      O65827   0.847   3.321   1.594
21862WAT     H165828   0.887   3.332   1.685
21862WAT     H265829   0.829   3.411   1.554
21863WAT      O65830   6.259   3.226   4.143
21863WAT     H165831   6.357   3.240   4.150
21863WAT     H265832   6.238   3.129   4.148
21864WAT      O65833   2.863   7.875   9.803
21864WAT     H165834   2.856   7.923   9.716
21864WAT     H265835   2.882   7.778   9.787
21865WAT      O65836   0.032   6.735   1.514
21865WAT     H165837  -0.067   6.746   1.525
21865WAT     H265838   0.075   6.824   1.504
21866WAT      O65839   8.823   6.274   6.231
21866WAT     H165840   8.849   6.365   6.199
21866WAT     H265841   8.727   6.257   6.207
21867WAT      O65842   8.417   2.819   1.872
21867WAT     H165843   8.409   2.735   1.925
21867WAT     H265844   8.328   2.842   1.833
21868WAT      O65845   6.181   9.125   7.052
21868WAT     H165846   6.145   9.032   7.054
21868WAT     H265847   6.181   9.159   6.958
21869WAT      O65848   7.521   0.675   8.447
21869WAT     H165849   7.548   0.735   8.523
21869WAT     H265850   7.554   0.713   8.361
21870WAT      O65851   2.019   1.920   0.552
21870WAT     H165852   2.109   1.881   0.568
21870WAT     H265853   2.028   2.014   0.519
21871WAT      O65854   4.624   8.171   3.906
21871WAT     H165855   4.702   8.132   3.956
21871WAT     H265856   4.620   8.130   3.815
21872WAT      O65857   2.073   8.528   0.942
21872WAT     H165858   2.137   8.461   0.981
21872WAT     H265859   1.980   8.491   0.947
21873WAT      O65860   9.088   6.533   9.742
21873WAT     H165861   9.112   6.464   9.811
21873WAT     H265862   9.091   6.624   9.783
21874WAT      O65863   7.141   1.080   6.632
21874WAT     H165864   7.162   0.988   6.663
21874WAT     H265865   7.049   1.105   6.660
21875WAT      O65866   7.218   8.947   7.155
21875WAT     H165867   7.237   8.853   7.181
21875WAT     H265868   7.271   9.010   7.212
21876WAT      O65869   5.748   9.311   8.887
21876WAT     H165870   5.840   9.290   8.922
21876WAT     H265871   5.688   9.334   8.964
21877WAT      O65872   6.314   2.770   7.673
21877WAT     H165873   6.222   2.736   7.687
21877WAT     H265874   6.372   2.698   7.635
21878WAT      O65875   0.674   3.766   1.661
21878WAT     H165876   0.734   3.774   1.740
21878WAT     H265877   0.596   3.708   1.684
21879WAT      O65878   4.692   5.385   0.659
21879WAT     H165879   4.785   5.353   0.675
21879WAT     H265880   4.627   5.317   0.692
21880WAT      O65881   1.748   5.946   8.625
21880WAT     H165882   1.692   5.976   8.702
21880WAT     H265883   1.754   5.846   8.625
21881WAT      O65884   7.125   7.955   4.439
21881WAT     H165885   7.069   8.027   4.480
21881WAT     H265886   7.178   7.993   4.363
21882WAT      O65887   5.427   6.398   0.396
21882WAT     H165888   5.398   6.351   0.314
21882WAT     H265889   5.403   6.495   0.390
21883WAT      O65890   0.035   0.310   4.513
21883WAT     H165891   0.098   0.351   4.579
21883WAT     H265892   0.005   0.220   4.546
21884WAT      O65893   0.461   3.503   9.118
21884WAT     H165894   0.368   3.471   9.140
21884WAT     H265895   0.491   3.567   9.189
21885WAT      O65896   0.547   4.089   8.712
21885WAT     H165897   0.547   4.136   8.800
21885WAT     H265898   0.510   4.150   8.642
21886WAT      O65899   1.641   0.921   4.875
21886WAT     H165900   1.736   0.926   4.842
21886WAT     H265901   1.640   0.880   4.966
21887WAT      O65902   4.192   1.912   5.413
21887WAT     H165903   4.201   1.813   5.422
21887WAT     H265904   4.211   1.956   5.501
21888WAT      O65905   1.351   3.835   8.859
21888WAT     H165906   1.409   3.839   8.940
21888WAT     H265907   1.365   3.917   8.804
21889WAT      O65908   1.902   6.802   1.395
21889WAT     H165909   1.884   6.844   1.484
21889WAT     H265910   1.918   6.704   1.407
21890WAT      O65911   8.273   9.800   6.208
21890WAT     H165912   8.353   9.743   6.190
21890WAT     H265913   8.197   9.769   6.151
21891WAT      O65914   4.584   5.385   2.175
21891WAT     H165915   4.563   5.476   2.142
21891WAT     H265916   4.604   5.389   2.273
21892WAT      O65917   0.067   3.365   3.934
21892WAT     H165918   0.096   3.320   3.850
21892WAT     H265919  -0.033   3.372   3.936
21893WAT      O65920   6.406   1.774   1.991
21893WAT     H165921   6.418   1.847   1.923
21893WAT     H265922   6.477   1.781   2.060
21894WAT      O65923   4.915   5.552   2.601
21894WAT     H165924   4.892   5.648   2.584
21894WAT     H265925   4.951   5.511   2.517
21895WAT      O65926   3.273   7.307   9.526
21895WAT     H165927   3.298   7.238   9.458
21895WAT     H265928   3.330   7.296   9.608
21896WAT      O65929   3.197   9.360   0.514
21896WAT     H165930   3.272   9.310   0.470
21896WAT     H265931   3.217   9.368   0.612
21897WAT      O65932   1.421   2.991   9.125
21897WAT     H165933   1.493   2.931   9.092
21897WAT     H265934   1.458   3.055   9.193
21898WAT      O65935   9.463   6.283   0.992
21898WAT     H165936   9.560   6.303   1.007
21898WAT     H265937   9.418   6.273   1.081
21899WAT      O65938   0.545   3.480   2.822
21899WAT     H165939   0.529   3.534   2.740
21899WAT     H265940   0.627   3.423   2.810
21900WAT      O65941   3.212   1.112   2.525
21900WAT     H165942   3.123   1.156   2.519
21900WAT     H265943   3.283   1.177   2.499
21901WAT      O65944   4.331   1.878   8.999
21901WAT     H165945   4.312   1.950   9.065
21901WAT     H265946   4.365   1.918   8.914
21902WAT      O65947   8.023   5.273   9.865
21902WAT     H165948   8.025   5.353   9.805
21902WAT     H265949   8.056   5.193   9.815
21903WAT      O65950   9.732   6.747   8.066
21903WAT     H165951   9.814   6.791   8.031
21903WAT     H265952   9.757   6.666   8.119
21904WAT      O65953   2.611   5.627   8.983
21904WAT     H165954   2.616   5.614   8.884
21904WAT     H265955   2.617   5.725   9.004
21905WAT      O65956   8.419   8.916   6.783
21905WAT     H165957   8.352   8.850   6.748
21905WAT     H265958   8.486   8.937   6.711
21906WAT      O65959   7.465   7.995   8.362
21906WAT     H165960   7.541   7.945   8.404
21906WAT     H265961   7.423   8.055   8.431
21907WAT      O65962   2.162   5.863   6.642
21907WAT     H165963   2.111   5.864   6.556
21907WAT     H265964   2.232   5.791   6.639
21908WAT      O65965   2.377   8.478   8.388
21908WAT     H165966   2.390   8.506   8.293
21908WAT     H265967   2.283   8.498   8.416
21909WAT      O65968   5.820   1.548   8.160
21909WAT     H165969   5.861   1.515   8.075
21909WAT     H265970   5.761   1.626   8.141
21910WAT      O65971   1.980   7.490   9.555
21910WAT     H165972   2.012   7.430   9.482
21910WAT     H265973   2.002   7.449   9.644
21911WAT      O65974   6.974   5.430   9.129
21911WAT     H165975   6.990   5.528   9.140
21911WAT     H265976   7.062   5.382   9.131
21912WAT      O65977   9.620   7.842   0.955
21912WAT     H165978   9.562   7.786   1.014
21912WAT     H265979   9.679   7.900   1.012
21913WAT      O65980   6.256   2.179   8.270
21913WAT     H165981   6.298   2.225   8.192
21913WAT     H265982   6.251   2.241   8.348
21914WAT      O65983   7.688   3.276   4.613
21914WAT     H165984   7.751   3.239   4.681
21914WAT     H265985   7.736   3.342   4.556
21915WAT      O65986   7.396   3.927   4.810
21915WAT     H165987   7.429   3.834   4.826
21915WAT     H265988   7.296   3.928   4.817
21916WAT      O65989   5.665   1.114   4.689
21916WAT     H165990   5.682   1.072   4.778
21916WAT     H265991   5.644   1.211   4.701
21917WAT      O65992   9.796   6.566   9.888
21917WAT     H165993   9.751   6.484   9.855
21917WAT     H265994   9.773   6.581   9.984
21918WAT      O65995   6.659   6.311   8.530
21918WAT     H165996   6.634   6.222   8.568
21918WAT     H265997   6.705   6.365   8.601
21919WAT      O65998   4.659   5.378   6.773
21919WAT     H165999   4.670   5.447   6.702
21919WAT     H266000   4.701   5.292   6.743
21920WAT      O66001   5.769   2.519   8.572
21920WAT     H166002   5.782   2.468   8.657
21920WAT     H266003   5.804   2.465   8.495
21921WAT      O66004   0.367   3.082   3.615
21921WAT     H166005   0.343   2.985   3.624
21921WAT     H266006   0.401   3.099   3.522
21922WAT      O66007   0.024   2.014   0.423
21922WAT     H166008  -0.000   1.957   0.344
21922WAT     H266009   0.122   2.033   0.421
21923WAT      O66010   0.815   0.315   4.404
21923WAT     H166011   0.736   0.354   4.452
21923WAT     H266012   0.812   0.215   4.411
21924WAT      O66013   8.389   5.583   7.715
21924WAT     H166014   8.331   5.502   7.716
21924WAT     H266015   8.422   5.601   7.808
21925WAT      O66016   8.925   0.395   3.493
21925WAT     H166017   8.967   0.343   3.567
21925WAT     H266018   8.962   0.488   3.491
21926WAT      O66019   1.738   9.517   3.262
21926WAT     H166020   1.681   9.533   3.343
21926WAT     H266021   1.689   9.549   3.181
21927WAT      O66022   0.242   1.565   0.221
21927WAT     H166023   0.272   1.570   0.317
21927WAT     H266024   0.316   1.597   0.161
21928WAT      O66025   5.896   0.049   9.453
21928WAT     H166026   5.963   0.077   9.522
21928WAT     H266027   5.877   0.126   9.392
21929WAT      O66028   3.531   9.534   6.300
21929WAT     H166029   3.506   9.595   6.226
21929WAT     H266030   3.448   9.499   6.344
21930WAT      O66031   8.750   8.000   6.625
21930WAT     H166032   8.849   7.997   6.641
21930WAT     H266033   8.712   7.908   6.631
21931WAT      O66034   4.993   7.718   8.187
21931WAT     H166035   4.903   7.673   8.188
21931WAT     H266036   5.015   7.747   8.095
21932WAT      O66037   3.976   6.116   0.654
21932WAT     H166038   3.893   6.084   0.699
21932WAT     H266039   3.997   6.209   0.685
21933WAT      O66040   6.109   4.688   4.907
21933WAT     H166041   6.046   4.761   4.880
21933WAT     H266042   6.108   4.678   5.006
21934WAT      O66043   6.952   8.732   6.250
21934WAT     H166044   7.018   8.674   6.297
21934WAT     H266045   6.929   8.693   6.162
21935WAT      O66046   7.396   4.801   6.307
21935WAT     H166047   7.388   4.897   6.279
21935WAT     H266048   7.464   4.756   6.250
21936WAT      O66049   1.076   6.514   3.551
21936WAT     H166050   1.160   6.466   3.577
21936WAT     H266051   1.030   6.464   3.478
21937WAT      O66052   7.463   3.197   7.022
21937WAT     H166053   7.476   3.285   6.977
21937WAT     H266054   7.398   3.142   6.969
21938WAT      O66055   0.338   6.114   2.860
21938WAT     H166056   0.434   6.143   2.863
21938WAT     H266057   0.308   6.087   2.951
21939WAT      O66058   9.145   6.285   6.506
21939WAT     H166059   9.071   6.219   6.491
21939WAT     H266060   9.225   6.238   6.541
21940WAT      O66061   9.328   6.991   3.667
21940WAT     H166062   9.344   6.954   3.758
21940WAT     H266063   9.275   7.076   3.674
21941WAT      O66064   2.526   0.419   2.944
21941WAT     H166065   2.550   0.398   2.850
21941WAT     H266066   2.439   0.375   2.968
21942WAT      O66067   9.372   9.659   3.245
21942WAT     H166068   9.291   9.604   3.228
21942WAT     H266069   9.406   9.641   3.337
21943WAT      O66070   3.864   7.144   8.531
21943WAT     H166071   3.790   7.131   8.465
21943WAT     H266072   3.949   7.166   8.482
21944WAT      O66073   8.250   3.380   0.405
21944WAT     H166074   8.347   3.368   0.423
21944WAT     H266075   8.197   3.339   0.479
21945WAT      O66076   7.742   4.938   0.478
21945WAT     H166077   7.763   4.966   0.384
21945WAT     H266078   7.675   5.001   0.517
21946WAT      O66079   8.159   2.483   0.927
21946WAT     H166080   8.228   2.414   0.903
21946WAT     H266081   8.081   2.475   0.865
21947WAT      O66082   8.629   5.532   9.451
21947WAT     H166083   8.709   5.574   9.409
21947WAT     H266084   8.647   5.435   9.466
21948WAT      O66085   3.238   1.606   4.946
21948WAT     H166086   3.141   1.583   4.944
21948WAT     H266087   3.266   1.627   5.040
21949WAT      O66088   5.506   9.216   2.905
21949WAT     H166089   5.422   9.173   2.938
21949WAT     H266090   5.483   9.301   2.857
21950WAT      O66091   7.075   3.908   8.708
21950WAT     H166092   7.172   3.916   8.685
21950WAT     H266093   7.029   3.851   8.641
21951WAT      O66094   7.186   5.000   1.645
21951WAT     H166095   7.215   4.974   1.737
21951WAT     H266096   7.108   4.944   1.617
21952WAT      O66097   4.656   2.561   8.202
21952WAT     H166098   4.661   2.605   8.112
21952WAT     H266099   4.674   2.630   8.273
21953WAT      O66100   6.420   1.940   3.644
21953WAT     H166101   6.329   1.973   3.668
21953WAT     H266102   6.470   1.917   3.728
21954WAT      O66103   2.167   7.280   0.122
21954WAT     H166104   2.140   7.205   0.061
21954WAT     H266105   2.105   7.282   0.200
21955WAT      O66106   3.586   3.265   6.097
21955WAT     H166107   3.630   3.180   6.129
21955WAT     H266108   3.487   3.256   6.103
21956WAT      O66109   0.927   5.047   5.429
21956WAT     H166110   0.901   4.981   5.359
21956WAT     H266111   0.878   5.133   5.414
21957WAT      O66112   9.490   0.740   3.129
21957WAT     H166113   9.415   0.746   3.064
21957WAT     H266114   9.492   0.648   3.169
21958WAT      O66115   4.438   7.129   8.171
21958WAT     H166116   4.463   7.162   8.262
21958WAT     H266117   4.338   7.125   8.164
21959WAT      O66118   2.926   5.701   7.984
21959WAT     H166119   2.906   5.703   8.082
21959WAT     H266120   2.954   5.608   7.958
21960WAT      O66121   2.981   7.817   7.225
21960WAT     H166122   2.970   7.720   7.247
21960WAT     H266123   2.912   7.845   7.159
21961WAT      O66124   7.705   3.757   7.964
21961WAT     H166125   7.634   3.688   7.957
21961WAT     H266126   7.692   3.810   8.048
21962WAT      O66127   8.218   2.099   2.588
21962WAT     H166128   8.158   2.149   2.650
21962WAT     H266129   8.311   2.135   2.595
21963WAT      O66130   6.663   8.516   4.761
21963WAT     H166131   6.744   8.460   4.747
21963WAT     H266132   6.581   8.459   4.751
21964WAT      O66133   0.057   2.857   9.222
21964WAT     H166134  -0.032   2.815   9.207
21964WAT     H266135   0.071   2.931   9.157
21965WAT      O66136   3.100   1.968   0.772
21965WAT     H166137   3.176   1.999   0.714
21965WAT     H266138   3.014   1.977   0.722
21966WAT      O66139   5.969   6.743   5.656
21966WAT     H166140   5.967   6.706   5.749
21966WAT     H266141   6.035   6.691   5.602
21967WAT      O66142   5.758   5.282   7.375
21967WAT     H166143   5.701   5.202   7.356
21967WAT     H266144   5.838   5.254   7.429
21968WAT      O66145   2.837   4.904   4.685
21968WAT     H166146   2.909   4.891   4.752
21968WAT     H266147   2.868   4.873   4.595
21969WAT      O66148   2.820   4.329   9.672
21969WAT     H166149   2.734   4.299   9.632
21969WAT     H266150   2.831   4.427   9.659
21970WAT      O66151   5.258   8.679   4.659
21970WAT     H166152   5.274   8.749   4.589
21970WAT     H266153   5.344   8.659   4.706
21971WAT      O66154   2.996   2.971   9.262
21971WAT     H166155   3.067   2.945   9.328
21971WAT     H266156   3.010   3.065   9.233
21972WAT      O66157   7.725   3.655   2.097
21972WAT     H166158   7.739   3.697   2.007
21972WAT     H266159   7.628   3.655   2.120
21973WAT      O66160   6.523   2.315   4.681
21973WAT     H166161   6.593   2.347   4.746
21973WAT     H266162   6.459   2.255   4.728
21974WAT      O66163   4.507   1.401   3.008
21974WAT     H166164   4.544   1.494   3.004
21974WAT     H266165   4.440   1.389   2.934
21975WAT      O66166   0.040   1.898   1.299
21975WAT     H166167  -0.003   1.869   1.384
21975WAT     H266168   0.005   1.988   1.273
21976WAT      O66169   1.872   5.137   0.407
21976WAT     H166170   1.884   5.164   0.502
21976WAT     H266171   1.904   5.210   0.347
21977WAT      O66172   4.707   5.155   8.720
21977WAT     H166173   4.692   5.064   8.758
21977WAT     H266174   4.804   5.167   8.700
21978WAT      O66175   6.829   1.018   6.611
21978WAT     H166176   6.751   0.973   6.570
21978WAT     H266177   6.809   1.040   6.707
21979WAT      O66178   8.627   0.969   1.764
21979WAT     H166179   8.629   0.900   1.837
21979WAT     H266180   8.623   1.060   1.805
21980WAT      O66181   9.808   1.842   1.521
21980WAT     H166182   9.711   1.835   1.545
21980WAT     H266183   9.853   1.908   1.580
21981WAT      O66184   7.808   5.131   5.071
21981WAT     H166185   7.783   5.228   5.067
21981WAT     H266186   7.835   5.107   5.164
21982WAT      O66187   5.516   4.078   5.225
21982WAT     H166188   5.530   4.110   5.318
21982WAT     H266189   5.604   4.049   5.186
21983WAT      O66190   5.854   2.092   0.906
21983WAT     H166191   5.779   2.147   0.944
21983WAT     H266192   5.870   2.119   0.811
21984WAT      O66193   1.132   0.240   6.160
21984WAT     H166194   1.033   0.235   6.178
21984WAT     H266195   1.151   0.315   6.097
21985WAT      O66196   8.688   2.859   9.440
21985WAT     H166197   8.632   2.929   9.396
21985WAT     H266198   8.760   2.904   9.493
21986WAT      O66199   4.071   8.567   8.756
21986WAT     H166200   4.041   8.537   8.666
21986WAT     H266201   4.065   8.491   8.821
21987WAT      O66202   9.174   4.126   0.949
21987WAT     H166203   9.217   4.141   1.039
21987WAT     H266204   9.141   4.213   0.913
21988WAT      O66205   8.670   6.026   9.043
21988WAT     H166206   8.655   6.069   8.954
21988WAT     H266207   8.727   6.085   9.099
21989WAT      O66208   4.340   8.097   4.836
21989WAT     H166209   4.241   8.084   4.821
21989WAT     H266210   4.385   8.115   4.748
21990WAT      O66211   2.787   0.950   4.379
21990WAT     H166212   2.792   1.048   4.362
21990WAT     H266213   2.816   0.900   4.297
21991WAT      O66214   6.890   2.748   4.196
21991WAT     H166215   6.962   2.818   4.195
21991WAT     H266216   6.824   2.769   4.268
21992WAT      O66217   7.524   6.937   4.992
21992WAT     H166218   7.529   6.838   5.003
21992WAT     H266219   7.541   6.982   5.080
21993WAT      O66220   2.593   3.100   1.560
21993WAT     H166221   2.532   3.175   1.584
21993WAT     H266222   2.671   3.136   1.507
21994WAT      O66223   8.564   9.021   3.096
21994WAT     H166224   8.587   9.009   3.000
21994WAT     H266225   8.575   9.117   3.122
21995WAT      O66226   6.785   6.310   0.725
21995WAT     H166227   6.867   6.275   0.770
21995WAT     H266228   6.711   6.317   0.792
21996WAT      O66229   8.872   4.032   9.062
21996WAT     H166230   8.841   4.077   9.146
21996WAT     H266231   8.794   3.991   9.015
21997WAT      O66232   2.937   5.068   0.136
21997WAT     H166233   2.936   5.154   0.186
21997WAT     H266234   2.985   5.081   0.049
21998WAT      O66235   2.920   4.055   1.507
21998WAT     H166236   2.854   4.124   1.477
21998WAT     H266237   2.994   4.049   1.439
21999WAT      O66238   4.965   9.650   1.783
21999WAT     H166239   5.060   9.622   1.797
21999WAT     H266240   4.961   9.714   1.706
22000WAT      O66241   7.221   6.744   3.161
22000WAT     H166242   7.139   6.801   3.167
22000WAT     H266243   7.280   6.776   3.087
22001WAT      O66244   5.303   0.936   3.901
22001WAT     H166245   5.245   1.008   3.938
22001WAT     H266246   5.383   0.924   3.960
22002WAT      O66247   8.842   4.090   7.075
22002WAT     H166248   8.819   3.992   7.076
22002WAT     H266249   8.830   4.126   6.982
22003WAT      O66250   7.675   7.792   9.511
22003WAT     H166251   7.589   7.839   9.494
22003WAT     H266252   7.694   7.793   9.610
22004WAT      O66253   1.511   6.183   0.786
22004WAT     H166254   1.496   6.169   0.688
22004WAT     H266255   1.426   6.212   0.828
22005WAT      O66256   5.307   1.686   4.882
22005WAT     H166257   5.324   1.764   4.943
22005WAT     H266258   5.264   1.612   4.934
22006WAT      O66259   8.525   3.469   5.937
22006WAT     H166260   8.529   3.377   5.975
22006WAT     H266261   8.605   3.485   5.879
22007WAT      O66262   3.451   7.110   5.358
22007WAT     H166263   3.438   7.135   5.454
22007WAT     H266264   3.363   7.087   5.317
22008WAT      O66265   2.827   6.678   2.943
22008WAT     H166266   2.781   6.625   3.015
22008WAT     H266267   2.833   6.622   2.860
22009WAT      O66268   8.996   5.668   4.755
22009WAT     H166269   9.049   5.698   4.834
22009WAT     H266270   9.057   5.647   4.679
22010WAT      O66271   3.970   3.369   5.191
22010WAT     H166272   4.029   3.386   5.270
22010WAT     H266273   3.977   3.272   5.165
22011WAT      O66274   3.944   1.635   2.732
22011WAT     H166275   4.015   1.651   2.800
22011WAT     H266276   3.926   1.720   2.681
22012WAT      O66277   9.263   0.035   5.245
22012WAT     H166278   9.168   0.035   5.279
22012WAT     H266279   9.325   0.043   5.323
22013WAT      O66280   0.625   2.175   8.474
22013WAT     H166281   0.530   2.144   8.484
22013WAT     H266282   0.667   2.183   8.564
22014WAT      O66283   2.900   6.967   6.591
22014WAT     H166284   2.844   6.884   6.587
22014WAT     H266285   2.897   7.005   6.684
22015WAT      O66286   1.006   3.958   1.150
22015WAT     H166287   1.067   3.889   1.111
22015WAT     H266288   0.927   3.913   1.192
22016WAT      O66289   1.570   7.580   2.072
22016WAT     H166290   1.561   7.628   1.985
22016WAT     H266291   1.480   7.569   2.114
22017WAT      O66292   5.407   2.634   0.674
22017WAT     H166293   5.359   2.546   0.675
22017WAT     H266294   5.498   2.621   0.634
22018WAT      O66295   0.583   0.052   5.455
22018WAT     H166296   0.526   0.117   5.505
22018WAT     H266297   0.539   0.029   5.368
22019WAT      O66298   4.575   7.286   7.986
22019WAT     H166299   4.505   7.225   8.022
22019WAT     H266300   4.531   7.369   7.950
22020WAT      O66301   9.644   8.961   2.262
22020WAT     H166302   9.712   8.957   2.189
22020WAT     H266303   9.683   8.926   2.347
22021WAT      O66304   4.662   1.391   0.937
22021WAT     H166305   4.586   1.452   0.958
22021WAT     H266306   4.627   1.303   0.905
22022WAT      O66307   7.525   1.101   1.590
22022WAT     H166308   7.495   1.173   1.653
22022WAT     H266309   7.524   1.013   1.636
22023WAT      O66310   9.373   7.595   5.459
22023WAT     H166311   9.295   7.655   5.475
22023WAT     H266312   9.352   7.503   5.492
22024WAT      O66313   2.125   1.160   2.922
22024WAT     H166314   2.078   1.181   3.008
22024WAT     H266315   2.066   1.104   2.865
22025WAT      O66316   9.099   8.854   5.554
22025WAT     H166317   9.088   8.818   5.461
22025WAT     H266318   9.049   8.796   5.619
22026WAT      O66319   9.855   8.187   0.858
22026WAT     H166320   9.933   8.175   0.919
22026WAT     H266321   9.800   8.265   0.888
22027WAT      O66322   0.169   7.557   0.728
22027WAT     H166323   0.185   7.541   0.825
22027WAT     H266324   0.094   7.498   0.697
22028WAT      O66325   3.472   5.824   9.423
22028WAT     H166326   3.537   5.863   9.359
22028WAT     H266327   3.385   5.807   9.376
22029WAT      O66328   0.537   4.228   1.524
22029WAT     H166329   0.556   4.157   1.592
22029WAT     H266330   0.510   4.185   1.437
22030WAT      O66331   2.379   2.855   1.858
22030WAT     H166332   2.448   2.784   1.851
22030WAT     H266333   2.381   2.913   1.777
22031WAT      O66334   3.312   2.536   6.361
22031WAT     H166335   3.331   2.485   6.277
22031WAT     H266336   3.217   2.521   6.387
22032WAT      O66337   8.923   2.764   9.304
22032WAT     H166338   8.971   2.676   9.310
22032WAT     H266339   8.848   2.766   9.369
22033WAT      O66340   4.742   8.439   7.981
22033WAT     H166341   4.830   8.468   8.019
22033WAT     H266342   4.748   8.442   7.881
22034WAT      O66343   7.243   2.659   4.878
22034WAT     H166344   7.205   2.742   4.920
22034WAT     H266345   7.341   2.672   4.863
22035WAT      O66346   8.430   6.334   2.680
22035WAT     H166347   8.405   6.383   2.763
22035WAT     H266348   8.355   6.338   2.615
22036WAT      O66349   1.327   3.214   3.427
22036WAT     H166350   1.385   3.137   3.454
22036WAT     H266351   1.233   3.182   3.415
22037WAT      O66352   8.174   4.906   8.390
22037WAT     H166353   8.206   4.959   8.469
22037WAT     H266354   8.074   4.914   8.384
22038WAT      O66355   4.353   1.957   7.741
22038WAT     H166356   4.286   2.009   7.794
22038WAT     H266357   4.308   1.914   7.663
22039WAT      O66358   8.578   6.107   6.508
22039WAT     H166359   8.608   6.200   6.532
22039WAT     H266360   8.652   6.043   6.525
22040WAT      O66361   6.934   8.500   9.188
22040WAT     H166362   6.962   8.574   9.127
22040WAT     H266363   6.854   8.530   9.241
22041WAT      O66364   0.463   8.537   2.845
22041WAT     H166365   0.409   8.486   2.778
22041WAT     H266366   0.470   8.632   2.816
22042WAT      O66367   0.547   5.349   6.153
22042WAT     H166368   0.558   5.292   6.234
22042WAT     H266369   0.637   5.380   6.122
22043WAT      O66370   7.771   4.641   5.650
22043WAT     H166371   7.870   4.654   5.660
22043WAT     H266372   7.743   4.666   5.558
22044WAT      O66373   1.722   0.586   9.257
22044WAT     H166374   1.687   0.562   9.347
22044WAT     H266375   1.783   0.664   9.264
22045WAT      O66376   4.326   1.168   3.639
22045WAT     H166377   4.229   1.150   3.623
22045WAT     H266378   4.337   1.221   3.723
22046WAT      O66379   5.720   2.566   1.505
22046WAT     H166380   5.684   2.655   1.476
22046WAT     H266381   5.657   2.494   1.475
22047WAT      O66382   5.919   6.619   0.326
22047WAT     H166383   5.874   6.655   0.244
22047WAT     H266384   5.869   6.539   0.358
22048WAT      O66385   9.426   2.701   2.067
22048WAT     H166386   9.427   2.692   2.166
22048WAT     H266387   9.414   2.611   2.025
22049WAT      O66388   8.503   6.619   6.530
22049WAT     H166389   8.591   6.659   6.555
22049WAT     H266390   8.475   6.656   6.441
22050WAT      O66391   9.314   6.039   8.295
22050WAT     H166392   9.337   6.106   8.224
22050WAT     H266393   9.379   6.047   8.370
22051WAT      O66394   6.912   8.775   9.814
22051WAT     H166395   6.951   8.706   9.754
22051WAT     H266396   6.985   8.823   9.862
22052WAT      O66397   3.558   6.231   6.536
22052WAT     H166398   3.603   6.212   6.623
22052WAT     H266399   3.529   6.327   6.534
22053WAT      O66400   0.008   3.285   7.499
22053WAT     H166401   0.056   3.369   7.523
22053WAT     H266402  -0.033   3.245   7.581
22054WAT      O66403   1.853   4.992   9.265
22054WAT     H166404   1.887   4.932   9.192
22054WAT     H266405   1.929   5.016   9.326
22055WAT      O66406   6.175   7.736   5.988
22055WAT     H166407   6.207   7.759   6.080
22055WAT     H266408   6.105   7.802   5.960
22056WAT      O66409   2.374   0.822   1.109
22056WAT     H166410   2.278   0.848   1.099
22056WAT     H266411   2.381   0.743   1.169
22057WAT      O66412   0.491   9.500   9.456
22057WAT     H166413   0.394   9.521   9.466
22057WAT     H266414   0.504   9.401   9.462
22058WAT      O66415   5.136   6.031   9.716
22058WAT     H166416   5.172   6.052   9.625
22058WAT     H266417   5.038   6.053   9.719
22059WAT      O66418   5.801   7.124   3.884
22059WAT     H166419   5.775   7.220   3.882
22059WAT     H266420   5.802   7.091   3.978
22060WAT      O66421   1.966   5.012   6.459
22060WAT     H166422   1.991   5.087   6.398
22060WAT     H266423   1.866   5.011   6.470
22061WAT      O66424   4.034   8.674   1.595
22061WAT     H166425   3.951   8.710   1.638
22061WAT     H266426   4.111   8.734   1.618
22062WAT      O66427   8.937   8.720   2.123
22062WAT     H166428   8.999   8.765   2.059
22062WAT     H266429   8.896   8.788   2.184
22063WAT      O66430   3.093   1.637   0.746
22063WAT     H166431   3.071   1.651   0.649
22063WAT     H266432   3.180   1.681   0.766
22064WAT      O66433   2.803   0.252   5.383
22064WAT     H166434   2.890   0.222   5.422
22064WAT     H266435   2.820   0.308   5.302
22065WAT      O66436   8.680   8.680   8.665
22065WAT     H166437   8.590   8.637   8.661
22065WAT     H266438   8.695   8.736   8.584
22066WAT      O66439   3.352   9.779   9.484
22066WAT     H166440   3.428   9.714   9.472
22066WAT     H266441   3.327   9.818   9.396
22067WAT      O66442   4.274   9.059   8.033
22067WAT     H166443   4.351   9.004   7.998
22067WAT     H266444   4.199   8.998   8.059
22068WAT      O66445   5.554   2.788   4.126
22068WAT     H166446   5.455   2.785   4.137
22068WAT     H266447   5.588   2.699   4.095
22069WAT      O66448   5.556   2.400   1.370
22069WAT     H166449   5.542   2.458   1.289
22069WAT     H266450   5.525   2.307   1.349
22070WAT      O66451   2.730   6.379   5.091
22070WAT     H166452   2.722   6.435   5.009
22070WAT     H266453   2.803   6.311   5.078
22071WAT      O66454   3.233   6.114   6.111
22071WAT     H166455   3.236   6.203   6.065
22071WAT     H266456   3.212   6.128   6.208
22072WAT      O66457   9.369   8.666   9.508
22072WAT     H166458   9.347   8.750   9.458
22072WAT     H266459   9.331   8.587   9.460
22073WAT      O66460   1.815   4.497   0.742
22073WAT     H166461   1.802   4.539   0.832
22073WAT     H266462   1.736   4.440   0.719
22074WAT      O66463   3.464   9.762   6.103
22074WAT     H166464   3.477   9.858   6.079
22074WAT     H266465   3.518   9.705   6.041
22075WAT      O66466   2.344   3.613   2.763
22075WAT     H166467   2.423   3.669   2.789
22075WAT     H266468   2.282   3.668   2.707
22076WAT      O66469   1.052   4.022   5.094
22076WAT     H166470   0.965   4.005   5.047
22076WAT     H266471   1.047   3.986   5.187
22077WAT      O66472   6.840   4.041   6.290
22077WAT     H166473   6.891   3.955   6.291
22077WAT     H266474   6.813   4.062   6.196
22078WAT      O66475   6.912   0.734   5.630
22078WAT     H166476   6.889   0.817   5.681
22078WAT     H266477   6.861   0.732   5.544
22079WAT      O66478   2.849   8.762   5.873
22079WAT     H166479   2.866   8.858   5.849
22079WAT     H266480   2.769   8.729   5.824
22080WAT      O66481   0.635   5.694   2.745
22080WAT     H166482   0.643   5.610   2.692
22080WAT     H266483   0.706   5.697   2.816
22081WAT      O66484   2.479   3.372   1.254
22081WAT     H166485   2.430   3.447   1.298
22081WAT     H266486   2.414   3.303   1.223
22082WAT      O66487   1.079   5.887   3.092
22082WAT     H166488   0.998   5.871   3.148
22082WAT     H266489   1.160   5.892   3.150
22083WAT      O66490   5.652   3.388   2.156
22083WAT     H166491   5.748   3.386   2.129
22083WAT     H266492   5.595   3.404   2.076
22084WAT      O66493   5.363   3.896   0.741
22084WAT     H166494   5.272   3.925   0.710
22084WAT     H266495   5.410   3.849   0.667
22085WAT      O66496   0.121   9.683   4.461
22085WAT     H166497   0.185   9.753   4.493
22085WAT     H266498   0.157   9.593   4.485
22086WAT      O66499   6.481   6.384   8.181
22086WAT     H166500   6.569   6.362   8.223
22086WAT     H266501   6.432   6.300   8.160
22087WAT      O66502   9.490   1.750   6.207
22087WAT     H166503   9.538   1.755   6.294
22087WAT     H266504   9.442   1.662   6.200
22088WAT      O66505   4.951   5.770   8.026
22088WAT     H166506   5.005   5.853   8.009
22088WAT     H266507   4.981   5.698   7.963
22089WAT      O66508   8.871   3.118   4.873
22089WAT     H166509   8.943   3.108   4.805
22089WAT     H266510   8.810   3.039   4.869
22090WAT      O66511   6.829   1.548   8.041
22090WAT     H166512   6.838   1.503   7.953
22090WAT     H266513   6.733   1.545   8.071
22091WAT      O66514   4.294   3.496   3.433
22091WAT     H166515   4.288   3.474   3.336
22091WAT     H266516   4.299   3.411   3.486
22092WAT      O66517   8.095   6.495   8.755
22092WAT     H166518   8.020   6.549   8.793
22092WAT     H266519   8.134   6.543   8.676
22093WAT      O66520   1.780   7.324   5.297
22093WAT     H166521   1.860   7.343   5.240
22093WAT     H266522   1.766   7.399   5.361
22094WAT      O66523   4.964   6.609   7.060
22094WAT     H166524   5.061   6.616   7.083
22094WAT     H266525   4.952   6.621   6.961
22095WAT      O66526   9.604   1.613   4.214
22095WAT     H166527   9.513   1.572   4.204
22095WAT     H266528   9.666   1.572   4.147
22096WAT      O66529   8.645   3.503   5.319
22096WAT     H166530   8.724   3.515   5.259
22096WAT     H266531   8.642   3.409   5.353
22097WAT      O66532   3.490   7.739   7.114
22097WAT     H166533   3.435   7.809   7.069
22097WAT     H266534   3.450   7.649   7.095
22098WAT      O66535   1.962   0.332   1.719
22098WAT     H166536   1.914   0.419   1.734
22098WAT     H266537   1.916   0.260   1.770
22099WAT      O66538   6.910   1.015   1.438
22099WAT     H166539   6.866   1.077   1.373
22099WAT     H266540   6.900   0.921   1.405
22100WAT      O66541   3.570   5.443   1.303
22100WAT     H166542   3.577   5.390   1.387
22100WAT     H266543   3.525   5.530   1.321
22101WAT      O66544   2.511   8.087   1.823
22101WAT     H166545   2.573   8.161   1.797
22101WAT     H266546   2.562   8.002   1.832
22102WAT      O66547   7.360   6.845   8.366
22102WAT     H166548   7.448   6.813   8.330
22102WAT     H266549   7.348   6.942   8.344
22103WAT      O66550   1.104   5.900   6.981
22103WAT     H166551   1.126   5.982   7.035
22103WAT     H266552   1.179   5.835   6.988
22104WAT      O66553   4.118   2.005   4.411
22104WAT     H166554   4.149   1.916   4.445
22104WAT     H266555   4.080   1.994   4.320
22105WAT      O66556   3.535   7.240   3.452
22105WAT     H166557   3.477   7.322   3.453
22105WAT     H266558   3.521   7.190   3.366
22106WAT      O66559   0.096   1.376   6.659
22106WAT     H166560   0.051   1.293   6.693
22106WAT     H266561   0.031   1.431   6.607
22107WAT      O66562   6.608   5.306   2.220
22107WAT     H166563   6.686   5.353   2.261
22107WAT     H266564   6.523   5.342   2.260
22108WAT      O66565   1.737   7.323   2.919
22108WAT     H166566   1.770   7.404   2.869
22108WAT     H266567   1.638   7.327   2.926
22109WAT      O66568   7.480   9.407   2.633
22109WAT     H166569   7.388   9.426   2.597
22109WAT     H266570   7.477   9.407   2.733
22110WAT      O66571   6.625   2.127   4.933
22110WAT     H166572   6.703   2.101   4.876
22110WAT     H266573   6.657   2.171   5.017
22111WAT      O66574   5.620   9.711   1.383
22111WAT     H166575   5.528   9.750   1.371
22111WAT     H266576   5.626   9.667   1.472
22112WAT      O66577   1.339   9.197   8.672
22112WAT     H166578   1.298   9.146   8.748
22112WAT     H266579   1.279   9.193   8.593
22113WAT      O66580   7.729   7.661   6.445
22113WAT     H166581   7.735   7.594   6.519
22113WAT     H266582   7.652   7.722   6.461
22114WAT      O66583   2.798   1.478   4.205
22114WAT     H166584   2.759   1.571   4.212
22114WAT     H266585   2.808   1.454   4.109
22115WAT      O66586   7.313   8.807   6.270
22115WAT     H166587   7.259   8.890   6.286
22115WAT     H266588   7.399   8.832   6.225
22116WAT      O66589   6.947   3.376   4.301
22116WAT     H166590   7.010   3.449   4.328
22116WAT     H266591   6.949   3.304   4.370
22117WAT      O66592   1.562   7.867   1.012
22117WAT     H166593   1.598   7.774   1.015
22117WAT     H266594   1.598   7.915   0.932
22118WAT      O66595   0.045   0.212   0.443
22118WAT     H166596   0.121   0.176   0.497
22118WAT     H266597  -0.033   0.228   0.503
22119WAT      O66598   3.316   7.884   8.657
22119WAT     H166599   3.339   7.970   8.612
22119WAT     H266600   3.234   7.896   8.712
22120WAT      O66601   3.353   0.180   1.661
22120WAT     H166602   3.421   0.112   1.688
22120WAT     H266603   3.396   0.270   1.652
22121WAT      O66604   7.492   4.138   0.016
22121WAT     H166605   7.582   4.098   0.026
22121WAT     H266606   7.467   4.185   0.101
22122WAT      O66607   5.538   5.373   3.856
22122WAT     H166608   5.587   5.444   3.805
22122WAT     H266609   5.552   5.284   3.812
22123WAT      O66610   0.579   8.439   6.638
22123WAT     H166611   0.576   8.457   6.736
22123WAT     H266612   0.486   8.420   6.605
22124WAT      O66613   7.607   6.999   7.530
22124WAT     H166614   7.571   7.082   7.571
22124WAT     H266615   7.649   6.942   7.601
22125WAT      O66616   8.339   0.081   4.687
22125WAT     H166617   8.279   0.137   4.745
22125WAT     H266618   8.285   0.009   4.644
22126WAT      O66619   5.052   1.458   6.880
22126WAT     H166620   5.099   1.544   6.858
22126WAT     H266621   5.119   1.384   6.882
22127WAT      O66622   3.123   3.292   7.433
22127WAT     H166623   3.089   3.382   7.460
22127WAT     H266624   3.097   3.275   7.337
22128WAT      O66625   8.403   1.633   0.735
22128WAT     H166626   8.392   1.551   0.791
22128WAT     H266627   8.492   1.633   0.691
22129WAT      O66628   8.964   6.774   8.126
22129WAT     H166629   8.910   6.692   8.110
22129WAT     H266630   9.005   6.805   8.040
22130WAT      O66631   9.252   7.894   0.628
22130WAT     H166632   9.275   7.882   0.724
22130WAT     H266633   9.336   7.890   0.573
22131WAT      O66634   4.893   0.891   4.780
22131WAT     H166635   4.859   0.815   4.835
22131WAT     H266636   4.829   0.910   4.706
22132WAT      O66637   7.360   1.899   6.964
22132WAT     H166638   7.339   1.822   7.024
22132WAT     H266639   7.282   1.961   6.961
22133WAT      O66640   5.804   4.577   1.791
22133WAT     H166641   5.878   4.556   1.855
22133WAT     H266642   5.828   4.658   1.737
22134WAT      O66643   5.975   2.147   6.709
22134WAT     H166644   5.937   2.054   6.711
22134WAT     H266645   6.037   2.156   6.631
22135WAT      O66646   4.665   5.527   2.718
22135WAT     H166647   4.632   5.435   2.743
22135WAT     H266648   4.765   5.525   2.710
22136WAT      O66649   8.707   3.359   5.671
22136WAT     H166650   8.758   3.421   5.730
22136WAT     H266651   8.763   3.334   5.592
22137WAT      O66652   3.847   4.935   6.557
22137WAT     H166653   3.792   5.014   6.529
22137WAT     H266654   3.904   4.905   6.481
22138WAT      O66655   2.609   0.353   3.499
22138WAT     H166656   2.681   0.384   3.436
22138WAT     H266657   2.525   0.403   3.480
22139WAT      O66658   8.813   4.802   8.553
22139WAT     H166659   8.884   4.752   8.503
22139WAT     H266660   8.725   4.757   8.540
22140WAT      O66661   5.950   1.717   2.730
22140WAT     H166662   6.030   1.699   2.788
22140WAT     H266663   5.888   1.639   2.735
22141WAT      O66664   8.240   6.478   4.343
22141WAT     H166665   8.158   6.527   4.372
22141WAT     H266666   8.307   6.542   4.306
22142WAT      O66667   1.966   3.516   2.602
22142WAT     H166668   1.974   3.614   2.587
22142WAT     H266669   1.967   3.496   2.700
22143WAT      O66670   2.755   4.647   2.362
22143WAT     H166671   2.845   4.641   2.403
22143WAT     H266672   2.744   4.574   2.294
22144WAT      O66673   1.763   6.277   6.275
22144WAT     H166674   1.681   6.322   6.309
22144WAT     H266675   1.781   6.305   6.180
22145WAT      O66676   3.259   7.130   3.614
22145WAT     H166677   3.206   7.077   3.680
22145WAT     H266678   3.317   7.196   3.663
22146WAT      O66679   6.869   2.492   5.296
22146WAT     H166680   6.846   2.588   5.278
22146WAT     H266681   6.839   2.468   5.388
22147WAT      O66682   3.429   6.552   9.654
22147WAT     H166683   3.391   6.628   9.706
22147WAT     H266684   3.479   6.587   9.574
22148WAT      O66685   8.029   5.982   5.957
22148WAT     H166686   7.952   5.979   6.020
22148WAT     H266687   8.088   6.059   5.981
22149WAT      O66688   3.058   9.611   6.604
22149WAT     H166689   3.151   9.635   6.630
22149WAT     H266690   3.029   9.670   6.528
22150WAT      O66691   8.905   6.455   6.577
22150WAT     H166692   8.959   6.409   6.506
22150WAT     H266693   8.952   6.448   6.665
22151WAT      O66694   0.798   1.349   8.921
22151WAT     H166695   0.762   1.292   8.848
22151WAT     H266696   0.735   1.348   8.999
22152WAT      O66697   1.086   3.614   6.376
22152WAT     H166698   1.172   3.631   6.328
22152WAT     H266699   1.025   3.563   6.316
22153WAT      O66700   7.065   2.615   2.955
22153WAT     H166701   6.998   2.685   2.977
22153WAT     H266702   7.126   2.648   2.883
22154WAT      O66703   3.692   6.813   6.475
22154WAT     H166704   3.728   6.720   6.470
22154WAT     H266705   3.699   6.847   6.569
22155WAT      O66706   0.389   4.797   1.565
22155WAT     H166707   0.463   4.862   1.553
22155WAT     H266708   0.413   4.710   1.521
22156WAT      O66709   0.444   2.065   9.207
22156WAT     H166710   0.530   2.064   9.155
22156WAT     H266711   0.464   2.053   9.304
22157WAT      O66712   9.312   5.607   5.390
22157WAT     H166713   9.256   5.674   5.341
22157WAT     H266714   9.306   5.624   5.488
22158WAT      O66715   8.327   0.958   3.451
22158WAT     H166716   8.286   1.022   3.386
22158WAT     H266717   8.303   0.986   3.544
22159WAT      O66718   7.873   6.715   4.618
22159WAT     H166719   7.891   6.691   4.523
22159WAT     H266720   7.802   6.786   4.623
22160WAT      O66721   9.499   8.232   5.326
22160WAT     H166722   9.444   8.291   5.267
22160WAT     H266723   9.557   8.173   5.269
22161WAT      O66724   5.454   6.786   6.849
22161WAT     H166725   5.479   6.882   6.863
22161WAT     H266726   5.478   6.733   6.930
22162WAT      O66727   7.371   7.541   2.042
22162WAT     H166728   7.431   7.575   1.970
22162WAT     H266729   7.372   7.605   2.119
22163WAT      O66730   9.340   0.221   2.869
22163WAT     H166731   9.312   0.139   2.818
22163WAT     H266732   9.413   0.196   2.933
22164WAT      O66733   6.414   2.225   7.443
22164WAT     H166734   6.482   2.177   7.499
22164WAT     H266735   6.404   2.178   7.356
22165WAT      O66736   9.707   0.243   9.301
22165WAT     H166737   9.713   0.299   9.219
22165WAT     H266738   9.735   0.297   9.381
22166WAT      O66739   0.147   0.193   2.714
22166WAT     H166740   0.059   0.187   2.760
22166WAT     H266741   0.192   0.103   2.718
22167WAT      O66742   2.959   7.625   9.776
22167WAT     H166743   2.994   7.635   9.683
22167WAT     H266744   2.933   7.530   9.791
22168WAT      O66745   6.618   6.967   3.987
22168WAT     H166746   6.605   6.874   3.951
22168WAT     H266747   6.540   6.991   4.046
22169WAT      O66748   1.796   8.478   6.270
22169WAT     H166749   1.879   8.440   6.311
22169WAT     H266750   1.757   8.412   6.206
22170WAT      O66751   6.355   0.276   4.215
22170WAT     H166752   6.369   0.194   4.272
22170WAT     H266753   6.397   0.261   4.125
22171WAT      O66754   7.303   6.658   1.582
22171WAT     H166755   7.253   6.704   1.655
22171WAT     H266756   7.378   6.716   1.550
22172WAT      O66757   4.651   5.492   9.003
22172WAT     H166758   4.669   5.412   9.060
22172WAT     H266759   4.565   5.535   9.033
22173WAT      O66760   4.855   7.605   6.809
22173WAT     H166761   4.870   7.507   6.821
22173WAT     H266762   4.890   7.634   6.720
22174WAT      O66763   5.805   1.104   5.598
22174WAT     H166764   5.712   1.137   5.615
22174WAT     H266765   5.861   1.179   5.562
22175WAT      O66766   2.068   5.394   6.114
22175WAT     H166767   2.089   5.447   6.196
22175WAT     H266768   1.987   5.432   6.069
22176WAT      O66769   8.514   8.285   8.886
22176WAT     H166770   8.468   8.227   8.818
22176WAT     H266771   8.608   8.252   8.899
22177WAT      O66772   9.265   1.231   5.680
22177WAT     H166773   9.295   1.151   5.731
22177WAT     H266774   9.341   1.296   5.674
22178WAT      O66775   5.696   8.456   9.184
22178WAT     H166776   5.637   8.463   9.103
22178WAT     H266777   5.698   8.360   9.214
22179WAT      O66778   5.533   8.221   9.776
22179WAT     H166779   5.620   8.205   9.730
22179WAT     H266780   5.537   8.184   9.869
22180WAT      O66781   8.061   3.120   2.575
22180WAT     H166782   8.132   3.087   2.636
22180WAT     H266783   7.977   3.069   2.590
22181WAT      O66784   6.145   1.661   0.287
22181WAT     H166785   6.068   1.641   0.348
22181WAT     H266786   6.204   1.730   0.329
22182WAT      O66787   1.873   3.884   2.283
22182WAT     H166788   1.956   3.922   2.243
22182WAT     H266789   1.807   3.865   2.209
22183WAT      O66790   1.787   0.990   3.654
22183WAT     H166791   1.743   1.076   3.629
22183WAT     H266792   1.885   1.006   3.670
22184WAT      O66793   1.128   0.319   1.220
22184WAT     H166794   1.197   0.356   1.282
22184WAT     H266795   1.043   0.370   1.231
22185WAT      O66796   7.863   4.513   7.352
22185WAT     H166797   7.823   4.602   7.374
22185WAT     H266798   7.931   4.489   7.421
22186WAT      O66799   0.341   1.212   2.686
22186WAT     H166800   0.264   1.229   2.748
22186WAT     H266801   0.317   1.244   2.594
22187WAT      O66802   1.065   4.423   9.289
22187WAT     H166803   1.072   4.492   9.361
22187WAT     H266804   1.152   4.375   9.281
22188WAT      O66805   8.907   4.513   7.244
22188WAT     H166806   8.981   4.580   7.246
22188WAT     H266807   8.863   4.516   7.154
22189WAT      O66808   3.832   1.023   2.326
22189WAT     H166809   3.759   0.955   2.324
22189WAT     H266810   3.919   0.980   2.304
22190WAT      O66811   6.503   3.757   5.645
22190WAT     H166812   6.407   3.757   5.616
22190WAT     H266813   6.559   3.798   5.573
22191WAT      O66814   2.589   6.435   8.456
22191WAT     H166815   2.658   6.378   8.411
22191WAT     H266816   2.632   6.520   8.488
22192WAT      O66817   7.330   2.523   0.953
22192WAT     H166818   7.256   2.467   0.990
22192WAT     H266819   7.340   2.605   1.009
22193WAT      O66820   0.748   5.072   5.840
22193WAT     H166821   0.749   5.009   5.763
22193WAT     H266822   0.778   5.162   5.810
22194WAT      O66823   2.276   5.677   9.673
22194WAT     H166824   2.344   5.749   9.688
22194WAT     H266825   2.322   5.594   9.641
22195WAT      O66826   5.970   8.810   7.577
22195WAT     H166827   5.957   8.854   7.488
22195WAT     H266828   5.883   8.775   7.611
22196WAT      O66829   4.165   7.749   1.252
22196WAT     H166830   4.081   7.749   1.198
22196WAT     H266831   4.144   7.771   1.347
22197WAT      O66832   6.722   8.828   9.130
22197WAT     H166833   6.715   8.927   9.144
22197WAT     H266834   6.731   8.782   9.218
22198WAT      O66835   3.370   0.032   0.804
22198WAT     H166836   3.461   0.067   0.780
22198WAT     H266837   3.378  -0.029   0.883
22199WAT      O66838   6.891   5.372   9.455
22199WAT     H166839   6.910   5.445   9.521
22199WAT     H266840   6.863   5.413   9.368
22200WAT      O66841   2.883   6.218   5.462
22200WAT     H166842   2.957   6.269   5.507
22200WAT     H266843   2.921   6.164   5.387
22201WAT      O66844   2.147   4.248   8.948
22201WAT     H166845   2.132   4.346   8.958
22201WAT     H266846   2.062   4.204   8.921
22202WAT      O66847   5.256   0.544   1.362
22202WAT     H166848   5.221   0.565   1.454
22202WAT     H266849   5.293   0.627   1.321
22203WAT      O66850   5.278   0.923   2.786
22203WAT     H166851   5.327   0.835   2.784
22203WAT     H266852   5.274   0.956   2.880
22204WAT      O66853   0.688   0.291   7.489
22204WAT     H166854   0.590   0.308   7.499
22204WAT     H266855   0.704   0.235   7.407
22205WAT      O66856   3.976   1.912   6.698
22205WAT     H166857   3.910   1.977   6.735
22205WAT     H266858   4.057   1.911   6.756
22206WAT      O66859   4.614   6.608   0.052
22206WAT     H166860   4.699   6.598   0.002
22206WAT     H266861   4.572   6.696   0.029
22207WAT      O66862   3.027   6.916   6.984
22207WAT     H166863   2.965   6.966   6.924
22207WAT     H266864   3.115   6.903   6.938
22208WAT      O66865   2.866   0.180   2.474
22208WAT     H166866   2.892   0.089   2.506
22208WAT     H266867   2.896   0.248   2.541
22209WAT      O66868   5.675   4.953   8.061
22209WAT     H166869   5.676   4.860   8.023
22209WAT     H266870   5.641   5.017   7.992
22210WAT      O66871   9.250   4.916   8.402
22210WAT     H166872   9.210   4.969   8.328
22210WAT     H266873   9.240   4.966   8.488
22211WAT      O66874   6.188   3.199   3.097
22211WAT     H166875   6.272   3.167   3.052
22211WAT     H266876   6.121   3.222   3.027
22212WAT      O66877   9.854   1.596   6.332
22212WAT     H166878   9.820   1.510   6.293
22212WAT     H266879   9.953   1.601   6.321
22213WAT      O66880   1.126   4.979   6.536
22213WAT     H166881   1.157   4.921   6.611
22213WAT     H266882   1.031   5.007   6.552
22214WAT      O66883   8.416   1.626   6.641
22214WAT     H166884   8.419   1.726   6.651
22214WAT     H266885   8.485   1.597   6.574
22215WAT      O66886   6.765   3.878   9.733
22215WAT     H166887   6.759   3.969   9.774
22215WAT     H266888   6.845   3.875   9.672
22216WAT      O66889   8.916   6.134   3.020
22216WAT     H166890   8.963   6.212   2.977
22216WAT     H266891   8.974   6.053   3.013
22217WAT      O66892   8.742   9.547   3.558
22217WAT     H166893   8.801   9.467   3.554
22217WAT     H266894   8.786   9.618   3.613
22218WAT      O66895   2.226   4.065   8.491
22218WAT     H166896   2.150   4.033   8.434
22218WAT     H266897   2.211   4.036   8.585
22219WAT      O66898   1.105   3.292   3.710
22219WAT     H166899   1.042   3.224   3.670
22219WAT     H266900   1.198   3.255   3.709
22220WAT      O66901   3.017   2.416   6.815
22220WAT     H166902   3.065   2.388   6.731
22220WAT     H266903   2.946   2.349   6.837
22221WAT      O66904   3.731   1.169   3.553
22221WAT     H166905   3.730   1.083   3.604
22221WAT     H266906   3.637   1.197   3.533
22222WAT      O66907   0.268   4.388   1.355
22222WAT     H166908   0.289   4.300   1.312
22222WAT     H266909   0.253   4.457   1.284
22223WAT      O66910   7.223   9.640   5.714
22223WAT     H166911   7.306   9.678   5.673
22223WAT     H266912   7.242   9.613   5.808
22224WAT      O66913   1.380   0.379   5.010
22224WAT     H166914   1.333   0.462   5.041
22224WAT     H266915   1.468   0.371   5.056
22225WAT      O66916   1.873   0.956   6.936
22225WAT     H166917   1.959   0.905   6.939
22225WAT     H266918   1.796   0.895   6.956
22226WAT      O66919   3.096   1.695   9.326
22226WAT     H166920   3.068   1.787   9.301
22226WAT     H266921   3.179   1.699   9.382
22227WAT      O66922   0.516   3.455   5.306
22227WAT     H166923   0.427   3.412   5.321
22227WAT     H266924   0.569   3.451   5.391
22228WAT      O66925   5.507   3.757   1.198
22228WAT     H166926   5.512   3.662   1.168
22228WAT     H266927   5.424   3.799   1.159
22229WAT      O66928   3.056   6.584   6.735
22229WAT     H166929   2.970   6.534   6.726
22229WAT     H266930   3.055   6.664   6.675
22230WAT      O66931   3.320   0.304   7.357
22230WAT     H166932   3.304   0.341   7.448
22230WAT     H266933   3.265   0.355   7.290
22231WAT      O66934   4.998   5.368   7.070
22231WAT     H166935   4.929   5.413   7.014
22231WAT     H266936   4.956   5.296   7.124
22232WAT      O66937   9.539   5.829   6.514
22232WAT     H166938   9.507   5.798   6.604
22232WAT     H266939   9.469   5.809   6.445
22233WAT      O66940   3.144   4.305   0.131
22233WAT     H166941   3.119   4.317   0.035
22233WAT     H266942   3.078   4.351   0.189
22234WAT      O66943   0.277   0.661   1.588
22234WAT     H166944   0.185   0.633   1.615
22234WAT     H266945   0.271   0.735   1.521
22235WAT      O66946   9.702   6.022   6.820
22235WAT     H166947   9.699   6.056   6.726
22235WAT     H266948   9.710   5.923   6.819
22236WAT      O66949   7.231   6.991   2.420
22236WAT     H166950   7.179   6.965   2.502
22236WAT     H266951   7.264   6.908   2.374
22237WAT      O66952   7.069   7.478   9.624
22237WAT     H166953   6.999   7.536   9.581
22237WAT     H266954   7.159   7.500   9.584
22238WAT      O66955   8.472   1.515   5.215
22238WAT     H166956   8.427   1.534   5.127
22238WAT     H266957   8.435   1.577   5.284
22239WAT      O66958   4.889   0.285   8.739
22239WAT     H166959   4.790   0.284   8.736
22239WAT     H266960   4.921   0.379   8.753
22240WAT      O66961   6.214   2.717   7.383
22240WAT     H166962   6.261   2.801   7.410
22240WAT     H266963   6.119   2.738   7.361
22241WAT      O66964   9.287   7.781   6.391
22241WAT     H166965   9.280   7.786   6.292
22241WAT     H266966   9.380   7.805   6.419
22242WAT      O66967   5.823   8.326   5.976
22242WAT     H166968   5.863   8.418   5.973
22242WAT     H266969   5.775   8.313   6.063
22243WAT      O66970   2.454   9.491   6.927
22243WAT     H166971   2.391   9.418   6.903
22243WAT     H266972   2.462   9.497   7.027
22244WAT      O66973   7.194   5.693   8.202
22244WAT     H166974   7.111   5.676   8.254
22244WAT     H266975   7.181   5.663   8.107
22245WAT      O66976   2.263   5.234   3.194
22245WAT     H166977   2.336   5.216   3.129
22245WAT     H266978   2.250   5.153   3.252
22246WAT      O66979   7.164   4.029   9.134
22246WAT     H166980   7.142   3.981   9.049
22246WAT     H266981   7.258   4.063   9.130
22247WAT      O66982   1.471   5.192   3.599
22247WAT     H166983   1.570   5.190   3.580
22247WAT     H266984   1.450   5.274   3.652
22248WAT      O66985   8.704   0.671   6.835
22248WAT     H166986   8.662   0.666   6.744
22248WAT     H266987   8.800   0.697   6.827
22249WAT      O66988   3.793   1.047   6.798
22249WAT     H166989   3.716   1.017   6.742
22249WAT     H266990   3.806   0.983   6.874
22250WAT      O66991   5.546   9.310   1.357
22250WAT     H166992   5.493   9.246   1.302
22250WAT     H266993   5.589   9.378   1.298
22251WAT      O66994   5.265   0.765   8.369
22251WAT     H166995   5.261   0.748   8.270
22251WAT     H266996   5.182   0.731   8.412
22252WAT      O66997   8.794   9.457   1.288
22252WAT     H166998   8.870   9.522   1.292
22252WAT     H266999   8.824   9.372   1.246
22253WAT      O67000   7.667   1.673   3.543
22253WAT     H167001   7.710   1.583   3.539
22253WAT     H267002   7.727   1.741   3.501
22254WAT      O67003   7.656   4.056   1.944
22254WAT     H167004   7.623   4.067   2.037
22254WAT     H267005   7.690   4.144   1.910
22255WAT      O67006   4.659   7.385   0.443
22255WAT     H167007   4.635   7.394   0.346
22255WAT     H267008   4.634   7.469   0.491
22256WAT      O67009   1.260   1.713   6.397
22256WAT     H167010   1.228   1.642   6.334
22256WAT     H267011   1.355   1.734   6.377
22257WAT      O67012   6.559   1.003   7.852
22257WAT     H167013   6.632   1.062   7.885
22257WAT     H267014   6.507   0.968   7.931
22258WAT      O67015   1.188   1.652   8.811
22258WAT     H167016   1.173   1.589   8.734
22258WAT     H267017   1.263   1.714   8.789
22259WAT      O67018   9.621   1.320   8.115
22259WAT     H167019   9.667   1.380   8.050
22259WAT     H267020   9.597   1.233   8.070
22260WAT      O67021   1.481   9.449   6.832
22260WAT     H167022   1.441   9.357   6.835
22260WAT     H267023   1.523   9.463   6.742
22261WAT      O67024   1.207   4.092   4.464
22261WAT     H167025   1.136   4.021   4.467
22261WAT     H267026   1.195   4.148   4.382
22262WAT      O67027   9.027   0.090   5.365
22262WAT     H167028   9.014   0.001   5.408
22262WAT     H267029   9.013   0.162   5.433
22263WAT      O67030   1.692   2.676   0.287
22263WAT     H167031   1.735   2.763   0.311
22263WAT     H267032   1.676   2.674   0.188
22264WAT      O67033   0.952   5.237   4.283
22264WAT     H167034   0.926   5.150   4.242
22264WAT     H267035   1.051   5.248   4.276
22265WAT      O67036   6.540   7.410   8.327
22265WAT     H167037   6.539   7.322   8.374
22265WAT     H267038   6.455   7.459   8.345
22266WAT      O67039   7.112   5.665   4.544
22266WAT     H167040   7.206   5.631   4.548
22266WAT     H267041   7.108   5.747   4.488
22267WAT      O67042   1.897   8.156   5.479
22267WAT     H167043   1.845   8.155   5.394
22267WAT     H267044   1.877   8.073   5.532
22268WAT      O67045   6.436   9.243   1.988
22268WAT     H167046   6.443   9.276   1.893
22268WAT     H267047   6.340   9.246   2.016
22269WAT      O67048   1.311   7.251   9.653
22269WAT     H167049   1.390   7.247   9.592
22269WAT     H267050   1.294   7.346   9.679
22270WAT      O67051   7.272   8.716   4.489
22270WAT     H167052   7.175   8.712   4.511
22270WAT     H267053   7.287   8.678   4.397
22271WAT      O67054   3.799   4.365   8.051
22271WAT     H167055   3.895   4.363   8.078
22271WAT     H267056   3.753   4.443   8.096
22272WAT      O67057   9.070   9.774   2.570
22272WAT     H167058   9.049   9.869   2.550
22272WAT     H267059   9.037   9.716   2.496
22273WAT      O67060   1.327   5.845   3.632
22273WAT     H167061   1.368   5.896   3.556
22273WAT     H267062   1.313   5.750   3.605
22274WAT      O67063   6.066   2.591   6.696
22274WAT     H167064   5.989   2.638   6.740
22274WAT     H267065   6.043   2.570   6.601
22275WAT      O67066   4.653   7.441   5.377
22275WAT     H167067   4.689   7.379   5.307
22275WAT     H267068   4.726   7.464   5.441
22276WAT      O67069   8.189   8.796   8.267
22276WAT     H167070   8.270   8.831   8.314
22276WAT     H267071   8.109   8.852   8.291
22277WAT      O67072   1.056   5.102   9.019
22277WAT     H167073   1.063   5.142   9.111
22277WAT     H267074   1.148   5.082   8.985
22278WAT      O67075   1.478   3.214   0.443
22278WAT     H167076   1.464   3.216   0.344
22278WAT     H267077   1.461   3.122   0.478
22279WAT      O67078   8.623   7.082   8.662
22279WAT     H167079   8.619   7.005   8.727
22279WAT     H267080   8.541   7.082   8.605
22280WAT      O67081   9.813   5.809   3.106
22280WAT     H167082   9.730   5.788   3.055
22280WAT     H267083   9.892   5.775   3.056
22281WAT      O67084   3.932   0.387   9.857
22281WAT     H167085   3.908   0.426   9.768
22281WAT     H267086   4.014   0.433   9.892
22282WAT      O67087   6.642   1.807   0.720
22282WAT     H167088   6.687   1.730   0.674
22282WAT     H267089   6.565   1.772   0.774
22283WAT      O67090   7.330   4.673   2.275
22283WAT     H167091   7.245   4.685   2.326
22283WAT     H267092   7.309   4.644   2.182
22284WAT      O67093   9.645   8.407   8.737
22284WAT     H167094   9.668   8.471   8.811
22284WAT     H267095   9.657   8.453   8.649
22285WAT      O67096   1.795   3.215   0.876
22285WAT     H167097   1.843   3.193   0.791
22285WAT     H267098   1.833   3.299   0.915
22286WAT      O67099   0.990   8.304   8.125
22286WAT     H167100   1.088   8.300   8.111
22286WAT     H267101   0.957   8.216   8.160
22287WAT      O67102   5.037   5.156   8.274
22287WAT     H167103   5.093   5.141   8.192
22287WAT     H267104   5.085   5.121   8.354
22288WAT      O67105   5.005   7.665   0.982
22288WAT     H167106   4.970   7.613   1.060
22288WAT     H267107   5.067   7.606   0.929
22289WAT      O67108   2.983   0.660   6.443
22289WAT     H167109   2.987   0.584   6.377
22289WAT     H267110   2.948   0.742   6.397
22290WAT      O67111   4.330   4.598   2.565
22290WAT     H167112   4.366   4.599   2.658
22290WAT     H267113   4.232   4.578   2.567
22291WAT      O67114   2.788   3.553   0.188
22291WAT     H167115   2.805   3.476   0.250
22291WAT     H267116   2.873   3.603   0.172
22292WAT      O67117   0.649   1.945   4.730
22292WAT     H167118   0.689   2.003   4.659
22292WAT     H267119   0.720   1.917   4.794
22293WAT      O67120   1.525   7.312   0.654
22293WAT     H167121   1.596   7.362   0.603
22293WAT     H267122   1.541   7.214   0.646
22294WAT      O67123   8.351   9.346   7.786
22294WAT     H167124   8.253   9.349   7.763
22294WAT     H267125   8.381   9.251   7.791
22295WAT      O67126   1.847   2.176   6.405
22295WAT     H167127   1.872   2.093   6.454
22295WAT     H267128   1.877   2.256   6.457
22296WAT      O67129   0.331   4.577   2.758
22296WAT     H167130   0.278   4.499   2.725
22296WAT     H267131   0.420   4.545   2.791
22297WAT      O67132   0.317   9.183   2.366
22297WAT     H167133   0.360   9.104   2.322
22297WAT     H267134   0.378   9.262   2.361
22298WAT      O67135   1.228   1.319   0.005
22298WAT     H167136   1.254   1.359   0.093
22298WAT     H267137   1.294   1.248  -0.019
22299WAT      O67138   8.352   1.654   1.641
22299WAT     H167139   8.391   1.632   1.730
22299WAT     H267140   8.354   1.753   1.627
22300WAT      O67141   9.508   5.773   9.202
22300WAT     H167142   9.470   5.813   9.118
22300WAT     H267143   9.470   5.820   9.282
22301WAT      O67144   2.041   0.750   6.907
22301WAT     H167145   2.083   0.670   6.950
22301WAT     H267146   2.094   0.776   6.826
22302WAT      O67147   0.282   3.779   5.462
22302WAT     H167148   0.257   3.683   5.448
22302WAT     H267149   0.353   3.805   5.398
22303WAT      O67150   9.400   2.455   6.129
22303WAT     H167151   9.409   2.554   6.118
22303WAT     H267152   9.491   2.415   6.143
22304WAT      O67153   5.610   2.843   7.007
22304WAT     H167154   5.571   2.925   7.050
22304WAT     H267155   5.598   2.765   7.068
22305WAT      O67156   3.567   3.832   9.562
22305WAT     H167157   3.559   3.735   9.587
22305WAT     H267158   3.648   3.845   9.504
22306WAT      O67159   3.522   0.563   8.406
22306WAT     H167160   3.545   0.478   8.358
22306WAT     H267161   3.467   0.621   8.346
22307WAT      O67162   9.462   6.037   8.511
22307WAT     H167163   9.395   6.074   8.576
22307WAT     H267164   9.456   5.937   8.511
22308WAT      O67165   9.525   2.647   2.554
22308WAT     H167166   9.614   2.604   2.564
22308WAT     H267167   9.453   2.580   2.575
22309WAT      O67168   5.335   9.199   7.002
22309WAT     H167169   5.366   9.292   7.023
22309WAT     H267170   5.413   9.144   6.972
22310WAT      O67171   3.932   3.640   6.198
22310WAT     H167172   3.856   3.702   6.178
22310WAT     H267173   3.952   3.642   6.296
22311WAT      O67174   9.873   3.772   7.170
22311WAT     H167175   9.802   3.813   7.228
22311WAT     H267176   9.945   3.735   7.228
22312WAT      O67177   9.267   5.134   0.537
22312WAT     H167178   9.231   5.041   0.539
22312WAT     H267179   9.318   5.149   0.452
22313WAT      O67180   4.101   1.660   2.942
22313WAT     H167181   4.065   1.612   3.022
22313WAT     H267182   4.121   1.755   2.967
22314WAT      O67183   8.719   2.911   4.196
22314WAT     H167184   8.743   2.816   4.177
22314WAT     H267185   8.641   2.937   4.139
22315WAT      O67186   6.528   1.178   9.450
22315WAT     H167187   6.469   1.103   9.479
22315WAT     H267188   6.623   1.146   9.447
22316WAT      O67189   1.091   0.565   4.572
22316WAT     H167190   1.039   0.649   4.556
22316WAT     H267191   1.116   0.524   4.485
22317WAT      O67192   2.787   7.941   5.123
22317WAT     H167193   2.742   7.991   5.049
22317WAT     H267194   2.885   7.963   5.122
22318WAT      O67195   7.120   0.466   0.908
22318WAT     H167196   7.035   0.488   0.957
22318WAT     H267197   7.198   0.504   0.959
22319WAT      O67198   7.076   7.414   4.238
22319WAT     H167199   7.136   7.487   4.206
22319WAT     H267200   7.028   7.443   4.321
22320WAT      O67201   8.349   8.958   5.637
22320WAT     H167202   8.290   8.881   5.664
22320WAT     H267203   8.440   8.945   5.675
22321WAT      O67204   6.668   5.627   0.717
22321WAT     H167205   6.736   5.669   0.657
22321WAT     H267206   6.714   5.577   0.790
22322WAT      O67207   7.624   3.082   0.968
22322WAT     H167208   7.702   3.130   1.009
22322WAT     H267209   7.579   3.026   1.038
22323WAT      O67210   5.156   1.405   3.831
22323WAT     H167211   5.109   1.352   3.761
22323WAT     H267212   5.144   1.360   3.920
22324WAT      O67213   7.758   0.682   7.698
22324WAT     H167214   7.746   0.585   7.716
22324WAT     H267215   7.852   0.699   7.668
22325WAT      O67216   8.050   1.997   9.754
22325WAT     H167217   8.071   1.904   9.784
22325WAT     H267218   7.971   1.995   9.693
22326WAT      O67219   3.975   8.412   1.433
22326WAT     H167220   4.011   8.488   1.487
22326WAT     H267221   3.991   8.429   1.336
22327WAT      O67222   0.978   7.171   5.149
22327WAT     H167223   1.010   7.165   5.055
22327WAT     H267224   0.969   7.079   5.188
22328WAT      O67225   8.902   0.819   2.528
22328WAT     H167226   8.858   0.736   2.560
22328WAT     H267227   8.888   0.892   2.595
22329WAT      O67228   5.959   2.948   9.063
22329WAT     H167229   5.918   2.906   8.982
22329WAT     H267230   6.051   2.911   9.078
22330WAT      O67231   2.911   9.314   6.106
22330WAT     H167232   3.000   9.351   6.134
22330WAT     H267233   2.911   9.215   6.119
22331WAT      O67234   0.766   6.532   0.419
22331WAT     H167235   0.796   6.447   0.375
22331WAT     H267236   0.703   6.511   0.493
22332WAT      O67237   8.215   0.174   9.474
22332WAT     H167238   8.279   0.252   9.468
22332WAT     H267239   8.154   0.176   9.395
22333WAT      O67240   1.836   7.604   3.585
22333WAT     H167241   1.777   7.526   3.603
22333WAT     H267242   1.910   7.606   3.652
22334WAT      O67243   1.718   2.740   6.385
22334WAT     H167244   1.644   2.728   6.451
22334WAT     H267245   1.787   2.669   6.398
22335WAT      O67246   4.657   3.128   9.820
22335WAT     H167247   4.655   3.034   9.856
22335WAT     H267248   4.601   3.187   9.878
22336WAT      O67249   9.858   1.068   0.658
22336WAT     H167250   9.833   1.149   0.605
22336WAT     H267251   9.795   1.057   0.735
22337WAT      O67252   3.757   9.207   8.268
22337WAT     H167253   3.709   9.233   8.352
22337WAT     H267254   3.690   9.182   8.197
22338WAT      O67255   4.780   5.937   2.244
22338WAT     H167256   4.780   6.024   2.195
22338WAT     H267257   4.686   5.911   2.268
22339WAT      O67258   3.744   5.117   9.264
22339WAT     H167259   3.844   5.113   9.269
22339WAT     H267260   3.716   5.133   9.170
22340WAT      O67261   9.009   7.151   0.717
22340WAT     H167262   8.990   7.100   0.634
22340WAT     H267263   9.042   7.089   0.788
22341WAT      O67264   5.268   6.642   2.325
22341WAT     H167265   5.319   6.638   2.239
22341WAT     H267266   5.248   6.738   2.348
22342WAT      O67267   1.380   9.466   3.812
22342WAT     H167268   1.467   9.481   3.765
22342WAT     H267269   1.373   9.371   3.842
22343WAT      O67270   6.330   4.003   5.502
22343WAT     H167271   6.246   3.951   5.488
22343WAT     H267272   6.333   4.038   5.595
22344WAT      O67273   5.231   7.726   8.008
22344WAT     H167274   5.324   7.740   7.974
22344WAT     H267275   5.223   7.635   8.048
22345WAT      O67276   3.253   5.387   7.716
22345WAT     H167277   3.319   5.462   7.725
22345WAT     H267278   3.220   5.383   7.622
22346WAT      O67279   6.036   5.206   2.431
22346WAT     H167280   5.987   5.232   2.347
22346WAT     H267281   6.008   5.267   2.505
22347WAT      O67282   3.856   4.212   6.689
22347WAT     H167283   3.875   4.119   6.720
22347WAT     H267284   3.760   4.219   6.661
22348WAT      O67285   9.881   4.708   2.896
22348WAT     H167286   9.861   4.806   2.898
22348WAT     H267287   9.980   4.694   2.905
22349WAT      O67288   5.355   9.310   1.871
22349WAT     H167289   5.416   9.389   1.872
22349WAT     H267290   5.276   9.329   1.813
22350WAT      O67291   8.931   7.779   1.879
22350WAT     H167292   8.974   7.756   1.967
22350WAT     H267293   8.998   7.767   1.805
22351WAT      O67294   8.761   8.050   0.509
22351WAT     H167295   8.855   8.031   0.535
22351WAT     H267296   8.701   8.037   0.588
22352WAT      O67297   2.784   2.937   2.495
22352WAT     H167298   2.731   2.900   2.571
22352WAT     H267299   2.872   2.889   2.490
22353WAT      O67300   4.388   5.954   2.483
22353WAT     H167301   4.311   6.009   2.517
22353WAT     H267302   4.448   5.930   2.559
22354WAT      O67303   2.044   4.297   3.563
22354WAT     H167304   2.008   4.204   3.570
22354WAT     H267305   2.106   4.303   3.485
22355WAT      O67306   1.655   2.975   3.675
22355WAT     H167307   1.690   2.999   3.766
22355WAT     H267308   1.687   3.043   3.609
22356WAT      O67309   5.780   2.378   2.193
22356WAT     H167310   5.735   2.412   2.111
22356WAT     H267311   5.759   2.438   2.270
22357WAT      O67312   0.040   1.974   9.348
22357WAT     H167313  -0.016   1.962   9.267
22357WAT     H267314   0.133   1.941   9.330
22358WAT      O67315   4.212   9.811   6.089
22358WAT     H167316   4.296   9.839   6.134
22358WAT     H267317   4.140   9.799   6.157
22359WAT      O67318   9.258   9.742   2.299
22359WAT     H167319   9.339   9.762   2.353
22359WAT     H267320   9.281   9.676   2.227
22360WAT      O67321   2.529   7.058   5.515
22360WAT     H167322   2.473   6.981   5.484
22360WAT     H267323   2.468   7.134   5.542
22361WAT      O67324   3.615   8.913   5.149
22361WAT     H167325   3.606   9.009   5.176
22361WAT     H267326   3.708   8.897   5.114
22362WAT      O67327   0.894   1.507   5.221
22362WAT     H167328   0.919   1.436   5.156
22362WAT     H267329   0.805   1.485   5.262
22363WAT      O67330   6.483   8.109   4.795
22363WAT     H167331   6.500   8.207   4.783
22363WAT     H267332   6.410   8.081   4.732
22364WAT      O67333   4.625   0.861   4.664
22364WAT     H167334   4.551   0.888   4.602
22364WAT     H267335   4.589   0.853   4.757
22365WAT      O67336   3.796   3.706   4.127
22365WAT     H167337   3.882   3.680   4.170
22365WAT     H267338   3.802   3.692   4.028
22366WAT      O67339   5.227   7.424   5.748
22366WAT     H167340   5.200   7.354   5.813
22366WAT     H267341   5.256   7.506   5.798
22367WAT      O67342   2.334   4.064   4.554
22367WAT     H167343   2.357   4.015   4.470
22367WAT     H267344   2.325   3.999   4.630
22368WAT      O67345   0.157   4.048   9.493
22368WAT     H167346   0.061   4.077   9.495
22368WAT     H267347   0.184   4.015   9.583
22369WAT      O67348   2.173   1.654   0.147
22369WAT     H167349   2.203   1.604   0.065
22369WAT     H267350   2.212   1.610   0.228
22370WAT      O67351   7.167   1.578   4.188
22370WAT     H167352   7.190   1.498   4.134
22370WAT     H267353   7.158   1.658   4.129
22371WAT      O67354   4.166   1.886   8.656
22371WAT     H167355   4.137   1.895   8.752
22371WAT     H267356   4.261   1.853   8.653
22372WAT      O67357   8.117   7.528   3.065
22372WAT     H167358   8.071   7.532   3.154
22372WAT     H267359   8.049   7.528   2.992
22373WAT      O67360   5.718   4.409   0.852
22373WAT     H167361   5.692   4.321   0.813
22373WAT     H267362   5.702   4.482   0.785
22374WAT      O67363   1.067   4.230   1.092
22374WAT     H167364   1.165   4.229   1.072
22374WAT     H267365   1.034   4.137   1.106
22375WAT      O67366   0.959   8.830   0.225
22375WAT     H167367   0.876   8.849   0.173
22375WAT     H267368   0.944   8.851   0.321
22376WAT      O67369   9.259   8.998   2.108
22376WAT     H167370   9.166   9.031   2.121
22376WAT     H267371   9.318   9.073   2.077
22377WAT      O67372   6.740   8.788   8.857
22377WAT     H167373   6.708   8.697   8.831
22377WAT     H267374   6.706   8.811   8.948
22378WAT      O67375   2.874   7.173   1.905
22378WAT     H167376   2.851   7.266   1.936
22378WAT     H267377   2.931   7.129   1.975
22379WAT      O67378   9.608   9.334   0.611
22379WAT     H167379   9.513   9.317   0.582
22379WAT     H267380   9.670   9.313   0.536
22380WAT      O67381   4.296   8.591   7.564
22380WAT     H167382   4.314   8.512   7.506
22380WAT     H267383   4.330   8.674   7.519
22381WAT      O67384   9.525   7.553   8.890
22381WAT     H167385   9.551   7.596   8.803
22381WAT     H267386   9.443   7.498   8.877
22382WAT      O67387   0.788   5.971   8.560
22382WAT     H167388   0.744   5.993   8.472
22382WAT     H267389   0.882   6.004   8.559
22383WAT      O67390   2.773   2.409   5.962
22383WAT     H167391   2.817   2.362   5.885
22383WAT     H267392   2.823   2.493   5.983
22384WAT      O67393   1.517   8.900   6.798
22384WAT     H167394   1.559   8.989   6.817
22384WAT     H267395   1.573   8.828   6.840
22385WAT      O67396   7.983   4.778   5.253
22385WAT     H167397   7.956   4.801   5.347
22385WAT     H267398   7.902   4.771   5.196
22386WAT      O67399   8.997   2.694   4.516
22386WAT     H167400   9.094   2.681   4.497
22386WAT     H267401   8.944   2.624   4.468
22387WAT      O67402   1.513   6.942   4.224
22387WAT     H167403   1.442   6.950   4.154
22387WAT     H267404   1.599   6.977   4.187
22388WAT      O67405   7.796   1.732   9.064
22388WAT     H167406   7.877   1.677   9.086
22388WAT     H267407   7.790   1.808   9.128
22389WAT      O67408   0.511   2.373   8.732
22389WAT     H167409   0.566   2.451   8.701
22389WAT     H267410   0.428   2.406   8.776
22390WAT      O67411   7.151   8.119   2.809
22390WAT     H167412   7.211   8.199   2.822
22390WAT     H267413   7.111   8.123   2.717
22391WAT      O67414   7.233   9.397   7.874
22391WAT     H167415   7.287   9.478   7.851
22391WAT     H267416   7.181   9.367   7.794
22392WAT      O67417   4.827   5.135   4.557
22392WAT     H167418   4.772   5.125   4.474
22392WAT     H267419   4.877   5.222   4.554
22393WAT      O67420   4.947   3.500   0.681
22393WAT     H167421   4.954   3.417   0.737
22393WAT     H267422   4.865   3.496   0.624
22394WAT      O67423   7.415   2.220   0.541
22394WAT     H167424   7.321   2.199   0.568
22394WAT     H267425   7.478   2.193   0.614
22395WAT      O67426   7.159   2.557   5.695
22395WAT     H167427   7.061   2.574   5.706
22395WAT     H267428   7.210   2.617   5.757
22396WAT      O67429   8.330   0.881   5.858
22396WAT     H167430   8.309   0.948   5.786
22396WAT     H267431   8.258   0.883   5.927
22397WAT      O67432   2.756   3.924   9.506
22397WAT     H167433   2.830   3.989   9.517
22397WAT     H267434   2.711   3.909   9.594
22398WAT      O67435   5.768   0.388   8.585
22398WAT     H167436   5.829   0.311   8.599
22398WAT     H267437   5.716   0.375   8.500
22399WAT      O67438   0.201   3.628   9.579
22399WAT     H167439   0.247   3.657   9.663
22399WAT     H267440   0.207   3.529   9.571
22400WAT      O67441   0.214   4.364   2.670
22400WAT     H167442   0.264   4.283   2.641
22400WAT     H267443   0.116   4.348   2.658
22401WAT      O67444   6.133   6.826   9.757
22401WAT     H167445   6.064   6.868   9.817
22401WAT     H267446   6.218   6.878   9.764
22402WAT      O67447   3.159   2.314   4.862
22402WAT     H167448   3.226   2.245   4.889
22402WAT     H267449   3.068   2.273   4.863
22403WAT      O67450   1.920   9.468   0.332
22403WAT     H167451   1.993   9.485   0.266
22403WAT     H267452   1.866   9.389   0.303
22404WAT      O67453   7.279   1.151   2.606
22404WAT     H167454   7.182   1.146   2.630
22404WAT     H267455   7.292   1.117   2.513
22405WAT      O67456   7.613   0.945   3.381
22405WAT     H167457   7.519   0.944   3.417
22405WAT     H267458   7.675   0.980   3.452
22406WAT      O67459   3.401   2.677   0.201
22406WAT     H167460   3.443   2.591   0.229
22406WAT     H267461   3.439   2.706   0.114
22407WAT      O67462   1.202   6.235   5.778
22407WAT     H167463   1.217   6.327   5.742
22407WAT     H267464   1.289   6.197   5.809
22408WAT      O67465   8.752   8.715   5.939
22408WAT     H167466   8.782   8.635   5.990
22408WAT     H267467   8.652   8.715   5.932
22409WAT      O67468   8.976   0.027   5.803
22409WAT     H167469   9.004   0.028   5.899
22409WAT     H267470   8.956   0.120   5.773
22410WAT      O67471   0.885   3.770   0.363
22410WAT     H167472   0.829   3.779   0.281
22410WAT     H267473   0.856   3.838   0.431
22411WAT      O67474   9.249   1.489   8.021
22411WAT     H167475   9.339   1.467   7.984
22411WAT     H267476   9.181   1.424   7.986
22412WAT      O67477   1.865   0.087   8.422
22412WAT     H167478   1.963   0.076   8.406
22412WAT     H267479   1.823   0.132   8.343
22413WAT      O67480   9.296   4.053   7.504
22413WAT     H167481   9.304   4.008   7.415
22413WAT     H267482   9.213   4.107   7.507
22414WAT      O67483   2.105   2.092   7.487
22414WAT     H167484   2.037   2.039   7.436
22414WAT     H267485   2.188   2.038   7.496
22415WAT      O67486   6.488   3.683   4.624
22415WAT     H167487   6.573   3.730   4.648
22415WAT     H267488   6.411   3.744   4.643
22416WAT      O67489   3.902   0.466   7.079
22416WAT     H167490   3.861   0.539   7.024
22416WAT     H267491   3.897   0.379   7.028
22417WAT      O67492   1.260   6.319   0.634
22417WAT     H167493   1.243   6.287   0.727
22417WAT     H267494   1.177   6.363   0.598
22418WAT      O67495   8.590   5.784   1.649
22418WAT     H167496   8.574   5.736   1.735
22418WAT     H267497   8.502   5.805   1.606
22419WAT      O67498   6.401   3.032   6.327
22419WAT     H167499   6.451   2.947   6.310
22419WAT     H267500   6.347   3.022   6.410
22420WAT      O67501   1.600   6.967   1.367
22420WAT     H167502   1.653   6.948   1.450
22420WAT     H267503   1.660   7.009   1.298
22421WAT      O67504   5.793   1.560   5.883
22421WAT     H167505   5.839   1.518   5.962
22421WAT     H267506   5.762   1.652   5.909
22422WAT      O67507   6.461   7.383   8.060
22422WAT     H167508   6.508   7.436   7.989
22422WAT     H267509   6.516   7.382   8.143
22423WAT      O67510   8.584   3.131   2.565
22423WAT     H167511   8.552   3.158   2.474
22423WAT     H267512   8.657   3.193   2.594
22424WAT      O67513   4.927   8.382   1.839
22424WAT     H167514   4.970   8.368   1.749
22424WAT     H267515   4.997   8.377   1.910
22425WAT      O67516   6.164   0.731   5.678
22425WAT     H167517   6.191   0.636   5.698
22425WAT     H267518   6.187   0.752   5.583
22426WAT      O67519   2.042   9.105   1.769
22426WAT     H167520   2.078   9.041   1.702
22426WAT     H267521   2.079   9.083   1.859
22427WAT      O67522   9.122   5.932   8.075
22427WAT     H167523   9.047   5.897   8.020
22427WAT     H267524   9.099   5.923   8.172
22428WAT      O67525   2.329   3.654   6.419
22428WAT     H167526   2.330   3.753   6.431
22428WAT     H267527   2.343   3.609   6.507
22429WAT      O67528   0.349   5.740   5.402
22429WAT     H167529   0.365   5.762   5.498
22429WAT     H267530   0.417   5.787   5.345
22430WAT      O67531   4.390   2.209   1.990
22430WAT     H167532   4.356   2.267   1.916
22430WAT     H267533   4.461   2.148   1.955
22431WAT      O67534   6.242   5.212   4.992
22431WAT     H167535   6.298   5.198   4.911
22431WAT     H267536   6.258   5.303   5.029
22432WAT      O67537   8.293   8.415   3.634
22432WAT     H167538   8.218   8.355   3.605
22432WAT     H267539   8.376   8.361   3.644
22433WAT      O67540   2.135   9.105   0.645
22433WAT     H167541   2.232   9.120   0.624
22433WAT     H267542   2.116   9.138   0.737
22434WAT      O67543   4.425   7.911   5.726
22434WAT     H167544   4.499   7.845   5.732
22434WAT     H267545   4.448   7.993   5.778
22435WAT      O67546   4.607   2.209   5.765
22435WAT     H167547   4.546   2.239   5.692
22435WAT     H267548   4.700   2.243   5.746
22436WAT      O67549   4.033   8.168   4.376
22436WAT     H167550   4.062   8.103   4.445
22436WAT     H267551   3.977   8.240   4.418
22437WAT      O67552   2.403   5.818   2.389
22437WAT     H167553   2.445   5.839   2.301
22437WAT     H267554   2.472   5.821   2.461
22438WAT      O67555   5.522   2.642   7.179
22438WAT     H167556   5.439   2.673   7.226
22438WAT     H267557   5.528   2.542   7.184
22439WAT      O67558   2.340   4.518   6.588
22439WAT     H167559   2.394   4.434   6.582
22439WAT     H267560   2.380   4.588   6.530
22440WAT      O67561   5.032   6.035   4.895
22440WAT     H167562   5.074   6.110   4.844
22440WAT     H267563   4.946   6.008   4.852
22441WAT      O67564   3.949   9.553   0.321
22441WAT     H167565   4.022   9.513   0.265
22441WAT     H267566   3.887   9.605   0.262
22442WAT      O67567   9.126   0.444   7.809
22442WAT     H167568   9.102   0.349   7.824
22442WAT     H267569   9.214   0.449   7.760
22443WAT      O67570   5.082   5.275   7.469
22443WAT     H167571   5.166   5.298   7.419
22443WAT     H267572   5.059   5.350   7.531
22444WAT      O67573   8.017   8.851   1.115
22444WAT     H167574   7.922   8.827   1.093
22444WAT     H267575   8.027   8.950   1.113
22445WAT      O67576   4.285   1.862   5.979
22445WAT     H167577   4.351   1.935   5.961
22445WAT     H267578   4.207   1.900   6.028
22446WAT      O67579   0.196   8.557   8.255
22446WAT     H167580   0.209   8.567   8.157
22446WAT     H267581   0.278   8.589   8.303
22447WAT      O67582   9.515   0.114   3.054
22447WAT     H167583   9.501   0.159   3.142
22447WAT     H267584   9.587   0.162   3.003
22448WAT      O67585   4.393   5.594   8.323
22448WAT     H167586   4.434   5.681   8.348
22448WAT     H267587   4.432   5.521   8.379
22449WAT      O67588   1.270   8.392   8.535
22449WAT     H167589   1.266   8.491   8.528
22449WAT     H267590   1.360   8.359   8.506
22450WAT      O67591   8.551   3.089   0.530
22450WAT     H167592   8.641   3.045   0.529
22450WAT     H267593   8.518   3.096   0.624
22451WAT      O67594   1.992   0.719   1.581
22451WAT     H167595   1.988   0.799   1.521
22451WAT     H267596   2.066   0.659   1.552
22452WAT      O67597   5.783   7.982   5.233
22452WAT     H167598   5.735   8.066   5.260
22452WAT     H267599   5.882   7.997   5.237
22453WAT      O67600   9.886   4.083   1.114
22453WAT     H167601   9.806   4.082   1.175
22453WAT     H267602   9.871   4.018   1.040
22454WAT      O67603   5.883   8.574   4.495
22454WAT     H167604   5.833   8.533   4.419
22454WAT     H267605   5.919   8.502   4.555
22455WAT      O67606   7.826   5.062   3.439
22455WAT     H167607   7.809   5.153   3.401
22455WAT     H267608   7.843   4.998   3.363
22456WAT      O67609   6.846   3.440   0.098
22456WAT     H167610   6.865   3.502   0.022
22456WAT     H267611   6.853   3.491   0.184
22457WAT      O67612   1.258   0.418   6.884
22457WAT     H167613   1.231   0.353   6.954
22457WAT     H267614   1.190   0.491   6.877
22458WAT      O67615   8.861   8.104   9.443
22458WAT     H167616   8.821   8.194   9.425
22458WAT     H267617   8.851   8.046   9.362
22459WAT      O67618   8.865   5.555   1.977
22459WAT     H167619   8.780   5.606   1.966
22459WAT     H267620   8.941   5.618   1.990
22460WAT      O67621   7.912   3.100   0.824
22460WAT     H167622   7.853   3.020   0.834
22460WAT     H267623   7.875   3.159   0.752
22461WAT      O67624   1.746   7.103   9.822
22461WAT     H167625   1.748   7.070   9.917
22461WAT     H267626   1.695   7.038   9.766
22462WAT      O67627   8.529   1.788   8.088
22462WAT     H167628   8.547   1.876   8.131
22462WAT     H267629   8.550   1.714   8.153
22463WAT      O67630   2.715   2.341   8.645
22463WAT     H167631   2.624   2.299   8.644
22463WAT     H267632   2.757   2.328   8.735
22464WAT      O67633   9.673   5.486   1.082
22464WAT     H167634   9.584   5.455   1.117
22464WAT     H267635   9.660   5.532   0.994
22465WAT      O67636   4.973   5.551   1.074
22465WAT     H167637   5.052   5.583   1.022
22465WAT     H267638   4.913   5.498   1.014
22466WAT      O67639   1.018   0.403   6.625
22466WAT     H167640   1.010   0.315   6.579
22466WAT     H267641   1.110   0.440   6.612
22467WAT      O67642   8.339   2.251   2.239
22467WAT     H167643   8.392   2.322   2.286
22467WAT     H267644   8.243   2.258   2.265
22468WAT      O67645   6.012   6.889   9.506
22468WAT     H167646   6.086   6.881   9.439
22468WAT     H267647   6.042   6.849   9.593
22469WAT      O67648   1.942   5.886   2.027
22469WAT     H167649   2.000   5.879   2.108
22469WAT     H267650   1.954   5.976   1.985
22470WAT      O67651   2.075   0.712   9.090
22470WAT     H167652   2.066   0.654   9.009
22470WAT     H267653   2.141   0.784   9.072
22471WAT      O67654   7.862   7.736   7.288
22471WAT     H167655   7.836   7.679   7.367
22471WAT     H267656   7.895   7.678   7.214
22472WAT      O67657   8.603   0.339   6.924
22472WAT     H167658   8.687   0.385   6.955
22472WAT     H267659   8.546   0.316   7.003
22473WAT      O67660   9.612   6.239   4.077
22473WAT     H167661   9.641   6.144   4.073
22473WAT     H267662   9.690   6.297   4.103
22474WAT      O67663   2.861   0.956   1.993
22474WAT     H167664   2.891   1.044   2.032
22474WAT     H267665   2.889   0.882   2.054
22475WAT      O67666   4.563   9.473   7.515
22475WAT     H167667   4.591   9.502   7.423
22475WAT     H267668   4.488   9.407   7.507
22476WAT      O67669   4.764   8.900   2.614
22476WAT     H167670   4.861   8.889   2.637
22476WAT     H267671   4.733   8.819   2.564
22477WAT      O67672   3.343   0.035   2.955
22477WAT     H167673   3.325   0.073   3.045
22477WAT     H267674   3.397   0.099   2.901
22478WAT      O67675   1.958   4.311   3.991
22478WAT     H167676   1.883   4.277   3.934
22478WAT     H267677   1.953   4.269   4.082
22479WAT      O67678   1.680   8.696   9.266
22479WAT     H167679   1.703   8.664   9.174
22479WAT     H267680   1.650   8.618   9.321
22480WAT      O67681   7.833   9.374   3.444
22480WAT     H167682   7.814   9.469   3.468
22480WAT     H267683   7.763   9.340   3.383
22481WAT      O67684   8.527   5.543   3.876
22481WAT     H167685   8.545   5.448   3.902
22481WAT     H267686   8.605   5.601   3.903
22482WAT      O67687   1.796   3.297   9.010
22482WAT     H167688   1.835   3.372   8.955
22482WAT     H267689   1.699   3.287   8.988
22483WAT      O67690   7.562   1.116   9.449
22483WAT     H167691   7.493   1.136   9.379
22483WAT     H267692   7.639   1.179   9.439
22484WAT      O67693   2.787   1.437   3.948
22484WAT     H167694   2.719   1.384   3.899
22484WAT     H267695   2.828   1.504   3.886
22485WAT      O67696   6.497   3.679   7.326
22485WAT     H167697   6.474   3.641   7.416
22485WAT     H267698   6.453   3.624   7.255
22486WAT      O67699   4.513   2.044   5.973
22486WAT     H167700   4.540   2.103   5.897
22486WAT     H267701   4.580   1.971   5.984
22487WAT      O67702   7.277   5.753   5.554
22487WAT     H167703   7.335   5.817   5.602
22487WAT     H267704   7.182   5.764   5.585
22488WAT      O67705   5.813   9.259   4.400
22488WAT     H167706   5.758   9.284   4.479
22488WAT     H267707   5.894   9.318   4.395
22489WAT      O67708   9.414   2.477   9.482
22489WAT     H167709   9.474   2.397   9.475
22489WAT     H267710   9.464   2.553   9.524
22490WAT      O67711   1.300   2.327   7.975
22490WAT     H167712   1.346   2.271   8.044
22490WAT     H267713   1.329   2.423   7.985
22491WAT      O67714   9.762   1.256   0.495
22491WAT     H167715   9.829   1.291   0.429
22491WAT     H267716   9.671   1.259   0.454
22492WAT      O67717   6.372   7.796   4.183
22492WAT     H167718   6.445   7.857   4.212
22492WAT     H267719   6.371   7.790   4.083
22493WAT      O67720   9.701   3.833   5.788
22493WAT     H167721   9.789   3.875   5.766
22493WAT     H267722   9.691   3.747   5.738
22494WAT      O67723   9.764   4.783   8.112
22494WAT     H167724   9.766   4.879   8.082
22494WAT     H267725   9.795   4.724   8.038
22495WAT      O67726   1.525   3.901   9.820
22495WAT     H167727   1.622   3.882   9.834
22495WAT     H267728   1.492   3.961   9.893
22496WAT      O67729   4.213   9.479   1.904
22496WAT     H167730   4.243   9.516   1.992
22496WAT     H267731   4.244   9.384   1.896
22497WAT      O67732   3.891   4.198   7.735
22497WAT     H167733   3.880   4.291   7.699
22497WAT     H267734   3.840   4.134   7.678
22498WAT      O67735   8.950   5.982   7.582
22498WAT     H167736   9.037   5.986   7.631
22498WAT     H267737   8.962   6.020   7.490
22499WAT      O67738   9.045   0.068   0.103
22499WAT     H167739   8.961   0.117   0.125
22499WAT     H267740   9.024  -0.029   0.091
22500WAT      O67741   5.841   3.447   4.638
22500WAT     H167742   5.794   3.523   4.592
22500WAT     H267743   5.864   3.377   4.570
22501WAT      O67744   8.924   0.462   4.917
22501WAT     H167745   8.932   0.491   5.012
22501WAT     H267746   8.957   0.368   4.908
22502WAT      O67747   8.336   5.064   5.059
22502WAT     H167748   8.259   5.074   5.121
22502WAT     H267749   8.310   5.097   4.968
22503WAT      O67750   2.474   6.257   3.355
22503WAT     H167751   2.475   6.295   3.262
22503WAT     H267752   2.394   6.198   3.366
22504WAT      O67753   8.264   5.919   6.543
22504WAT     H167754   8.340   5.911   6.607
22504WAT     H267755   8.178   5.903   6.592
22505WAT      O67756   3.078   0.477   1.045
22505WAT     H167757   3.018   0.413   1.094
22505WAT     H267758   3.071   0.460   0.947
22506WAT      O67759   4.800   6.552   6.544
22506WAT     H167760   4.891   6.582   6.515
22506WAT     H267761   4.787   6.456   6.516
22507WAT      O67762   7.315   8.017   6.752
22507WAT     H167763   7.312   8.013   6.652
22507WAT     H267764   7.289   7.928   6.790
22508WAT      O67765   3.938   9.196   6.201
22508WAT     H167766   4.003   9.243   6.142
22508WAT     H267767   3.857   9.253   6.214
22509WAT      O67768   9.718   9.218   8.577
22509WAT     H167769   9.774   9.143   8.611
22509WAT     H267770   9.674   9.192   8.491
22510WAT      O67771   7.590   8.153   5.571
22510WAT     H167772   7.572   8.076   5.631
22510WAT     H267773   7.528   8.228   5.594
22511WAT      O67774   3.235   8.746   1.355
22511WAT     H167775   3.237   8.822   1.290
22511WAT     H267776   3.329   8.716   1.374
22512WAT      O67777   3.708   2.823   1.561
22512WAT     H167778   3.796   2.810   1.516
22512WAT     H267779   3.635   2.826   1.492
22513WAT      O67780   3.131   5.649   3.404
22513WAT     H167781   3.128   5.739   3.360
22513WAT     H267782   3.154   5.579   3.337
22514WAT      O67783   5.509   8.676   8.243
22514WAT     H167784   5.430   8.704   8.188
22514WAT     H267785   5.568   8.616   8.189
22515WAT      O67786   7.109   0.622   1.848
22515WAT     H167787   7.024   0.640   1.798
22515WAT     H267788   7.115   0.683   1.927
22516WAT      O67789   0.099   1.756   7.384
22516WAT     H167790   0.080   1.658   7.381
22516WAT     H267791   0.026   1.806   7.337
22517WAT      O67792   4.506   3.426   1.637
22517WAT     H167793   4.492   3.342   1.584
22517WAT     H267794   4.468   3.413   1.729
22518WAT      O67795   0.284   3.372   4.548
22518WAT     H167796   0.377   3.401   4.525
22518WAT     H267797   0.286   3.318   4.632
22519WAT      O67798   5.010   4.117   4.744
22519WAT     H167799   4.922   4.097   4.700
22519WAT     H267800   5.076   4.047   4.719
22520WAT      O67801   1.584   9.572   3.496
22520WAT     H167802   1.579   9.564   3.595
22520WAT     H267803   1.493   9.563   3.456
22521WAT      O67804   0.576   2.941   8.375
22521WAT     H167805   0.553   2.844   8.366
22521WAT     H267806   0.661   2.950   8.427
22522WAT      O67807   0.404   8.318   6.355
22522WAT     H167808   0.493   8.341   6.396
22522WAT     H267809   0.412   8.320   6.255
22523WAT      O67810   8.114   7.789   5.642
22523WAT     H167811   8.103   7.803   5.741
22523WAT     H267812   8.190   7.726   5.626
22524WAT      O67813   6.755   4.228   0.529
22524WAT     H167814   6.799   4.138   0.530
22524WAT     H267815   6.659   4.218   0.553
22525WAT      O67816   2.658   4.434   2.564
22525WAT     H167817   2.568   4.402   2.535
22525WAT     H267818   2.674   4.526   2.527
22526WAT      O67819   2.045   4.848   0.495
22526WAT     H167820   2.134   4.893   0.507
22526WAT     H267821   2.001   4.838   0.584
22527WAT      O67822   8.779   3.212   6.348
22527WAT     H167823   8.707   3.150   6.315
22527WAT     H267824   8.746   3.263   6.427
22528WAT      O67825   2.601   4.809   7.016
22528WAT     H167826   2.534   4.838   6.948
22528WAT     H267827   2.601   4.709   7.023
22529WAT      O67828   0.673   4.924   3.869
22529WAT     H167829   0.582   4.890   3.895
22529WAT     H267830   0.728   4.849   3.833
22530WAT      O67831   4.843   6.023   9.766
22530WAT     H167832   4.845   5.964   9.686
22530WAT     H267833   4.759   6.007   9.818
22531WAT      O67834   1.775   8.495   3.871
22531WAT     H167835   1.857   8.449   3.904
22531WAT     H267836   1.729   8.540   3.947
22532WAT      O67837   7.068   6.340   2.840
22532WAT     H167838   7.034   6.419   2.890
22532WAT     H267839   7.017   6.329   2.755
22533WAT      O67840   9.405   2.812   2.359
22533WAT     H167841   9.311   2.794   2.331
22533WAT     H267842   9.440   2.734   2.411
22534WAT      O67843   8.518   2.188   4.138
22534WAT     H167844   8.549   2.187   4.233
22534WAT     H267845   8.450   2.260   4.126
22535WAT      O67846   7.220   6.391   7.594
22535WAT     H167847   7.269   6.322   7.541
22535WAT     H267848   7.203   6.471   7.537
22536WAT      O67849   8.678   5.802   3.964
22536WAT     H167850   8.678   5.775   4.061
22536WAT     H267851   8.687   5.901   3.957
22537WAT      O67852   1.129   7.971   3.459
22537WAT     H167853   1.078   8.049   3.424
22537WAT     H267854   1.192   7.938   3.389
22538WAT      O67855   4.221   7.517   9.344
22538WAT     H167856   4.258   7.424   9.354
22538WAT     H267857   4.296   7.582   9.338
22539WAT      O67858   1.416   7.723   0.733
22539WAT     H167859   1.505   7.764   0.749
22539WAT     H267860   1.366   7.774   0.663
22540WAT      O67861   7.715   0.334   8.263
22540WAT     H167862   7.669   0.290   8.340
22540WAT     H267863   7.809   0.300   8.257
22541WAT      O67864   2.589   9.784   7.918
22541WAT     H167865   2.508   9.737   7.953
22541WAT     H267866   2.648   9.720   7.870
22542WAT      O67867   3.763   0.203   4.832
22542WAT     H167868   3.808   0.154   4.907
22542WAT     H267869   3.825   0.272   4.795
22543WAT      O67870   7.994   6.478   0.346
22543WAT     H167871   7.944   6.400   0.386
22543WAT     H267872   7.946   6.509   0.264
22544WAT      O67873   4.982   7.631   3.974
22544WAT     H167874   4.949   7.707   3.918
22544WAT     H267875   5.010   7.666   4.064
22545WAT      O67876   0.346   6.208   8.588
22545WAT     H167877   0.407   6.252   8.654
22545WAT     H267878   0.399   6.145   8.531
22546WAT      O67879   3.047   6.455   1.609
22546WAT     H167880   3.102   6.446   1.526
22546WAT     H267881   2.965   6.508   1.588
22547WAT      O67882   3.299   7.951   8.025
22547WAT     H167883   3.373   7.888   8.049
22547WAT     H267884   3.217   7.899   8.001
22548WAT      O67885   9.771   1.346   3.824
22548WAT     H167886   9.704   1.327   3.895
22548WAT     H267887   9.789   1.445   3.820
22549WAT      O67888   6.764   5.934   0.903
22549WAT     H167889   6.690   5.989   0.864
22549WAT     H267890   6.843   5.936   0.840
22550WAT      O67891   4.378   6.896   9.614
22550WAT     H167892   4.442   6.895   9.538
22550WAT     H267893   4.311   6.823   9.602
22551WAT      O67894   8.007   6.397   5.583
22551WAT     H167895   7.995   6.467   5.653
22551WAT     H267896   7.975   6.431   5.495
22552WAT      O67897   1.089   1.133   6.892
22552WAT     H167898   1.147   1.052   6.886
22552WAT     H267899   1.089   1.167   6.986
22553WAT      O67900   1.005   5.800   9.584
22553WAT     H167901   0.906   5.786   9.579
22553WAT     H267902   1.047   5.773   9.497
22554WAT      O67903   3.372   6.664   9.202
22554WAT     H167904   3.372   6.754   9.157
22554WAT     H267905   3.389   6.593   9.133
22555WAT      O67906   6.239   0.606   2.804
22555WAT     H167907   6.197   0.696   2.816
22555WAT     H267908   6.213   0.568   2.716
22556WAT      O67909   7.535   5.643   2.840
22556WAT     H167910   7.535   5.543   2.830
22556WAT     H267911   7.441   5.675   2.846
22557WAT      O67912   2.301   9.446   7.589
22557WAT     H167913   2.373   9.514   7.603
22557WAT     H267914   2.264   9.419   7.678
22558WAT      O67915   8.266   7.203   0.376
22558WAT     H167916   8.323   7.274   0.334
22558WAT     H267917   8.170   7.221   0.354
22559WAT      O67918   5.163   2.649   5.018
22559WAT     H167919   5.089   2.715   5.009
22559WAT     H267920   5.247   2.686   4.978
22560WAT      O67921   4.448   7.277   6.804
22560WAT     H167922   4.368   7.258   6.859
22560WAT     H267923   4.498   7.192   6.786
22561WAT      O67924   1.753   4.106   6.647
22561WAT     H167925   1.823   4.062   6.590
22561WAT     H267926   1.694   4.036   6.686
22562WAT      O67927   7.045   1.143   1.156
22562WAT     H167928   7.061   1.239   1.133
22562WAT     H267929   7.097   1.118   1.237
22563WAT      O67930   7.905   4.879   5.488
22563WAT     H167931   7.827   4.937   5.508
22563WAT     H267932   7.966   4.875   5.567
22564WAT      O67933   7.103   1.270   1.666
22564WAT     H167934   7.019   1.215   1.669
22564WAT     H267935   7.111   1.313   1.577
22565WAT      O67936   1.313   1.980   2.407
22565WAT     H167937   1.247   2.018   2.472
22565WAT     H267938   1.401   1.965   2.453
22566WAT      O67939   5.503   0.319   5.088
22566WAT     H167940   5.560   0.357   5.161
22566WAT     H267941   5.422   0.276   5.128
22567WAT      O67942   6.464   5.273   7.264
22567WAT     H167943   6.506   5.293   7.175
22567WAT     H267944   6.440   5.176   7.268
22568WAT      O67945   7.429   5.996   3.453
22568WAT     H167946   7.503   6.037   3.399
22568WAT     H267947   7.400   5.911   3.410
22569WAT      O67948   7.168   0.991   9.273
22569WAT     H167949   7.186   0.921   9.203
22569WAT     H267950   7.145   0.946   9.359
22570WAT      O67951   2.639   1.807   4.492
22570WAT     H167952   2.540   1.821   4.493
22570WAT     H267953   2.660   1.716   4.528
22571WAT      O67954   4.012   5.656   3.389
22571WAT     H167955   4.111   5.668   3.401
22571WAT     H267956   3.972   5.743   3.359
22572WAT      O67957   5.067   8.152   4.320
22572WAT     H167958   5.056   8.236   4.374
22572WAT     H267959   5.112   8.082   4.376
22573WAT      O67960   4.488   5.733   6.436
22573WAT     H167961   4.480   5.827   6.400
22573WAT     H267962   4.561   5.729   6.503
22574WAT      O67963   5.064   0.329   5.952
22574WAT     H167964   5.008   0.409   5.974
22574WAT     H267965   5.048   0.302   5.857
22575WAT      O67966   8.601   0.755   1.923
22575WAT     H167967   8.559   0.665   1.907
22575WAT     H267968   8.554   0.801   1.998
22576WAT      O67969   6.124   8.573   8.380
22576WAT     H167970   6.208   8.549   8.331
22576WAT     H267971   6.140   8.655   8.435
22577WAT      O67972   8.667   8.132   1.701
22577WAT     H167973   8.584   8.122   1.645
22577WAT     H267974   8.668   8.061   1.772
22578WAT      O67975   8.767   6.233   9.216
22578WAT     H167976   8.784   6.320   9.170
22578WAT     H267977   8.679   6.236   9.262
22579WAT      O67978   7.364   6.000   9.869
22579WAT     H167979   7.277   6.043   9.847
22579WAT     H267980   7.356   5.948   9.954
22580WAT      O67981   7.387   6.976   4.770
22580WAT     H167982   7.370   7.074   4.778
22580WAT     H267983   7.428   6.942   4.855
22581WAT      O67984   9.524   2.599   7.240
22581WAT     H167985   9.621   2.622   7.229
22581WAT     H267986   9.516   2.511   7.287
22582WAT      O67987   4.425   7.694   3.281
22582WAT     H167988   4.397   7.780   3.323
22582WAT     H267989   4.359   7.622   3.305
22583WAT      O67990   5.426   7.310   9.224
22583WAT     H167991   5.467   7.239   9.166
22583WAT     H267992   5.330   7.288   9.241
22584WAT      O67993   8.617   3.949   9.448
22584WAT     H167994   8.656   3.859   9.433
22584WAT     H267995   8.555   3.947   9.526
22585WAT      O67996   7.524   6.035   4.326
22585WAT     H167997   7.620   6.057   4.343
22585WAT     H267998   7.494   6.079   4.242
22586WAT      O67999   8.896   2.682   6.257
22586WAT     H168000   8.993   2.683   6.280
22586WAT     H268001   8.884   2.719   6.164
22587WAT      O68002   4.413   0.272   5.309
22587WAT     H168003   4.498   0.226   5.339
22587WAT     H268004   4.368   0.312   5.389
22588WAT      O68005   4.532   0.056   4.372
22588WAT     H168006   4.538   0.053   4.472
22588WAT     H268007   4.496  -0.030   4.338
22589WAT      O68008   8.543   8.253   9.533
22589WAT     H168009   8.552   8.227   9.436
22589WAT     H268010   8.499   8.342   9.539
22590WAT      O68011   5.525   6.794   5.915
22590WAT     H168012   5.470   6.733   5.859
22590WAT     H268013   5.514   6.770   6.012
22591WAT      O68014   8.192   4.442   1.450
22591WAT     H168015   8.125   4.423   1.378
22591WAT     H268016   8.257   4.367   1.455
22592WAT      O68017   8.144   2.146   7.942
22592WAT     H168018   8.174   2.164   7.849
22592WAT     H268019   8.049   2.113   7.940
22593WAT      O68020   1.935   5.892   3.812
22593WAT     H168021   2.002   5.900   3.886
22593WAT     H268022   1.876   5.812   3.829
22594WAT      O68023   9.036   5.867   0.221
22594WAT     H168024   8.974   5.818   0.159
22594WAT     H268025   9.089   5.934   0.168
22595WAT      O68026   2.634   0.730   1.078
22595WAT     H168027   2.535   0.746   1.085
22595WAT     H268028   2.679   0.813   1.046
22596WAT      O68029   0.293   2.866   8.156
22596WAT     H168030   0.357   2.922   8.104
22596WAT     H268031   0.343   2.810   8.223
22597WAT      O68032   3.539   4.093   7.240
22597WAT     H168033   3.511   4.143   7.322
22597WAT     H268034   3.623   4.043   7.259
22598WAT      O68035   3.207   0.434   4.259
22598WAT     H168036   3.217   0.338   4.285
22598WAT     H268037   3.161   0.440   4.171
22599WAT      O68038   6.894   9.663   0.881
22599WAT     H168039   6.923   9.568   0.896
22599WAT     H268040   6.958   9.725   0.927
22600WAT      O68041   4.005   6.881   7.267
22600WAT     H168042   3.933   6.897   7.200
22600WAT     H268043   4.050   6.967   7.289
22601WAT      O68044   4.664   2.552   3.868
22601WAT     H168045   4.682   2.454   3.867
22601WAT     H268046   4.662   2.585   3.962
22602WAT      O68047   9.260   9.278   9.378
22602WAT     H168048   9.227   9.254   9.287
22602WAT     H268049   9.356   9.306   9.373
22603WAT      O68050   3.830   4.463   5.082
22603WAT     H168051   3.892   4.507   5.017
22603WAT     H268052   3.775   4.395   5.035
22604WAT      O68053   0.437   3.113   1.153
22604WAT     H168054   0.417   3.201   1.109
22604WAT     H268055   0.531   3.085   1.132
22605WAT      O68056   7.346   0.112   3.970
22605WAT     H168057   7.363   0.110   3.871
22605WAT     H268058   7.249   0.095   3.988
22606WAT      O68059   5.002   3.844   8.951
22606WAT     H168060   5.087   3.859   9.002
22606WAT     H268061   4.944   3.779   9.000
22607WAT      O68062   3.335   3.939   9.505
22607WAT     H168063   3.415   3.879   9.495
22607WAT     H268064   3.252   3.883   9.506
22608WAT      O68065   2.603   5.662   6.495
22608WAT     H168066   2.595   5.564   6.476
22608WAT     H268067   2.520   5.695   6.540
22609WAT      O68068   9.214   1.085   2.124
22609WAT     H168069   9.195   1.007   2.064
22609WAT     H268070   9.234   1.165   2.068
22610WAT      O68071   2.137   9.739   4.581
22610WAT     H168072   2.104   9.699   4.667
22610WAT     H268073   2.220   9.692   4.552
22611WAT      O68074   4.838   3.007   9.130
22611WAT     H168075   4.859   3.103   9.145
22611WAT     H268076   4.738   2.994   9.131
22612WAT      O68077   0.527   0.566   1.642
22612WAT     H168078   0.552   0.472   1.618
22612WAT     H268079   0.436   0.586   1.607
22613WAT      O68080   1.391   3.560   2.594
22613WAT     H168081   1.330   3.604   2.527
22613WAT     H268082   1.431   3.478   2.554
22614WAT      O68083   0.241   5.764   9.849
22614WAT     H168084   0.321   5.724   9.894
22614WAT     H268085   0.161   5.751   9.908
22615WAT      O68086   7.514   4.594   8.626
22615WAT     H168087   7.477   4.684   8.648
22615WAT     H268088   7.494   4.572   8.531
22616WAT      O68089   1.746   9.261   3.367
22616WAT     H168090   1.766   9.341   3.310
22616WAT     H268091   1.652   9.230   3.351
22617WAT      O68092   6.149   3.301   7.824
22617WAT     H168093   6.237   3.294   7.777
22617WAT     H268094   6.165   3.331   7.918
22618WAT      O68095   7.196   9.416   4.541
22618WAT     H168096   7.277   9.444   4.593
22618WAT     H268097   7.206   9.321   4.513
22619WAT      O68098   8.339   5.381   0.511
22619WAT     H168099   8.245   5.412   0.499
22619WAT     H268100   8.355   5.301   0.452
22620WAT      O68101   4.632   9.691   3.591
22620WAT     H168102   4.698   9.621   3.564
22620WAT     H268103   4.635   9.766   3.524
22621WAT      O68104   0.229   6.956   2.332
22621WAT     H168105   0.188   6.881   2.384
22621WAT     H268106   0.287   6.919   2.260
22622WAT      O68107   3.081   7.666   8.655
22622WAT     H168108   2.994   7.619   8.641
22622WAT     H268109   3.156   7.605   8.630
22623WAT      O68110   8.560   3.565   9.870
22623WAT     H168111   8.627   3.506   9.916
22623WAT     H268112   8.502   3.609   9.938
22624WAT      O68113   7.351   4.145   0.983
22624WAT     H168114   7.354   4.213   1.057
22624WAT     H268115   7.428   4.160   0.921
22625WAT      O68116   4.156   1.428   5.269
22625WAT     H168117   4.060   1.459   5.271
22625WAT     H268118   4.160   1.335   5.233
22626WAT      O68119   0.300   3.226   1.814
22626WAT     H168120   0.238   3.170   1.761
22626WAT     H268121   0.325   3.178   1.898
22627WAT      O68122   2.475   2.785   6.475
22627WAT     H168123   2.556   2.740   6.437
22627WAT     H268124   2.405   2.717   6.495
22628WAT      O68125   4.077   8.389   6.380
22628WAT     H168126   4.166   8.402   6.423
22628WAT     H268127   4.054   8.469   6.325
22629WAT      O68128   4.328   4.119   7.480
22629WAT     H168129   4.328   4.167   7.568
22629WAT     H268130   4.240   4.073   7.467
22630WAT      O68131   9.387   7.018   0.893
22630WAT     H168132   9.454   7.091   0.909
22630WAT     H268133   9.413   6.937   0.945
22631WAT      O68134   4.184   3.417   3.180
22631WAT     H168135   4.155   3.331   3.221
22631WAT     H268136   4.106   3.461   3.135
22632WAT      O68137   8.763   9.750   5.686
22632WAT     H168138   8.851   9.783   5.721
22632WAT     H268139   8.699   9.826   5.679
22633WAT      O68140   7.017   4.739   0.220
22633WAT     H168141   7.010   4.839   0.215
22633WAT     H268142   7.100   4.714   0.268
22634WAT      O68143   7.629   1.450   9.867
22634WAT     H168144   7.632   1.517   9.793
22634WAT     H268145   7.694   1.377   9.849
22635WAT      O68146   4.832   0.558   3.348
22635WAT     H168147   4.740   0.572   3.384
22635WAT     H268148   4.897   0.616   3.398
22636WAT      O68149   2.795   7.543   3.965
22636WAT     H168150   2.715   7.486   3.947
22636WAT     H268151   2.822   7.589   3.880
22637WAT      O68152   2.282   2.891   5.470
22637WAT     H168153   2.381   2.888   5.479
22637WAT     H268154   2.240   2.833   5.540
22638WAT      O68155   5.410   6.369   6.272
22638WAT     H168156   5.368   6.308   6.204
22638WAT     H268157   5.361   6.456   6.274
22639WAT      O68158   2.185   0.830   9.743
22639WAT     H168159   2.260   0.890   9.716
22639WAT     H268160   2.170   0.836   9.841
22640WAT      O68161   9.381   2.407   5.802
22640WAT     H168162   9.353   2.319   5.764
22640WAT     H268163   9.374   2.404   5.902
22641WAT      O68164   3.906   5.814   6.479
22641WAT     H168165   3.852   5.878   6.534
22641WAT     H268166   4.003   5.826   6.500
22642WAT      O68167   6.214   7.501   0.139
22642WAT     H168168   6.273   7.569   0.096
22642WAT     H268169   6.204   7.422   0.078
22643WAT      O68170   1.660   9.564   7.931
22643WAT     H168171   1.650   9.538   8.027
22643WAT     H268172   1.618   9.494   7.873
22644WAT      O68173   0.014   5.631   1.089
22644WAT     H168174  -0.009   5.713   1.035
22644WAT     H268175  -0.062   5.566   1.084
22645WAT      O68176   9.137   6.128   3.915
22645WAT     H168177   9.154   6.208   3.857
22645WAT     H268178   9.038   6.118   3.930
22646WAT      O68179   8.148   0.468   0.670
22646WAT     H168180   8.064   0.416   0.685
22646WAT     H268181   8.191   0.487   0.758
22647WAT      O68182   5.183   7.738   7.644
22647WAT     H168183   5.128   7.815   7.614
22647WAT     H268184   5.134   7.653   7.626
22648WAT      O68185   9.673   9.407   0.013
22648WAT     H168186   9.748   9.390  -0.051
22648WAT     H268187   9.646   9.321   0.056
22649WAT      O68188   4.551   1.131   0.952
22649WAT     H168189   4.556   1.108   0.855
22649WAT     H268190   4.632   1.094   0.999
22650WAT      O68191   5.775   0.116   5.396
22650WAT     H168192   5.713   0.049   5.435
22650WAT     H268193   5.726   0.202   5.379
22651WAT      O68194   5.056   8.506   6.534
22651WAT     H168195   5.143   8.469   6.567
22651WAT     H268196   5.061   8.606   6.533
22652WAT      O68197   0.548   6.508   1.885
22652WAT     H168198   0.530   6.439   1.815
22652WAT     H268199   0.638   6.548   1.871
22653WAT      O68200   4.104   7.837   9.039
22653WAT     H168201   4.115   7.748   8.995
22653WAT     H268202   4.151   7.907   8.985
22654WAT      O68203   2.808   5.972   1.561
22654WAT     H168204   2.816   5.873   1.570
22654WAT     H268205   2.832   5.999   1.467
22655WAT      O68206   8.641   1.776   4.663
22655WAT     H168207   8.556   1.761   4.613
22655WAT     H268208   8.623   1.832   4.744
22656WAT      O68209   1.875   5.664   6.670
22656WAT     H168210   1.797   5.633   6.725
22656WAT     H268211   1.846   5.737   6.609
22657WAT      O68212   3.407   1.221   6.859
22657WAT     H168213   3.309   1.236   6.859
22657WAT     H268214   3.453   1.297   6.904
22658WAT      O68215   5.241   2.264   1.724
22658WAT     H168216   5.199   2.276   1.634
22658WAT     H268217   5.230   2.169   1.753
22659WAT      O68218   5.947   9.490   1.454
22659WAT     H168219   5.945   9.496   1.354
22659WAT     H268220   5.874   9.428   1.485
22660WAT      O68221   3.071   1.664   8.681
22660WAT     H168222   2.991   1.639   8.626
22660WAT     H268223   3.134   1.587   8.684
22661WAT      O68224   0.650   4.829   2.415
22661WAT     H168225   0.697   4.836   2.327
22661WAT     H268226   0.554   4.853   2.403
22662WAT      O68227   3.337   6.263   5.609
22662WAT     H168228   3.312   6.167   5.612
22662WAT     H268229   3.429   6.273   5.570
22663WAT      O68230   3.981   1.671   8.310
22663WAT     H168231   3.989   1.771   8.314
22663WAT     H268232   3.886   1.647   8.289
22664WAT      O68233   0.256   4.360   6.651
22664WAT     H168234   0.202   4.376   6.733
22664WAT     H268235   0.206   4.392   6.571
22665WAT      O68236   0.330   8.488   6.807
22665WAT     H168237   0.379   8.540   6.877
22665WAT     H268238   0.243   8.534   6.787
22666WAT      O68239   4.614   8.045   4.640
22666WAT     H168240   4.620   8.010   4.733
22666WAT     H268241   4.598   8.144   4.644
22667WAT      O68242   3.655   5.138   8.116
22667WAT     H168243   3.683   5.213   8.056
22667WAT     H268244   3.564   5.106   8.089
22668WAT      O68245   2.619   7.677   4.855
22668WAT     H168246   2.541   7.618   4.833
22668WAT     H268247   2.660   7.646   4.941
22669WAT      O68248   4.385   6.580   0.874
22669WAT     H168249   4.437   6.554   0.956
22669WAT     H268250   4.320   6.508   0.852
22670WAT      O68251   2.745   2.230   7.466
22670WAT     H168252   2.714   2.158   7.403
22670WAT     H268253   2.815   2.285   7.421
22671WAT      O68254   5.241   2.489   1.218
22671WAT     H168255   5.337   2.516   1.228
22671WAT     H268256   5.224   2.458   1.124
22672WAT      O68257   8.156   2.941   0.774
22672WAT     H168258   8.082   3.001   0.805
22672WAT     H268259   8.159   2.859   0.832
22673WAT      O68260   1.420   4.261   8.080
22673WAT     H168261   1.337   4.211   8.055
22673WAT     H268262   1.398   4.358   8.093
22674WAT      O68263   7.744   4.470   6.135
22674WAT     H168264   7.662   4.420   6.107
22674WAT     H268265   7.822   4.441   6.078
22675WAT      O68266   8.203   0.898   6.270
22675WAT     H168267   8.229   0.807   6.303
22675WAT     H268268   8.185   0.894   6.171
22676WAT      O68269   0.707   5.853   9.349
22676WAT     H168270   0.635   5.795   9.311
22676WAT     H268271   0.679   5.888   9.438
22677WAT      O68272   8.422   4.274   0.252
22677WAT     H168273   8.325   4.289   0.236
22677WAT     H268274   8.436   4.180   0.284
22678WAT      O68275   1.048   2.412   0.969
22678WAT     H168276   1.040   2.398   0.870
22678WAT     H268277   1.144   2.416   0.995
22679WAT      O68278   5.607   3.531   5.732
22679WAT     H168279   5.543   3.528   5.655
22679WAT     H268280   5.663   3.447   5.732
22680WAT      O68281   2.539   2.613   6.915
22680WAT     H168282   2.542   2.584   6.820
22680WAT     H268283   2.539   2.713   6.919
22681WAT      O68284   6.148   1.782   5.326
22681WAT     H168285   6.081   1.837   5.376
22681WAT     H268286   6.184   1.712   5.387
22682WAT      O68287   9.010   2.290   2.720
22682WAT     H168288   9.081   2.305   2.789
22682WAT     H268289   9.039   2.218   2.658
22683WAT      O68290   3.756   2.225   4.606
22683WAT     H168291   3.767   2.205   4.703
22683WAT     H268292   3.717   2.145   4.560
22684WAT      O68293   7.110   8.955   0.809
22684WAT     H168294   7.036   9.021   0.798
22684WAT     H268295   7.110   8.890   0.733
22685WAT      O68296   5.410   7.074   6.838
22685WAT     H168297   5.348   7.089   6.762
22685WAT     H268298   5.500   7.110   6.816
22686WAT      O68299   3.222   7.941   0.905
22686WAT     H168300   3.175   7.971   0.822
22686WAT     H268301   3.221   8.016   0.972
22687WAT      O68302   2.158   2.001   4.085
22687WAT     H168303   2.127   1.993   4.180
22687WAT     H268304   2.258   2.005   4.083
22688WAT      O68305   7.755   8.143   2.190
22688WAT     H168306   7.774   8.045   2.202
22688WAT     H268307   7.690   8.154   2.114
22689WAT      O68308   8.624   5.032   3.039
22689WAT     H168309   8.651   4.950   2.989
22689WAT     H268310   8.648   5.021   3.136
22690WAT      O68311   2.855   3.060   2.144
22690WAT     H168312   2.768   3.076   2.190
22690WAT     H268313   2.919   3.016   2.206
22691WAT      O68314   4.504   9.130   4.577
22691WAT     H168315   4.466   9.048   4.534
22691WAT     H268316   4.530   9.110   4.671
22692WAT      O68317   7.039   1.350   2.300
22692WAT     H168318   7.060   1.421   2.232
22692WAT     H268319   6.948   1.367   2.338
22693WAT      O68320   3.505   1.273   7.224
22693WAT     H168321   3.461   1.349   7.177
22693WAT     H268322   3.598   1.299   7.250
22694WAT      O68323   6.145   6.495   2.722
22694WAT     H168324   6.156   6.574   2.661
22694WAT     H268325   6.196   6.417   2.686
22695WAT      O68326   9.142   1.781   9.431
22695WAT     H168327   9.042   1.775   9.423
22695WAT     H268328   9.174   1.864   9.386
22696WAT      O68329   0.346   5.752   6.486
22696WAT     H168330   0.255   5.722   6.514
22696WAT     H268331   0.415   5.701   6.537
22697WAT      O68332   7.378   3.715   6.277
22697WAT     H168333   7.352   3.675   6.365
22697WAT     H268334   7.382   3.642   6.208
22698WAT      O68335   1.449   5.457   3.728
22698WAT     H168336   1.544   5.487   3.725
22698WAT     H268337   1.392   5.528   3.771
22699WAT      O68338   1.444   0.204   8.206
22699WAT     H168339   1.444   0.290   8.155
22699WAT     H268340   1.439   0.224   8.304
22700WAT      O68341   0.138   1.198   5.499
22700WAT     H168342   0.078   1.278   5.509
22700WAT     H268343   0.088   1.115   5.522
22701WAT      O68344   6.333   9.378   6.652
22701WAT     H168345   6.425   9.381   6.692
22701WAT     H268346   6.267   9.416   6.716
22702WAT      O68347   9.026   7.872   9.585
22702WAT     H168348   8.976   7.957   9.571
22702WAT     H268349   8.962   7.798   9.601
22703WAT      O68350   6.823   6.380   6.524
22703WAT     H168351   6.779   6.468   6.542
22703WAT     H268352   6.765   6.326   6.462
22704WAT      O68353   9.298   1.216   4.721
22704WAT     H168354   9.263   1.175   4.636
22704WAT     H268355   9.318   1.313   4.706
22705WAT      O68356   5.721   5.881   8.575
22705WAT     H168357   5.668   5.868   8.658
22705WAT     H268358   5.734   5.792   8.529
22706WAT      O68359   3.708   6.520   1.540
22706WAT     H168360   3.767   6.551   1.615
22706WAT     H268361   3.729   6.571   1.457
22707WAT      O68362   0.382   7.929   4.460
22707WAT     H168363   0.417   7.870   4.387
22707WAT     H268364   0.328   7.873   4.524
22708WAT      O68365   2.428   0.130   2.712
22708WAT     H168366   2.478   0.201   2.662
22708WAT     H268367   2.480   0.045   2.709
22709WAT      O68368   8.714   3.706   9.406
22709WAT     H168369   8.740   3.685   9.312
22709WAT     H268370   8.651   3.636   9.439
22710WAT      O68371   2.062   5.784   1.370
22710WAT     H168372   2.008   5.699   1.364
22710WAT     H268373   2.044   5.840   1.289
22711WAT      O68374   1.319   9.371   4.861
22711WAT     H168375   1.356   9.463   4.869
22711WAT     H268376   1.255   9.367   4.784
22712WAT      O68377   0.568   2.977   6.560
22712WAT     H168378   0.596   2.881   6.552
22712WAT     H268379   0.468   2.982   6.559
22713WAT      O68380   3.709   0.212   7.277
22713WAT     H168381   3.738   0.128   7.231
22713WAT     H268382   3.675   0.277   7.208
22714WAT      O68383   7.413   7.592   9.531
22714WAT     H168384   7.509   7.576   9.511
22714WAT     H268385   7.400   7.689   9.555
22715WAT      O68386   0.983   1.433   8.089
22715WAT     H168387   1.033   1.376   8.154
22715WAT     H268388   0.969   1.381   8.004
22716WAT      O68389   2.664   2.088   0.991
22716WAT     H168390   2.699   2.172   0.949
22716WAT     H268391   2.572   2.070   0.956
22717WAT      O68392   8.697   1.620   2.718
22717WAT     H168393   8.650   1.635   2.805
22717WAT     H268394   8.733   1.707   2.685
22718WAT      O68395   3.694   5.014   9.519
22718WAT     H168396   3.778   5.014   9.572
22718WAT     H268397   3.710   5.059   9.431
22719WAT      O68398   4.177   6.096   2.599
22719WAT     H168399   4.160   6.190   2.628
22719WAT     H268400   4.109   6.070   2.530
22720WAT      O68401   7.446   6.299   5.667
22720WAT     H168402   7.391   6.256   5.738
22720WAT     H268403   7.488   6.229   5.609
22721WAT      O68404   3.425   0.527   0.186
22721WAT     H168405   3.498   0.473   0.144
22721WAT     H268406   3.399   0.486   0.274
22722WAT      O68407   3.776   6.273   1.870
22722WAT     H168408   3.679   6.263   1.849
22722WAT     H268409   3.788   6.346   1.937
22723WAT      O68410   7.957   1.670   2.413
22723WAT     H168411   7.933   1.660   2.317
22723WAT     H268412   8.023   1.745   2.423
22724WAT      O68413   7.758   4.096   4.563
22724WAT     H168414   7.774   4.080   4.466
22724WAT     H268415   7.659   4.107   4.579
22725WAT      O68416   0.430   1.818   1.738
22725WAT     H168417   0.372   1.736   1.749
22725WAT     H268418   0.373   1.894   1.706
22726WAT      O68419   0.107   9.121   9.745
22726WAT     H168420   0.165   9.200   9.767
22726WAT     H268421   0.051   9.142   9.664
22727WAT      O68422   3.058   8.642   9.666
22727WAT     H168423   2.986   8.677   9.725
22727WAT     H268424   3.142   8.694   9.682
22728WAT      O68425   5.935   3.372   1.570
22728WAT     H168426   5.871   3.431   1.619
22728WAT     H268427   5.976   3.307   1.634
22729WAT      O68428   5.881   1.471   8.927
22729WAT     H168429   5.938   1.472   8.845
22729WAT     H268430   5.852   1.564   8.949
22730WAT      O68431   0.745   2.219   6.546
22730WAT     H168432   0.787   2.141   6.499
22730WAT     H268433   0.739   2.199   6.644
22731WAT      O68434   1.257   7.997   6.441
22731WAT     H168435   1.305   7.938   6.376
22731WAT     H268436   1.249   8.089   6.403
22732WAT      O68437   2.819   6.102   4.919
22732WAT     H168438   2.743   6.157   4.884
22732WAT     H268439   2.877   6.073   4.843
22733WAT      O68440   5.658   5.797   1.488
22733WAT     H168441   5.743   5.757   1.452
22733WAT     H268442   5.580   5.759   1.439
22734WAT      O68443   4.466   5.168   8.902
22734WAT     H168444   4.552   5.174   8.851
22734WAT     H268445   4.390   5.183   8.839
22735WAT      O68446   4.141   0.715   3.187
22735WAT     H168447   4.145   0.783   3.261
22735WAT     H268448   4.062   0.655   3.203
22736WAT      O68449   4.931   8.875   2.001
22736WAT     H168450   5.017   8.849   2.045
22736WAT     H268451   4.878   8.793   1.981
22737WAT      O68452   9.279   0.619   2.008
22737WAT     H168453   9.346   0.660   1.946
22737WAT     H268454   9.326   0.577   2.085
22738WAT      O68455   3.295   2.071   5.718
22738WAT     H168456   3.383   2.106   5.751
22738WAT     H268457   3.288   2.085   5.619
22739WAT      O68458   9.872   4.457   9.234
22739WAT     H168459   9.917   4.371   9.262
22739WAT     H268460   9.773   4.448   9.247
22740WAT      O68461   9.464   1.231   1.767
22740WAT     H168462   9.502   1.182   1.846
22740WAT     H268463   9.419   1.167   1.706
22741WAT      O68464   6.157   3.112   1.346
22741WAT     H168465   6.155   3.071   1.255
22741WAT     H268466   6.069   3.157   1.364
22742WAT      O68467   0.916   0.522   9.464
22742WAT     H168468   0.898   0.618   9.442
22742WAT     H268469   0.992   0.489   9.407
22743WAT      O68470   2.050   7.024   6.365
22743WAT     H168471   2.051   7.046   6.462
22743WAT     H268472   2.121   7.076   6.318
22744WAT      O68473   0.366   7.134   9.039
22744WAT     H168474   0.321   7.189   9.110
22744WAT     H268475   0.300   7.107   8.970
22745WAT      O68476   9.347   4.132   4.611
22745WAT     H168477   9.444   4.128   4.632
22745WAT     H268478   9.299   4.183   4.683
22746WAT      O68479   1.418   1.385   4.709
22746WAT     H168480   1.447   1.462   4.766
22746WAT     H268481   1.448   1.299   4.750
22747WAT      O68482   4.691   6.244   3.672
22747WAT     H168483   4.780   6.288   3.657
22747WAT     H268484   4.704   6.145   3.677
22748WAT      O68485   3.136   1.478   3.234
22748WAT     H168486   3.123   1.577   3.223
22748WAT     H268487   3.050   1.431   3.213
22749WAT      O68488   8.029   4.911   2.018
22749WAT     H168489   8.080   4.992   1.988
22749WAT     H268490   8.021   4.912   2.117
22750WAT      O68491   7.265   0.641   5.049
22750WAT     H168492   7.191   0.576   5.064
22750WAT     H268493   7.325   0.642   5.129
22751WAT      O68494   8.303   5.884   0.963
22751WAT     H168495   8.384   5.826   0.974
22751WAT     H268496   8.259   5.897   1.052
22752WAT      O68497   2.075   1.293   9.580
22752WAT     H168498   1.990   1.345   9.569
22752WAT     H268499   2.076   1.248   9.669
22753WAT      O68500   7.111   0.927   7.847
22753WAT     H168501   7.185   0.955   7.786
22753WAT     H268502   7.027   0.976   7.823
22754WAT      O68503   9.131   7.516   1.301
22754WAT     H168504   9.099   7.515   1.206
22754WAT     H268505   9.054   7.532   1.362
22755WAT      O68506   2.888   0.852   1.602
22755WAT     H168507   2.921   0.931   1.654
22755WAT     H268508   2.880   0.877   1.506
22756WAT      O68509   4.883   8.241   4.719
22756WAT     H168510   4.911   8.147   4.699
22756WAT     H268511   4.806   8.240   4.783
22757WAT      O68512   3.572   5.951   8.791
22757WAT     H168513   3.639   5.888   8.751
22757WAT     H268514   3.563   5.932   8.889
22758WAT      O68515   4.396   4.532   0.631
22758WAT     H168516   4.467   4.462   0.616
22758WAT     H268517   4.324   4.494   0.690
22759WAT      O68518   8.005   0.542   7.262
22759WAT     H168519   7.928   0.562   7.201
22759WAT     H268520   8.061   0.469   7.222
22760WAT      O68521   9.569   6.178   4.422
22760WAT     H168522   9.626   6.098   4.400
22760WAT     H268523   9.481   6.147   4.458
22761WAT      O68524   0.333   0.503   5.059
22761WAT     H168525   0.242   0.496   5.099
22761WAT     H268526   0.396   0.444   5.109
22762WAT      O68527   5.944   5.680   6.880
22762WAT     H168528   5.916   5.739   6.955
22762WAT     H268529   5.897   5.592   6.886
22763WAT      O68530   7.542   4.887   7.072
22763WAT     H168531   7.486   4.893   6.989
22763WAT     H268532   7.537   4.794   7.108
22764WAT      O68533   7.732   0.835   8.230
22764WAT     H168534   7.788   0.753   8.221
22764WAT     H268535   7.780   0.912   8.189
22765WAT      O68536   2.617   6.041   0.436
22765WAT     H168537   2.681   5.973   0.400
22765WAT     H268538   2.613   6.120   0.375
22766WAT      O68539   1.118   1.203   1.109
22766WAT     H168540   1.103   1.301   1.113
22766WAT     H268541   1.101   1.170   1.016
22767WAT      O68542   0.844   1.447   3.986
22767WAT     H168543   0.843   1.351   3.956
22767WAT     H268544   0.927   1.491   3.954
22768WAT      O68545   3.625   9.498   1.269
22768WAT     H168546   3.706   9.525   1.217
22768WAT     H268547   3.572   9.579   1.293
22769WAT      O68548   5.075   4.210   9.165
22769WAT     H168549   5.142   4.234   9.095
22769WAT     H268550   5.000   4.276   9.164
22770WAT      O68551   5.595   6.282   1.284
22770WAT     H168552   5.668   6.214   1.292
22770WAT     H268553   5.590   6.314   1.189
22771WAT      O68554   7.230   5.301   8.508
22771WAT     H168555   7.246   5.386   8.558
22771WAT     H268556   7.204   5.229   8.572
22772WAT      O68557   6.692   0.582   9.797
22772WAT     H168558   6.622   0.557   9.730
22772WAT     H268559   6.683   0.679   9.821
22773WAT      O68560   8.343   0.897   1.671
22773WAT     H168561   8.283   0.935   1.601
22773WAT     H268562   8.434   0.938   1.662
22774WAT      O68563   5.758   0.811   8.797
22774WAT     H168564   5.676   0.761   8.770
22774WAT     H268565   5.736   0.908   8.808
22775WAT      O68566   1.384   2.083   6.166
22775WAT     H168567   1.442   2.066   6.087
22775WAT     H268568   1.389   2.006   6.229
22776WAT      O68569   2.463   3.876   5.104
22776WAT     H168570   2.446   3.913   5.013
22776WAT     H268571   2.547   3.915   5.141
22777WAT      O68572   5.005   8.043   1.505
22777WAT     H168573   5.080   8.065   1.568
22777WAT     H268574   4.983   7.946   1.512
22778WAT      O68575   2.472   8.451   8.128
22778WAT     H168576   2.503   8.362   8.163
22778WAT     H268577   2.401   8.437   8.059
22779WAT      O68578   2.097   5.534   6.776
22779WAT     H168579   2.110   5.540   6.875
22779WAT     H268580   2.031   5.604   6.748
22780WAT      O68581   4.105   3.958   7.477
22780WAT     H168582   4.107   3.947   7.576
22780WAT     H268583   4.066   3.876   7.435
22781WAT      O68584   3.270   5.407   4.252
22781WAT     H168585   3.329   5.481   4.222
22781WAT     H268586   3.324   5.323   4.261
22782WAT      O68587   2.749   7.394   5.430
22782WAT     H168588   2.669   7.447   5.458
22782WAT     H268589   2.823   7.410   5.495
22783WAT      O68590   0.885   5.328   1.091
22783WAT     H168591   0.855   5.408   1.144
22783WAT     H268592   0.858   5.340   0.996
22784WAT      O68593   9.437   6.514   8.175
22784WAT     H168594   9.519   6.563   8.202
22784WAT     H268595   9.377   6.503   8.253
22785WAT      O68596   0.669   8.893   6.513
22785WAT     H168597   0.736   8.823   6.487
22785WAT     H268598   0.600   8.853   6.573
22786WAT      O68599   6.564   9.222   3.652
22786WAT     H168600   6.528   9.221   3.746
22786WAT     H268601   6.574   9.129   3.619
22787WAT      O68602   4.575   0.561   8.248
22787WAT     H168603   4.638   0.612   8.190
22787WAT     H268604   4.585   0.591   8.343
22788WAT      O68605   6.895   2.139   0.187
22788WAT     H168606   6.917   2.065   0.251
22788WAT     H268607   6.851   2.100   0.106
22789WAT      O68608   3.555   8.475   7.111
22789WAT     H168609   3.489   8.448   7.181
22789WAT     H268610   3.508   8.521   7.036
22790WAT      O68611   5.250   7.318   3.459
22790WAT     H168612   5.157   7.350   3.441
22790WAT     H268613   5.273   7.332   3.556
22791WAT      O68614   4.289   5.122   3.820
22791WAT     H168615   4.356   5.050   3.802
22791WAT     H268616   4.263   5.120   3.916
22792WAT      O68617   5.240   8.739   5.758
22792WAT     H168618   5.141   8.753   5.758
22792WAT     H268619   5.281   8.797   5.829
22793WAT      O68620   0.259   0.713   5.876
22793WAT     H168621   0.245   0.799   5.827
22793WAT     H268622   0.356   0.688   5.873
22794WAT      O68623   5.258   6.705   7.733
22794WAT     H168624   5.229   6.674   7.642
22794WAT     H268625   5.339   6.654   7.760
22795WAT      O68626   4.858   3.264   0.062
22795WAT     H168627   4.807   3.222  -0.013
22795WAT     H268628   4.930   3.202   0.093
22796WAT      O68629   8.744   3.320   4.423
22796WAT     H168630   8.700   3.253   4.484
22796WAT     H268631   8.713   3.412   4.448
22797WAT      O68632   2.051   4.132   1.953
22797WAT     H168633   1.961   4.093   1.939
22797WAT     H268634   2.042   4.230   1.971
22798WAT      O68635   9.506   5.675   3.170
22798WAT     H168636   9.437   5.606   3.149
22798WAT     H268637   9.539   5.717   3.085
22799WAT      O68638   8.181   4.195   9.068
22799WAT     H168639   8.118   4.262   9.029
22799WAT     H268640   8.204   4.221   9.161
22800WAT      O68641   5.711   2.265   9.248
22800WAT     H168642   5.669   2.352   9.274
22800WAT     H268643   5.810   2.270   9.264
22801WAT      O68644   5.172   6.281   5.145
22801WAT     H168645   5.088   6.228   5.140
22801WAT     H268646   5.231   6.257   5.068
22802WAT      O68647   7.743   4.494   4.165
22802WAT     H168648   7.756   4.592   4.179
22802WAT     H268649   7.716   4.477   4.070
22803WAT      O68650   1.658   9.541   5.688
22803WAT     H168651   1.605   9.508   5.609
22803WAT     H268652   1.616   9.509   5.772
22804WAT      O68653   7.624   5.596   5.960
22804WAT     H168654   7.543   5.554   5.919
22804WAT     H268655   7.603   5.689   5.989
22805WAT      O68656   8.282   1.744   2.219
22805WAT     H168657   8.330   1.809   2.160
22805WAT     H268658   8.222   1.686   2.163
22806WAT      O68659   3.441   2.681   7.813
22806WAT     H168660   3.421   2.614   7.884
22806WAT     H268661   3.366   2.747   7.807
22807WAT      O68662   2.054   3.262   1.223
22807WAT     H168663   2.032   3.309   1.137
22807WAT     H268664   2.153   3.263   1.237
22808WAT      O68665   4.894   5.788   3.200
22808WAT     H168666   4.864   5.875   3.238
22808WAT     H268667   4.991   5.794   3.176
22809WAT      O68668   2.319   6.988   8.022
22809WAT     H168669   2.353   6.996   7.929
22809WAT     H268670   2.300   6.893   8.044
22810WAT      O68671   0.670   2.971   6.827
22810WAT     H168672   0.747   3.027   6.860
22810WAT     H268673   0.634   3.010   6.743
22811WAT      O68674   0.223   7.634   7.021
22811WAT     H168675   0.211   7.584   6.936
22811WAT     H268676   0.260   7.573   7.091
22812WAT      O68677   1.266   5.356   2.871
22812WAT     H168678   1.188   5.293   2.881
22812WAT     H268679   1.328   5.320   2.801
22813WAT      O68680   4.772   1.343   5.665
22813WAT     H168681   4.792   1.249   5.638
22813WAT     H268682   4.817   1.364   5.751
22814WAT      O68683   1.991   1.188   5.147
22814WAT     H168684   1.960   1.255   5.079
22814WAT     H268685   2.008   1.235   5.233
22815WAT      O68686   8.264   1.281   6.785
22815WAT     H168687   8.278   1.284   6.884
22815WAT     H268688   8.318   1.208   6.745
22816WAT      O68689   7.454   0.891   1.796
22816WAT     H168690   7.479   0.840   1.877
22816WAT     H268691   7.429   0.828   1.722
22817WAT      O68692   3.843   2.002   3.860
22817WAT     H168693   3.904   2.076   3.885
22817WAT     H268694   3.768   2.037   3.803
22818WAT      O68695   1.730   5.096   5.133
22818WAT     H168696   1.702   5.100   5.037
22818WAT     H268697   1.676   5.161   5.187
22819WAT      O68698   6.072   9.328   0.032
22819WAT     H168699   6.119   9.316  -0.056
22819WAT     H268700   6.062   9.425   0.051
22820WAT      O68701   9.223   4.553   5.510
22820WAT     H168702   9.206   4.464   5.552
22820WAT     H268703   9.177   4.558   5.422
22821WAT      O68704   9.797   9.592   1.056
22821WAT     H168705   9.785   9.496   1.031
22821WAT     H268706   9.777   9.605   1.153
22822WAT      O68707   9.301   6.527   0.950
22822WAT     H168708   9.362   6.449   0.960
22822WAT     H268709   9.286   6.546   0.853
22823WAT      O68710   3.755   8.824   8.948
22823WAT     H168711   3.722   8.891   8.882
22823WAT     H268712   3.691   8.819   9.025
22824WAT      O68713   6.341   9.268   0.520
22824WAT     H168714   6.352   9.318   0.606
22824WAT     H268715   6.249   9.228   0.516
22825WAT      O68716   9.602   8.595   7.220
22825WAT     H168717   9.530   8.604   7.151
22825WAT     H268718   9.658   8.677   7.221
22826WAT      O68719   3.423   2.151   4.616
22826WAT     H168720   3.500   2.093   4.590
22826WAT     H268721   3.443   2.246   4.592
22827WAT      O68722   5.012   5.595   0.514
22827WAT     H168723   4.933   5.578   0.455
22827WAT     H268724   5.065   5.511   0.525
22828WAT      O68725   1.578   3.885   0.315
22828WAT     H168726   1.640   3.811   0.289
22828WAT     H268727   1.485   3.862   0.285
22829WAT      O68728   4.393   7.264   0.712
22829WAT     H168729   4.342   7.305   0.636
22829WAT     H268730   4.475   7.220   0.677
22830WAT      O68731   5.487   5.575   2.162
22830WAT     H168732   5.525   5.613   2.246
22830WAT     H268733   5.525   5.623   2.083
22831WAT      O68734   6.077   9.120   4.994
22831WAT     H168735   6.150   9.075   4.943
22831WAT     H268736   5.992   9.070   4.982
22832WAT      O68737   4.478   3.775   9.379
22832WAT     H168738   4.425   3.855   9.351
22832WAT     H268739   4.576   3.795   9.367
22833WAT      O68740   8.802   5.578   6.588
22833WAT     H168741   8.749   5.640   6.530
22833WAT     H268742   8.740   5.514   6.634
22834WAT      O68743   8.909   1.719   9.130
22834WAT     H168744   8.954   1.792   9.078
22834WAT     H268745   8.813   1.713   9.103
22835WAT      O68746   3.217   1.916   4.258
22835WAT     H168747   3.238   1.902   4.355
22835WAT     H268748   3.302   1.924   4.206
22836WAT      O68749   5.776   8.756   8.645
22836WAT     H168750   5.710   8.685   8.670
22836WAT     H268751   5.769   8.832   8.709
22837WAT      O68752   0.583   1.155   6.843
22837WAT     H168753   0.581   1.250   6.814
22837WAT     H268754   0.558   1.149   6.939
22838WAT      O68755   5.254   2.470   6.267
22838WAT     H168756   5.213   2.543   6.213
22838WAT     H268757   5.268   2.390   6.209
22839WAT      O68758   0.674   7.517   6.137
22839WAT     H168759   0.716   7.582   6.202
22839WAT     H268760   0.734   7.506   6.058
22840WAT      O68761   5.477   8.263   6.082
22840WAT     H168762   5.555   8.265   6.145
22840WAT     H268763   5.481   8.342   6.021
22841WAT      O68764   2.251   5.379   3.640
22841WAT     H168765   2.273   5.411   3.548
22841WAT     H268766   2.166   5.421   3.671
22842WAT      O68767   5.213   4.381   3.793
22842WAT     H168768   5.176   4.465   3.834
22842WAT     H268769   5.147   4.307   3.803
22843WAT      O68770   1.225   9.353   5.813
22843WAT     H168771   1.215   9.450   5.793
22843WAT     H268772   1.137   9.307   5.802
22844WAT      O68773   2.892   8.769   4.276
22844WAT     H168774   2.899   8.681   4.323
22844WAT     H268775   2.955   8.771   4.199
22845WAT      O68776   6.362   6.254   2.916
22845WAT     H168777   6.308   6.199   2.853
22845WAT     H268778   6.458   6.225   2.911
22846WAT      O68779   2.257   7.050   0.870
22846WAT     H168780   2.320   7.062   0.794
22846WAT     H268781   2.226   7.139   0.903
22847WAT      O68782   6.707   0.928   8.134
22847WAT     H168783   6.624   0.872   8.134
22847WAT     H268784   6.788   0.870   8.136
22848WAT      O68785   5.179   9.415   1.681
22848WAT     H168786   5.220   9.389   1.594
22848WAT     H268787   5.095   9.363   1.695
22849WAT      O68788   4.481   5.872   2.253
22849WAT     H168789   4.435   5.878   2.341
22849WAT     H268790   4.420   5.908   2.181
22850WAT      O68791   7.166   8.627   6.576
22850WAT     H168792   7.227   8.573   6.635
22850WAT     H268793   7.206   8.718   6.563
22851WAT      O68794   7.401   3.503   9.594
22851WAT     H168795   7.459   3.582   9.576
22851WAT     H268796   7.384   3.495   9.692
22852WAT      O68797   6.225   7.330   2.525
22852WAT     H168798   6.284   7.348   2.446
22852WAT     H268799   6.267   7.259   2.582
22853WAT      O68800   0.268   4.758   1.820
22853WAT     H168801   0.296   4.769   1.724
22853WAT     H268802   0.339   4.795   1.879
22854WAT      O68803   4.397   8.513   5.302
22854WAT     H168804   4.408   8.531   5.400
22854WAT     H268805   4.351   8.426   5.289
22855WAT      O68806   7.687   4.948   2.433
22855WAT     H168807   7.747   5.022   2.404
22855WAT     H268808   7.736   4.861   2.426
22856WAT      O68809   9.798   8.148   3.156
22856WAT     H168810   9.815   8.243   3.180
22856WAT     H268811   9.700   8.134   3.141
22857WAT      O68812   6.384   3.680   0.410
22857WAT     H168813   6.342   3.745   0.473
22857WAT     H268814   6.372   3.587   0.445
22858WAT      O68815   1.124   9.794   4.867
22858WAT     H168816   1.192   9.791   4.794
22858WAT     H268817   1.148   9.728   4.938
22859WAT      O68818   8.862   7.903   5.203
22859WAT     H168819   8.874   7.819   5.256
22859WAT     H268820   8.765   7.917   5.184
22860WAT      O68821   3.829   9.736   3.321
22860WAT     H168822   3.802   9.733   3.417
22860WAT     H268823   3.840   9.642   3.286
22861WAT      O68824   6.295   0.943   0.858
22861WAT     H168825   6.322   0.853   0.823
22861WAT     H268826   6.202   0.964   0.827
22862WAT      O68827   1.836   6.797   5.495
22862WAT     H168828   1.923   6.845   5.488
22862WAT     H268829   1.808   6.793   5.591
22863WAT      O68830   0.131   3.908   4.021
22863WAT     H168831   0.068   3.910   3.943
22863WAT     H268832   0.119   3.991   4.075
22864WAT      O68833   4.265   8.683   6.744
22864WAT     H168834   4.182   8.637   6.709
22864WAT     H268835   4.334   8.686   6.672
22865WAT      O68836   4.235   5.506   6.459
22865WAT     H168837   4.292   5.427   6.434
22865WAT     H268838   4.224   5.565   6.379
22866WAT      O68839   0.138   6.958   0.593
22866WAT     H168840   0.141   7.052   0.559
22866WAT     H268841   0.131   6.958   0.692
22867WAT      O68842   9.460   8.713   8.117
22867WAT     H168843   9.557   8.705   8.093
22867WAT     H268844   9.406   8.664   8.049
22868WAT      O68845   8.542   5.449   9.061
22868WAT     H168846   8.632   5.461   9.103
22868WAT     H268847   8.553   5.422   8.966
22869WAT      O68848   6.037   0.847   9.786
22869WAT     H168849   6.041   0.857   9.885
22869WAT     H268850   5.977   0.917   9.748
22870WAT      O68851   1.554   0.176   7.690
22870WAT     H168852   1.634   0.225   7.658
22870WAT     H268853   1.580   0.114   7.764
22871WAT      O68854   3.157   0.191   4.331
22871WAT     H168855   3.064   0.191   4.369
22871WAT     H268856   3.156   0.152   4.239
22872WAT      O68857   3.507   3.229   9.571
22872WAT     H168858   3.472   3.188   9.655
22872WAT     H268859   3.574   3.167   9.529
22873WAT      O68860   6.876   9.415   6.081
22873WAT     H168861   6.876   9.500   6.028
22873WAT     H268862   6.970   9.381   6.091
22874WAT      O68863   9.617   2.062   7.263
22874WAT     H168864   9.712   2.035   7.246
22874WAT     H268865   9.557   2.023   7.193
22875WAT      O68866   9.726   1.063   0.261
22875WAT     H168867   9.663   1.056   0.184
22875WAT     H268868   9.688   1.124   0.330
22876WAT      O68869   9.348   7.785   9.762
22876WAT     H168870   9.325   7.830   9.848
22876WAT     H268871   9.412   7.842   9.711
22877WAT      O68872   0.350   0.494   0.904
22877WAT     H168873   0.448   0.488   0.919
22877WAT     H268874   0.329   0.575   0.850
22878WAT      O68875   2.617   8.687   9.349
22878WAT     H168876   2.541   8.741   9.384
22878WAT     H268877   2.704   8.726   9.382
22879WAT      O68878   6.278   4.487   1.543
22879WAT     H168879   6.226   4.403   1.528
22879WAT     H268880   6.244   4.534   1.625
22880WAT      O68881   8.423   7.571   7.155
22880WAT     H168882   8.398   7.486   7.201
22880WAT     H268883   8.463   7.550   7.066
22881WAT      O68884   0.568   0.494   3.483
22881WAT     H168885   0.659   0.534   3.487
22881WAT     H268886   0.524   0.518   3.397
22882WAT      O68887   8.509   8.923   7.319
22882WAT     H168888   8.472   8.935   7.227
22882WAT     H268889   8.587   8.983   7.332
22883WAT      O68890   7.330   1.069   5.731
22883WAT     H168891   7.262   1.081   5.658
22883WAT     H268892   7.384   0.987   5.712
22884WAT      O68893   2.843   0.844   3.423
22884WAT     H168894   2.744   0.853   3.438
22884WAT     H268895   2.892   0.876   3.504
22885WAT      O68896   8.908   1.486   9.512
22885WAT     H168897   8.879   1.431   9.434
22885WAT     H268898   8.974   1.435   9.567
22886WAT      O68899   9.595   6.368   3.824
22886WAT     H168900   9.586   6.312   3.907
22886WAT     H268901   9.669   6.434   3.836
22887WAT      O68902   3.769   6.186   3.850
22887WAT     H168903   3.779   6.103   3.905
22887WAT     H268904   3.851   6.243   3.861
22888WAT      O68905   1.928   6.424   3.015
22888WAT     H168906   1.871   6.467   3.085
22888WAT     H268907   1.937   6.327   3.034
22889WAT      O68908   0.280   2.545   4.538
22889WAT     H168909   0.270   2.465   4.480
22889WAT     H268910   0.224   2.534   4.620
22890WAT      O68911   7.215   8.060   4.212
22890WAT     H168912   7.119   8.079   4.193
22890WAT     H268913   7.273   8.100   4.141
22891WAT      O68914   2.891   4.645   0.862
22891WAT     H168915   2.898   4.743   0.846
22891WAT     H268916   2.798   4.614   0.842
22892WAT      O68917   9.286   4.471   7.794
22892WAT     H168918   9.190   4.500   7.801
22892WAT     H268919   9.301   4.392   7.852
22893WAT      O68920   7.950   3.170   6.073
22893WAT     H168921   7.969   3.264   6.099
22893WAT     H268922   7.886   3.170   5.995
22894WAT      O68923   8.393   2.808   1.009
22894WAT     H168924   8.301   2.778   0.985
22894WAT     H268925   8.389   2.888   1.068
22895WAT      O68926   6.052   4.618   5.434
22895WAT     H168927   6.121   4.550   5.410
22895WAT     H268928   5.971   4.572   5.471
22896WAT      O68929   8.769   7.512   7.060
22896WAT     H168930   8.862   7.476   7.055
22896WAT     H268931   8.703   7.437   7.049
22897WAT      O68932   1.807   4.059   1.878
22897WAT     H168933   1.788   3.996   1.804
22897WAT     H268934   1.722   4.087   1.921
22898WAT      O68935   9.588   0.733   7.200
22898WAT     H168936   9.687   0.720   7.192
22898WAT     H268937   9.569   0.817   7.250
22899WAT      O68938   5.294   8.000   2.781
22899WAT     H168939   5.212   7.997   2.725
22899WAT     H268940   5.364   7.940   2.742
22900WAT      O68941   8.942   5.354   8.077
22900WAT     H168942   8.847   5.385   8.073
22900WAT     H268943   9.001   5.430   8.104
22901WAT      O68944   9.574   9.515   5.539
22901WAT     H168945   9.553   9.417   5.542
22901WAT     H268946   9.672   9.529   5.543
22902WAT      O68947   5.646   4.723   1.467
22902WAT     H168948   5.602   4.777   1.395
22902WAT     H268949   5.664   4.631   1.434
22903WAT      O68950   0.235   1.393   9.710
22903WAT     H168951   0.223   1.376   9.612
22903WAT     H268952   0.217   1.309   9.761
22904WAT      O68953   1.984   9.403   5.771
22904WAT     H168954   2.020   9.365   5.856
22904WAT     H268955   1.951   9.329   5.712
22905WAT      O68956   1.749   2.645   8.365
22905WAT     H168957   1.802   2.696   8.433
22905WAT     H268958   1.730   2.553   8.400
22906WAT      O68959   2.286   9.348   9.579
22906WAT     H168960   2.311   9.415   9.649
22906WAT     H268961   2.357   9.277   9.575
22907WAT      O68962   1.980   3.764   4.693
22907WAT     H168963   2.004   3.855   4.727
22907WAT     H268964   1.975   3.700   4.769
22908WAT      O68965   4.945   4.661   0.541
22908WAT     H168966   4.913   4.754   0.559
22908WAT     H268967   4.869   4.605   0.510
22909WAT      O68968   2.505   4.321   0.889
22909WAT     H168969   2.484   4.235   0.841
22909WAT     H268970   2.446   4.329   0.969
22910WAT      O68971   3.872   4.571   2.454
22910WAT     H168972   3.946   4.546   2.516
22910WAT     H268973   3.900   4.554   2.360
22911WAT      O68974   7.925   1.574   4.683
22911WAT     H168975   7.937   1.671   4.658
22911WAT     H268976   7.833   1.545   4.659
22912WAT      O68977   4.804   4.050   0.030
22912WAT     H168978   4.737   3.979   0.050
22912WAT     H268979   4.862   4.065   0.111
22913WAT      O68980   1.184   9.801   6.133
22913WAT     H168981   1.163   9.899   6.137
22913WAT     H268982   1.261   9.781   6.195
22914WAT      O68983   4.076   4.918   1.102
22914WAT     H168984   4.118   4.830   1.080
22914WAT     H268985   4.136   4.968   1.164
22915WAT      O68986   3.536   4.359   0.028
22915WAT     H168987   3.483   4.402  -0.046
22915WAT     H268988   3.503   4.266   0.044
22916WAT      O68989   5.011   8.530   9.766
22916WAT     H168990   5.060   8.590   9.829
22916WAT     H268991   5.065   8.518   9.683
22917WAT      O68992   0.496   7.360   0.864
22917WAT     H168993   0.482   7.263   0.882
22917WAT     H268994   0.588   7.373   0.826
22918WAT      O68995   4.286   5.044   7.851
22918WAT     H168996   4.215   5.009   7.790
22918WAT     H268997   4.367   5.067   7.797
22919WAT      O68998   3.163   0.708   4.081
22919WAT     H168999   3.095   0.641   4.052
22919WAT     H269000   3.120   0.773   4.144
22920WAT      O69001   6.474   8.160   6.175
22920WAT     H169002   6.510   8.232   6.115
22920WAT     H269003   6.413   8.101   6.122
22921WAT      O69004   9.560   6.131   3.301
22921WAT     H169005   9.519   6.168   3.385
22921WAT     H269006   9.500   6.150   3.223
22922WAT      O69007   5.967   0.090   3.221
22922WAT     H169008   5.964   0.112   3.124
22922WAT     H269009   5.972  -0.009   3.233
22923WAT      O69010   8.266   9.690   2.905
22923WAT     H169011   8.190   9.742   2.944
22923WAT     H269012   8.246   9.669   2.810
22924WAT      O69013   3.997   4.105   3.534
22924WAT     H169014   3.993   4.060   3.624
22924WAT     H269015   4.082   4.080   3.488
22925WAT      O69016   7.072   6.027   2.784
22925WAT     H169017   7.153   6.036   2.726
22925WAT     H269018   7.067   6.105   2.846
22926WAT      O69019   1.824   2.253   7.989
22926WAT     H169020   1.884   2.212   7.920
22926WAT     H269021   1.747   2.297   7.944
22927WAT      O69022   2.601   9.335   5.601
22927WAT     H169023   2.663   9.413   5.609
22927WAT     H269024   2.528   9.357   5.537
22928WAT      O69025   1.316   5.182   0.242
22928WAT     H169026   1.284   5.098   0.285
22928WAT     H269027   1.267   5.198   0.157
22929WAT      O69028   7.640   0.515   4.523
22929WAT     H169029   7.713   0.535   4.588
22929WAT     H269030   7.551   0.524   4.567
22930WAT      O69031   6.674   8.255   7.482
22930WAT     H169032   6.728   8.215   7.556
22930WAT     H269033   6.685   8.354   7.482
22931WAT      O69034   0.487   3.892   8.536
22931WAT     H169035   0.516   3.945   8.616
22931WAT     H269036   0.425   3.947   8.480
22932WAT      O69037   5.916   0.623   8.669
22932WAT     H169038   5.861   0.681   8.728
22932WAT     H269039   5.877   0.532   8.666
22933WAT      O69040   1.664   1.857   2.930
22933WAT     H169041   1.676   1.782   2.865
22933WAT     H269042   1.658   1.820   3.023
22934WAT      O69043   0.101   3.456   4.364
22934WAT     H169044   0.165   3.430   4.436
22934WAT     H269045   0.122   3.405   4.280
22935WAT      O69046   4.342   7.881   2.706
22935WAT     H169047   4.398   7.809   2.665
22935WAT     H269048   4.394   7.925   2.779
22936WAT      O69049   9.086   6.777   2.411
22936WAT     H169050   9.145   6.699   2.391
22936WAT     H269051   8.990   6.747   2.411
22937WAT      O69052   9.612   5.452   0.659
22937WAT     H169053   9.572   5.521   0.599
22937WAT     H269054   9.709   5.443   0.639
22938WAT      O69055   5.971   1.725   2.019
22938WAT     H169056   5.905   1.755   2.087
22938WAT     H269057   5.942   1.757   1.928
22939WAT      O69058   7.977   2.524   2.770
22939WAT     H169059   8.006   2.620   2.770
22939WAT     H269060   7.973   2.490   2.676
22940WAT      O69061   9.197   8.051   2.840
22940WAT     H169062   9.202   7.953   2.859
22940WAT     H269063   9.104   8.075   2.812
22941WAT      O69064   6.395   3.211   1.437
22941WAT     H169065   6.429   3.186   1.527
22941WAT     H269066   6.301   3.178   1.427
22942WAT      O69067   2.487   8.257   0.155
22942WAT     H169068   2.396   8.283   0.186
22942WAT     H269069   2.480   8.200   0.073
22943WAT      O69070   5.674   8.297   0.921
22943WAT     H169071   5.746   8.367   0.919
22943WAT     H269072   5.655   8.267   0.827
22944WAT      O69073   6.957   3.153   1.935
22944WAT     H169074   7.035   3.207   1.965
22944WAT     H269075   6.885   3.157   2.005
22945WAT      O69076   3.308   2.624   2.779
22945WAT     H169077   3.325   2.547   2.717
22945WAT     H269078   3.394   2.660   2.813
22946WAT      O69079   6.483   3.543   2.053
22946WAT     H169080   6.417   3.470   2.036
22946WAT     H269081   6.470   3.617   1.987
22947WAT      O69082   8.879   0.404   1.476
22947WAT     H169083   8.923   0.413   1.566
22947WAT     H269084   8.941   0.360   1.412
22948WAT      O69085   7.298   5.354   6.648
22948WAT     H169086   7.360   5.432   6.638
22948WAT     H269087   7.350   5.269   6.641
22949WAT      O69088   8.266   4.310   8.773
22949WAT     H169089   8.312   4.375   8.834
22949WAT     H269090   8.169   4.303   8.800
22950WAT      O69091   5.951   1.889   5.499
22950WAT     H169092   5.990   1.980   5.487
22950WAT     H269093   5.947   1.867   5.597
22951WAT      O69094   7.503   5.371   2.960
22951WAT     H169095   7.507   5.355   3.059
22951WAT     H269096   7.596   5.375   2.923
22952WAT      O69097   7.378   7.819   9.670
22952WAT     H169098   7.305   7.885   9.650
22952WAT     H269099   7.435   7.854   9.744
22953WAT      O69100   7.707   5.495   0.715
22953WAT     H169101   7.799   5.510   0.750
22953WAT     H269102   7.706   5.415   0.655
22954WAT      O69103   7.556   1.394   7.653
22954WAT     H169104   7.550   1.438   7.564
22954WAT     H269105   7.505   1.307   7.652
22955WAT      O69106   7.397   5.206   0.987
22955WAT     H169107   7.388   5.157   1.074
22955WAT     H269108   7.386   5.141   0.912
22956WAT      O69109   7.834   7.332   8.921
22956WAT     H169110   7.919   7.321   8.869
22956WAT     H269111   7.799   7.425   8.910
22957WAT      O69112   4.083   8.894   2.373
22957WAT     H169113   4.033   8.981   2.380
22957WAT     H269114   4.176   8.912   2.340
22958WAT      O69115   3.650   2.040   0.062
22958WAT     H169116   3.632   1.984  -0.019
22958WAT     H269117   3.737   2.088   0.050
22959WAT      O69118   8.003   5.437   5.626
22959WAT     H169119   7.969   5.375   5.556
22959WAT     H269120   7.944   5.433   5.707
22960WAT      O69121   3.366   1.253   9.401
22960WAT     H169122   3.313   1.233   9.319
22960WAT     H269123   3.454   1.206   9.395
22961WAT      O69124   6.009   7.516   0.347
22961WAT     H169125   6.084   7.563   0.300
22961WAT     H269126   5.988   7.431   0.300
22962WAT      O69127   9.280   1.767   6.526
22962WAT     H169128   9.216   1.808   6.460
22962WAT     H269129   9.362   1.823   6.531
22963WAT      O69130   4.742   6.218   4.638
22963WAT     H169131   4.675   6.284   4.671
22963WAT     H269132   4.790   6.255   4.559
22964WAT      O69133   4.580   7.193   1.518
22964WAT     H169134   4.485   7.200   1.548
22964WAT     H269135   4.634   7.265   1.563
22965WAT      O69136   1.123   7.266   0.949
22965WAT     H169137   1.161   7.226   0.865
22965WAT     H269138   1.186   7.334   0.985
22966WAT      O69139   4.456   9.065   2.536
22966WAT     H169140   4.544   9.099   2.503
22966WAT     H269141   4.437   9.103   2.627
22967WAT      O69142   8.233   9.627   2.630
22967WAT     H169143   8.300   9.623   2.555
22967WAT     H269144   8.208   9.535   2.658
22968WAT      O69145   6.527   9.544   7.386
22968WAT     H169146   6.517   9.483   7.308
22968WAT     H269147   6.534   9.491   7.470
22969WAT      O69148   3.855   3.539   0.285
22969WAT     H169149   3.898   3.629   0.279
22969WAT     H269150   3.891   3.480   0.212
22970WAT      O69151   5.412   7.586   5.885
22970WAT     H169152   5.467   7.527   5.944
22970WAT     H269153   5.452   7.588   5.793
22971WAT      O69154   7.484   1.139   1.134
22971WAT     H169155   7.404   1.138   1.194
22971WAT     H269156   7.462   1.188   1.050
22972WAT      O69157   4.900   7.374   7.334
22972WAT     H169158   4.838   7.366   7.257
22972WAT     H269159   4.970   7.443   7.314
22973WAT      O69160   7.750   3.002   2.319
22973WAT     H169161   7.700   2.915   2.318
22973WAT     H269162   7.731   3.052   2.235
22974WAT      O69163   7.627   7.998   4.975
22974WAT     H169164   7.718   7.959   4.990
22974WAT     H269165   7.634   8.097   4.969
22975WAT      O69166   5.794   6.729   9.454
22975WAT     H169167   5.887   6.731   9.493
22975WAT     H269168   5.775   6.817   9.410
22976WAT      O69169   4.028   1.820   7.774
22976WAT     H169170   4.071   1.848   7.689
22976WAT     H269171   4.077   1.861   7.852
22977WAT      O69172   9.274   3.823   4.897
22977WAT     H169173   9.175   3.830   4.902
22977WAT     H269174   9.310   3.792   4.986
22978WAT      O69175   0.430   9.129   6.308
22978WAT     H169176   0.396   9.201   6.248
22978WAT     H269177   0.386   9.043   6.285
22979WAT      O69178   6.051   7.999   6.924
22979WAT     H169179   6.040   8.013   6.825
22979WAT     H269180   5.961   7.996   6.967
22980WAT      O69181   2.236   1.767   0.546
22980WAT     H169182   2.278   1.676   0.552
22980WAT     H269183   2.308   1.835   0.529
22981WAT      O69184   5.913   3.873   8.140
22981WAT     H169185   5.914   3.973   8.139
22981WAT     H269186   5.845   3.840   8.205
22982WAT      O69187   9.036   5.641   1.608
22982WAT     H169188   8.955   5.586   1.586
22982WAT     H269189   9.110   5.581   1.638
22983WAT      O69190   5.003   1.184   7.834
22983WAT     H169191   4.968   1.090   7.845
22983WAT     H269192   4.928   1.248   7.848
22984WAT      O69193   6.410   8.738   0.216
22984WAT     H169194   6.365   8.818   0.254
22984WAT     H269195   6.430   8.753   0.119
22985WAT      O69196   3.944   7.570   6.288
22985WAT     H169197   3.850   7.570   6.320
22985WAT     H269198   3.960   7.649   6.229
22986WAT      O69199   1.648   4.559   8.804
22986WAT     H169200   1.618   4.635   8.746
22986WAT     H269201   1.585   4.483   8.795
22987WAT      O69202   1.498   1.843   9.339
22987WAT     H169203   1.415   1.799   9.305
22987WAT     H269204   1.501   1.938   9.309
22988WAT      O69205   6.288   9.150   5.406
22988WAT     H169206   6.357   9.084   5.437
22988WAT     H269207   6.332   9.225   5.358
22989WAT      O69208   5.502   7.365   7.001
22989WAT     H169209   5.497   7.445   7.061
22989WAT     H269210   5.481   7.283   7.053
22990WAT      O69211   0.920   3.240   2.582
22990WAT     H169212   0.956   3.151   2.607
22990WAT     H269213   0.988   3.291   2.529
22991WAT      O69214   5.611   5.864   5.692
22991WAT     H169215   5.582   5.919   5.613
22991WAT     H269216   5.647   5.925   5.763
22992WAT      O69217   9.501   2.366   3.229
22992WAT     H169218   9.510   2.376   3.130
22992WAT     H269219   9.469   2.273   3.251
22993WAT      O69220   6.160   3.551   6.794
22993WAT     H169221   6.074   3.602   6.796
22993WAT     H269222   6.227   3.601   6.740
22994WAT      O69223   3.684   0.614   8.637
22994WAT     H169224   3.665   0.601   8.540
22994WAT     H269225   3.728   0.533   8.674
22995WAT      O69226   3.977   4.681   9.455
22995WAT     H169227   3.911   4.695   9.529
22995WAT     H269228   3.959   4.747   9.382
22996WAT      O69229   9.497   0.187   5.025
22996WAT     H169230   9.578   0.135   5.052
22996WAT     H269231   9.422   0.123   5.005
22997WAT      O69232   5.863   0.848   4.367
22997WAT     H169233   5.879   0.889   4.277
22997WAT     H269234   5.814   0.762   4.356
22998WAT      O69235   5.008   1.663   6.198
22998WAT     H169236   4.984   1.597   6.127
22998WAT     H269237   4.937   1.663   6.269
22999WAT      O69238   0.120   5.859   5.694
22999WAT     H169239   0.219   5.849   5.699
22999WAT     H269240   0.077   5.807   5.768
23000WAT      O69241   8.206   0.771   0.621
23000WAT     H169242   8.284   0.819   0.582
23000WAT     H269243   8.191   0.686   0.571
23001WAT      O69244   0.994   0.716   7.119
23001WAT     H169245   0.896   0.697   7.115
23001WAT     H269246   1.036   0.689   7.033
23002WAT      O69247   0.686   6.865   2.743
23002WAT     H169248   0.626   6.942   2.719
23002WAT     H269249   0.763   6.898   2.797
23003WAT      O69250   5.193   1.082   9.867
23003WAT     H169251   5.154   0.991   9.883
23003WAT     H269252   5.250   1.080   9.784
23004WAT      O69253   0.739   7.506   1.499
23004WAT     H169254   0.756   7.414   1.534
23004WAT     H269255   0.643   7.513   1.469
23005WAT      O69256   7.831   7.441   0.474
23005WAT     H169257   7.857   7.397   0.560
23005WAT     H269258   7.808   7.537   0.491
23006WAT      O69259   4.473   3.489   2.612
23006WAT     H169260   4.448   3.425   2.538
23006WAT     H269261   4.390   3.534   2.646
23007WAT      O69262   2.674   3.326   0.846
23007WAT     H169263   2.707   3.408   0.799
23007WAT     H269264   2.690   3.336   0.944
23008WAT      O69265   1.228   4.177   9.031
23008WAT     H169266   1.202   4.168   9.127
23008WAT     H269267   1.307   4.119   9.012
23009WAT      O69268   4.593   6.025   4.518
23009WAT     H169269   4.654   5.946   4.502
23009WAT     H269270   4.644   6.097   4.566
23010WAT      O69271   3.864   3.910   3.168
23010WAT     H169272   3.797   3.960   3.222
23010WAT     H269273   3.821   3.877   3.084
23011WAT      O69274   0.209   9.671   3.009
23011WAT     H169275   0.237   9.757   3.053
23011WAT     H269276   0.111   9.658   3.021
23012WAT      O69277   0.275   8.382   8.007
23012WAT     H169278   0.316   8.330   8.082
23012WAT     H269279   0.318   8.472   8.001
23013WAT      O69280   7.664   7.864   8.546
23013WAT     H169281   7.628   7.779   8.583
23013WAT     H269282   7.656   7.937   8.615
23014WAT      O69283   6.161   2.119   0.043
23014WAT     H169284   6.142   2.048  -0.025
23014WAT     H269285   6.077   2.170   0.062
23015WAT      O69286   6.765   0.965   0.643
23015WAT     H169287   6.743   0.907   0.564
23015WAT     H269288   6.720   0.929   0.725
23016WAT      O69289   0.380   0.210   3.895
23016WAT     H169290   0.474   0.182   3.913
23016WAT     H269291   0.378   0.264   3.810
23017WAT      O69292   6.287   7.317   3.075
23017WAT     H169293   6.351   7.241   3.066
23017WAT     H269294   6.251   7.342   2.985
23018WAT      O69295   6.908   7.640   3.073
23018WAT     H169296   6.940   7.546   3.062
23018WAT     H269297   6.917   7.688   2.986
23019WAT      O69298   1.917   1.102   1.542
23019WAT     H169299   1.870   1.054   1.615
23019WAT     H269300   1.940   1.195   1.572
23020WAT      O69301   4.447   6.452   9.681
23020WAT     H169302   4.529   6.493   9.640
23020WAT     H269303   4.474   6.379   9.744
23021WAT      O69304   3.797   8.434   5.629
23021WAT     H169305   3.847   8.450   5.544
23021WAT     H269306   3.838   8.487   5.703
23022WAT      O69307   3.312   7.608   7.841
23022WAT     H169308   3.302   7.593   7.939
23022WAT     H269309   3.400   7.650   7.821
23023WAT      O69310   9.516   4.881   4.096
23023WAT     H169311   9.553   4.920   4.012
23023WAT     H269312   9.582   4.817   4.135
23024WAT      O69313   7.325   7.846   1.719
23024WAT     H169314   7.389   7.803   1.656
23024WAT     H269315   7.262   7.777   1.755
23025WAT      O69316   1.378   8.427   2.662
23025WAT     H169317   1.309   8.438   2.734
23025WAT     H269318   1.393   8.514   2.617
23026WAT      O69319   8.007   8.638   6.999
23026WAT     H169320   7.979   8.654   6.904
23026WAT     H269321   7.940   8.577   7.043
23027WAT      O69322   0.164   7.657   6.165
23027WAT     H169323   0.161   7.684   6.069
23027WAT     H269324   0.217   7.724   6.217
23028WAT      O69325   8.344   4.709   4.317
23028WAT     H169326   8.318   4.618   4.350
23028WAT     H269327   8.407   4.752   4.381
23029WAT      O69328   7.384   4.647   7.955
23029WAT     H169329   7.466   4.672   8.008
23029WAT     H269330   7.361   4.552   7.972
23030WAT      O69331   6.292   8.681   0.957
23030WAT     H169332   6.271   8.667   1.054
23030WAT     H269333   6.215   8.726   0.913
23031WAT      O69334   2.463   6.686   1.846
23031WAT     H169335   2.425   6.614   1.903
23031WAT     H269336   2.499   6.646   1.761
23032WAT      O69337   2.565   5.602   3.912
23032WAT     H169338   2.556   5.580   4.009
23032WAT     H269339   2.588   5.519   3.861
23033WAT      O69340   3.460   6.394   8.671
23033WAT     H169341   3.520   6.325   8.711
23033WAT     H269342   3.375   6.399   8.723
23034WAT      O69343   4.466   1.037   1.756
23034WAT     H169344   4.508   1.059   1.669
23034WAT     H269345   4.507   0.953   1.793
23035WAT      O69346   4.635   2.878   2.441
23035WAT     H169347   4.671   2.875   2.534
23035WAT     H269348   4.676   2.805   2.387
23036WAT      O69349   2.262   8.661   9.002
23036WAT     H169350   2.350   8.643   9.045
23036WAT     H269351   2.192   8.602   9.041
23037WAT      O69352   0.072   3.845   1.694
23037WAT     H169353   0.150   3.830   1.755
23037WAT     H269354  -0.006   3.878   1.748
23038WAT      O69355   7.897   1.485   0.279
23038WAT     H169356   7.917   1.388   0.270
23038WAT     H269357   7.979   1.533   0.310
23039WAT      O69358   1.410   7.746   3.594
23039WAT     H169359   1.452   7.659   3.618
23039WAT     H269360   1.464   7.791   3.523
23040WAT      O69361   8.580   0.293   2.412
23040WAT     H169362   8.579   0.215   2.350
23040WAT     H269363   8.542   0.265   2.501
23041WAT      O69364   6.221   6.377   1.869
23041WAT     H169365   6.282   6.393   1.791
23041WAT     H269366   6.233   6.451   1.936
23042WAT      O69367   5.592   1.399   7.822
23042WAT     H169368   5.643   1.364   7.743
23042WAT     H269369   5.505   1.437   7.791
23043WAT      O69370   7.763   9.568   5.550
23043WAT     H169371   7.781   9.581   5.453
23043WAT     H269372   7.809   9.485   5.582
23044WAT      O69373   8.580   5.731   6.447
23044WAT     H169374   8.531   5.653   6.485
23044WAT     H269375   8.523   5.776   6.378
23045WAT      O69376   5.155   3.223   0.803
23045WAT     H169377   5.174   3.187   0.894
23045WAT     H269378   5.057   3.242   0.794
23046WAT      O69379   7.406   6.521   9.058
23046WAT     H169380   7.444   6.599   9.007
23046WAT     H269381   7.477   6.483   9.117
23047WAT      O69382   8.741   1.021   8.830
23047WAT     H169383   8.832   1.052   8.857
23047WAT     H269384   8.687   1.100   8.799
23048WAT      O69385   9.620   8.929   7.947
23048WAT     H169386   9.556   8.895   8.016
23048WAT     H269387   9.677   9.001   7.988
23049WAT      O69388   0.963   5.365   7.637
23049WAT     H169389   1.040   5.321   7.682
23049WAT     H269390   0.888   5.377   7.703
23050WAT      O69391   9.560   4.445   8.463
23050WAT     H169392   9.521   4.502   8.535
23050WAT     H269393   9.488   4.388   8.423
23051WAT      O69394   8.870   1.728   5.637
23051WAT     H169395   8.815   1.683   5.707
23051WAT     H269396   8.823   1.811   5.605
23052WAT      O69397   4.779   1.141   8.713
23052WAT     H169398   4.711   1.155   8.785
23052WAT     H269399   4.847   1.215   8.718
23053WAT      O69400   6.789   3.036   1.252
23053WAT     H169401   6.807   3.018   1.348
23053WAT     H269402   6.866   3.086   1.212
23054WAT      O69403   9.725   8.818   6.256
23054WAT     H169404   9.654   8.871   6.209
23054WAT     H269405   9.744   8.735   6.205
23055WAT      O69406   1.754   0.288   0.142
23055WAT     H169407   1.692   0.210   0.143
23055WAT     H269408   1.776   0.311   0.047
23056WAT      O69409   4.290   0.317   4.638
23056WAT     H169410   4.299   0.285   4.543
23056WAT     H269411   4.290   0.417   4.639
23057WAT      O69412   6.914   1.953   1.354
23057WAT     H169413   6.944   1.878   1.296
23057WAT     H269414   6.855   1.919   1.426
23058WAT      O69415   3.725   6.838   1.107
23058WAT     H169416   3.702   6.810   1.014
23058WAT     H269417   3.661   6.908   1.137
23059WAT      O69418   3.413   7.489   5.422
23059WAT     H169419   3.485   7.491   5.492
23059WAT     H269420   3.437   7.422   5.352
23060WAT      O69421   9.782   3.014   5.748
23060WAT     H169422   9.767   3.099   5.697
23060WAT     H269423   9.784   3.034   5.846
23061WAT      O69424   6.943   4.017   1.141
23061WAT     H169425   7.022   4.028   1.081
23061WAT     H269426   6.953   3.933   1.194
23062WAT      O69427   3.958   1.192   4.607
23062WAT     H169428   3.921   1.136   4.681
23062WAT     H269429   4.039   1.148   4.569
23063WAT      O69430   4.048   2.840   2.606
23063WAT     H169431   4.066   2.756   2.554
23063WAT     H269432   4.057   2.820   2.704
23064WAT      O69433   7.180   6.434   0.497
23064WAT     H169434   7.270   6.462   0.529
23064WAT     H269435   7.145   6.501   0.432
23065WAT      O69436   1.651   2.736   9.315
23065WAT     H169437   1.600   2.668   9.369
23065WAT     H269438   1.623   2.731   9.220
23066WAT      O69439   6.196   7.305   1.636
23066WAT     H169440   6.295   7.313   1.644
23066WAT     H269441   6.160   7.386   1.589
23067WAT      O69442   1.118   5.222   9.244
23067WAT     H169443   1.125   5.210   9.343
23067WAT     H269444   1.102   5.318   9.223
23068WAT      O69445   4.436   4.206   1.576
23068WAT     H169446   4.444   4.114   1.536
23068WAT     H269447   4.503   4.217   1.649
23069WAT      O69448   6.015   0.501   9.324
23069WAT     H169449   6.008   0.566   9.249
23069WAT     H269450   5.979   0.542   9.408
23070WAT      O69451   6.970   1.754   0.247
23070WAT     H169452   6.928   1.832   0.292
23070WAT     H269453   7.048   1.785   0.192
23071WAT      O69454   3.392   5.743   3.042
23071WAT     H169455   3.416   5.752   3.139
23071WAT     H269456   3.468   5.701   2.993
23072WAT      O69457   8.741   7.548   4.353
23072WAT     H169458   8.766   7.623   4.292
23072WAT     H269459   8.753   7.576   4.448
23073WAT      O69460   8.209   7.166   8.181
23073WAT     H169461   8.114   7.153   8.154
23073WAT     H269462   8.212   7.200   8.276
23074WAT      O69463   8.355   1.692   7.222
23074WAT     H169464   8.353   1.681   7.321
23074WAT     H269465   8.261   1.695   7.187
23075WAT      O69466   4.053   3.834   2.060
23075WAT     H169467   4.064   3.919   2.111
23075WAT     H269468   4.137   3.779   2.069
23076WAT      O69469   0.813   0.081   4.527
23076WAT     H169470   0.899   0.073   4.478
23076WAT     H269471   0.825   0.049   4.621
23077WAT      O69472   1.823   2.391   2.942
23077WAT     H169473   1.896   2.344   2.893
23077WAT     H269474   1.744   2.330   2.952
23078WAT      O69475   1.928   4.521   0.044
23078WAT     H169476   1.974   4.525   0.133
23078WAT     H269477   1.919   4.426   0.016
23079WAT      O69478   6.773   5.499   0.939
23079WAT     H169479   6.760   5.583   0.991
23079WAT     H269480   6.863   5.460   0.961
23080WAT      O69481   8.157   7.975   9.199
23080WAT     H169482   8.168   7.877   9.211
23080WAT     H269483   8.218   8.024   9.261
23081WAT      O69484   4.223   3.619   7.724
23081WAT     H169485   4.143   3.659   7.769
23081WAT     H269486   4.301   3.680   7.735
23082WAT      O69487   8.118   9.569   5.154
23082WAT     H169488   8.102   9.637   5.225
23082WAT     H269489   8.137   9.615   5.067
23083WAT      O69490   2.390   1.997   6.420
23083WAT     H169491   2.480   2.032   6.444
23083WAT     H269492   2.323   2.072   6.424
23084WAT      O69493   9.442   4.250   3.314
23084WAT     H169494   9.440   4.218   3.219
23084WAT     H269495   9.397   4.338   3.321
23085WAT      O69496   5.391   6.232   4.959
23085WAT     H169497   5.419   6.136   4.950
23085WAT     H269498   5.380   6.272   4.868
23086WAT      O69499   6.172   9.839   8.962
23086WAT     H169500   6.196   9.747   8.992
23086WAT     H269501   6.129   9.888   9.038
23087WAT      O69502   3.023   3.292   9.514
23087WAT     H169503   3.112   3.260   9.481
23087WAT     H269504   2.992   3.233   9.588
23088WAT      O69505   4.355   9.181   0.985
23088WAT     H169506   4.410   9.143   0.910
23088WAT     H269507   4.405   9.171   1.071
23089WAT      O69508   3.801   8.580   8.868
23089WAT     H169509   3.785   8.669   8.910
23089WAT     H269510   3.893   8.577   8.830
23090WAT      O69511   6.186   5.425   7.250
23090WAT     H169512   6.194   5.361   7.173
23090WAT     H269513   6.175   5.374   7.335
23091WAT      O69514   0.621   8.517   0.261
23091WAT     H169515   0.651   8.541   0.354
23091WAT     H269516   0.624   8.599   0.203
23092WAT      O69517   6.342   4.133   2.311
23092WAT     H169518   6.350   4.154   2.408
23092WAT     H269519   6.406   4.060   2.287
23093WAT      O69520   8.495   6.308   2.282
23093WAT     H169521   8.550   6.244   2.336
23093WAT     H269522   8.424   6.348   2.339
23094WAT      O69523   0.829   4.227   5.412
23094WAT     H169524   0.797   4.139   5.444
23094WAT     H269525   0.824   4.294   5.486
23095WAT      O69526   9.885   6.385   0.725
23095WAT     H169527   9.861   6.479   0.749
23095WAT     H269528   9.811   6.346   0.669
23096WAT      O69529   7.693   3.465   6.410
23096WAT     H169530   7.644   3.549   6.433
23096WAT     H269531   7.654   3.389   6.463
23097WAT      O69532   4.726   9.481   6.110
23097WAT     H169533   4.702   9.576   6.092
23097WAT     H269534   4.656   9.421   6.072
23098WAT      O69535   5.289   2.998   6.059
23098WAT     H169536   5.353   3.075   6.062
23098WAT     H269537   5.226   3.011   5.982
23099WAT      O69538   1.695   6.846   0.112
23099WAT     H169539   1.711   6.790   0.030
23099WAT     H269540   1.597   6.851   0.130
23100WAT      O69541   2.224   7.096   0.427
23100WAT     H169542   2.160   7.021   0.444
23100WAT     H269543   2.175   7.183   0.427
23101WAT      O69544   6.862   1.890   6.511
23101WAT     H169545   6.909   1.955   6.450
23101WAT     H269546   6.889   1.797   6.488
23102WAT      O69547   0.390   6.721   3.417
23102WAT     H169548   0.343   6.768   3.492
23102WAT     H269549   0.489   6.733   3.427
23103WAT      O69550   3.247   4.210   5.332
23103WAT     H169551   3.152   4.182   5.318
23103WAT     H269552   3.285   4.245   5.246
23104WAT      O69553   9.488   8.946   3.311
23104WAT     H169554   9.505   8.907   3.401
23104WAT     H269555   9.562   9.009   3.287
23105WAT      O69556   5.623   3.939   0.833
23105WAT     H169557   5.544   3.888   0.800
23105WAT     H269558   5.595   4.001   0.906
23106WAT      O69559   9.069   8.491   8.928
23106WAT     H169560   9.124   8.574   8.934
23106WAT     H269561   9.086   8.446   8.841
23107WAT      O69562   3.475   2.437   7.062
23107WAT     H169563   3.494   2.510   6.997
23107WAT     H269564   3.527   2.355   7.037
23108WAT      O69565   6.147   8.680   2.579
23108WAT     H169566   6.160   8.760   2.521
23108WAT     H269567   6.152   8.597   2.524
23109WAT      O69568   2.901   5.977   1.298
23109WAT     H169569   2.942   5.885   1.291
23109WAT     H269570   2.952   6.040   1.240
23110WAT      O69571   1.372   2.829   6.824
23110WAT     H169572   1.280   2.806   6.856
23110WAT     H269573   1.435   2.834   6.901
23111WAT      O69574   1.401   7.184   1.346
23111WAT     H169575   1.309   7.149   1.363
23111WAT     H269576   1.467   7.109   1.352
23112WAT      O69577   8.471   6.104   8.447
23112WAT     H169578   8.460   6.165   8.526
23112WAT     H269579   8.554   6.050   8.458
23113WAT      O69580   1.571   3.516   6.650
23113WAT     H169581   1.481   3.526   6.691
23113WAT     H269582   1.618   3.438   6.692
23114WAT      O69583   2.259   5.363   7.744
23114WAT     H169584   2.220   5.292   7.686
23114WAT     H269585   2.358   5.348   7.753
23115WAT      O69586   1.343   3.176   3.735
23115WAT     H169587   1.378   3.116   3.663
23115WAT     H269588   1.395   3.161   3.819
23116WAT      O69589   9.604   8.816   2.711
23116WAT     H169590   9.518   8.773   2.682
23116WAT     H269591   9.592   8.857   2.801
23117WAT      O69592   7.368   3.586   3.409
23117WAT     H169593   7.311   3.515   3.450
23117WAT     H269594   7.421   3.547   3.334
23118WAT      O69595   8.704   4.044   3.465
23118WAT     H169596   8.771   3.974   3.440
23118WAT     H269597   8.633   4.049   3.395
23119WAT      O69598   7.610   1.053   9.893
23119WAT     H169599   7.547   1.032   9.818
23119WAT     H269600   7.672   1.126   9.864
23120WAT      O69601   0.054   9.197   2.271
23120WAT     H169602   0.152   9.210   2.286
23120WAT     H269603   0.024   9.114   2.320
23121WAT      O69604   8.031   9.814   0.852
23121WAT     H169605   7.983   9.901   0.868
23121WAT     H269606   7.992   9.768   0.773
23122WAT      O69607   6.328   4.588   6.063
23122WAT     H169608   6.251   4.562   6.122
23122WAT     H269609   6.360   4.679   6.089
23123WAT      O69610   9.125   6.370   1.178
23123WAT     H169611   9.211   6.332   1.213
23123WAT     H269612   9.135   6.469   1.164
23124WAT      O69613   0.949   7.875   6.379
23124WAT     H169614   0.977   7.918   6.465
23124WAT     H269615   0.999   7.916   6.303
23125WAT      O69616   3.084   2.836   8.107
23125WAT     H169617   3.052   2.747   8.141
23125WAT     H269618   3.079   2.836   8.007
23126WAT      O69619   7.612   4.325   3.137
23126WAT     H169620   7.573   4.414   3.110
23126WAT     H269621   7.541   4.255   3.132
23127WAT      O69622   8.023   0.294   8.782
23127WAT     H169623   8.084   0.283   8.860
23127WAT     H269624   8.057   0.368   8.723
23128WAT      O69625   3.061   4.361   8.130
23128WAT     H169626   3.138   4.297   8.126
23128WAT     H269627   2.980   4.317   8.090
23129WAT      O69628   9.415   5.929   5.571
23129WAT     H169629   9.333   5.931   5.629
23129WAT     H269630   9.483   5.868   5.611
23130WAT      O69631   7.952   6.366   4.292
23130WAT     H169632   8.022   6.300   4.319
23130WAT     H269633   7.961   6.386   4.194
23131WAT      O69634   2.310   9.215   4.071
23131WAT     H169635   2.296   9.187   4.166
23131WAT     H269636   2.264   9.151   4.010
23132WAT      O69637   5.106   8.785   2.236
23132WAT     H169638   5.182   8.719   2.234
23132WAT     H269639   5.136   8.868   2.282
23133WAT      O69640   3.799   6.394   0.696
23133WAT     H169641   3.746   6.316   0.662
23133WAT     H269642   3.738   6.470   0.716
23134WAT      O69643   2.673   4.643   0.426
23134WAT     H169644   2.717   4.664   0.339
23134WAT     H269645   2.658   4.728   0.478
23135WAT      O69646   5.098   6.098   3.002
23135WAT     H169647   5.096   6.177   3.063
23135WAT     H269648   5.009   6.053   3.002
23136WAT      O69649   0.060   3.796   5.077
23136WAT     H169650   0.037   3.740   5.156
23136WAT     H269651   0.011   3.763   4.997
23137WAT      O69652   7.948   7.055   7.105
23137WAT     H169653   7.973   7.150   7.092
23137WAT     H269654   8.008   7.013   7.174
23138WAT      O69655   7.173   5.570   2.415
23138WAT     H169656   7.209   5.477   2.422
23138WAT     H269657   7.145   5.602   2.506
23139WAT      O69658   4.301   8.903   6.924
23139WAT     H169659   4.265   8.843   6.852
23139WAT     H269660   4.367   8.967   6.884
23140WAT      O69661   4.980   0.419   3.668
23140WAT     H169662   4.905   0.462   3.718
23140WAT     H269663   5.055   0.485   3.657
23141WAT      O69664   8.800   0.603   4.596
23141WAT     H169665   8.843   0.672   4.654
23141WAT     H269666   8.729   0.556   4.648
23142WAT      O69667   2.268   4.043   1.111
23142WAT     H169668   2.353   3.992   1.122
23142WAT     H269669   2.209   3.997   1.045
23143WAT      O69670   6.094   7.789   8.891
23143WAT     H169671   6.187   7.825   8.884
23143WAT     H269672   6.063   7.758   8.801
23144WAT      O69673   7.366   1.914   1.101
23144WAT     H169674   7.344   2.012   1.099
23144WAT     H269675   7.459   1.903   1.137
23145WAT      O69676   6.297   0.158   7.988
23145WAT     H169677   6.226   0.153   7.918
23145WAT     H269678   6.325   0.066   8.014
23146WAT      O69679   6.339   9.198   2.659
23146WAT     H169680   6.264   9.188   2.725
23146WAT     H269681   6.382   9.287   2.670
23147WAT      O69682   4.928   1.016   7.495
23147WAT     H169683   4.977   0.992   7.579
23147WAT     H269684   4.910   1.114   7.493
23148WAT      O69685   6.396   0.081   5.819
23148WAT     H169686   6.307   0.087   5.774
23148WAT     H269687   6.428  -0.014   5.817
23149WAT      O69688   1.852   8.833   8.934
23149WAT     H169689   1.842   8.927   8.968
23149WAT     H269690   1.816   8.827   8.841
23150WAT      O69691   3.835   2.526   6.903
23150WAT     H169692   3.889   2.608   6.887
23150WAT     H269693   3.738   2.547   6.897
23151WAT      O69694   0.031   9.182   9.485
23151WAT     H169695  -0.049   9.164   9.428
23151WAT     H269696   0.106   9.214   9.428
23152WAT      O69697   0.355   9.726   1.777
23152WAT     H169698   0.375   9.765   1.867
23152WAT     H269699   0.355   9.626   1.782
23153WAT      O69700   8.225   7.935   8.006
23153WAT     H169701   8.132   7.952   8.039
23153WAT     H269702   8.225   7.936   7.906
23154WAT      O69703   8.033   0.512   6.224
23154WAT     H169704   8.030   0.423   6.180
23154WAT     H269705   7.954   0.522   6.284
23155WAT      O69706   6.574   6.522   0.319
23155WAT     H169707   6.505   6.542   0.249
23155WAT     H269708   6.528   6.503   0.406
23156WAT      O69709   5.554   4.568   8.564
23156WAT     H169710   5.575   4.575   8.466
23156WAT     H269711   5.591   4.483   8.600
23157WAT      O69712   4.345   8.169   1.313
23157WAT     H169713   4.311   8.110   1.240
23157WAT     H269714   4.443   8.152   1.327
23158WAT      O69715   4.502   1.783   6.501
23158WAT     H169716   4.568   1.857   6.507
23158WAT     H269717   4.412   1.815   6.532
23159WAT      O69718   6.077   2.249   4.402
23159WAT     H169719   6.161   2.273   4.352
23159WAT     H269720   6.100   2.187   4.477
23160WAT      O69721   2.121   9.317   2.228
23160WAT     H169722   2.079   9.331   2.318
23160WAT     H269723   2.210   9.273   2.240
23161WAT      O69724   8.561   9.224   7.975
23161WAT     H169725   8.595   9.311   7.938
23161WAT     H269726   8.486   9.243   8.039
23162WAT      O69727   6.775   0.461   8.805
23162WAT     H169728   6.727   0.523   8.867
23162WAT     H269729   6.734   0.369   8.811
23163WAT      O69730   9.100   2.292   6.640
23163WAT     H169731   9.179   2.353   6.631
23163WAT     H269732   9.074   2.285   6.736
23164WAT      O69733   6.007   0.975   4.608
23164WAT     H169734   5.956   0.935   4.532
23164WAT     H269735   5.997   0.918   4.689
23165WAT      O69736   0.324   7.885   1.697
23165WAT     H169737   0.379   7.801   1.697
23165WAT     H269738   0.375   7.959   1.741
23166WAT      O69739   4.980   8.643   4.621
23166WAT     H169740   4.925   8.609   4.697
23166WAT     H269741   5.077   8.644   4.648
23167WAT      O69742   7.709   4.365   1.099
23167WAT     H169743   7.623   4.416   1.105
23167WAT     H269744   7.779   4.411   1.154
23168WAT      O69745   0.240   5.442   2.818
23168WAT     H169746   0.213   5.532   2.854
23168WAT     H269747   0.244   5.376   2.893
23169WAT      O69748   7.802   8.483   4.232
23169WAT     H169749   7.825   8.580   4.232
23169WAT     H269750   7.870   8.433   4.286
23170WAT      O69751   9.520   7.573   9.294
23170WAT     H169752   9.523   7.565   9.394
23170WAT     H269753   9.432   7.539   9.260
23171WAT      O69754   4.988   7.768   2.340
23171WAT     H169755   4.900   7.753   2.297
23171WAT     H269756   4.999   7.865   2.362
23172WAT      O69757   0.574   7.635   5.682
23172WAT     H169758   0.622   7.558   5.640
23172WAT     H269759   0.477   7.612   5.692
23173WAT      O69760   7.615   2.525   3.052
23173WAT     H169761   7.557   2.484   3.122
23173WAT     H269762   7.561   2.545   2.970
23174WAT      O69763   7.084   8.067   8.637
23174WAT     H169764   7.125   7.984   8.600
23174WAT     H269765   7.151   8.142   8.631
23175WAT      O69766   6.419   9.138   9.169
23175WAT     H169767   6.370   9.225   9.173
23175WAT     H269768   6.517   9.156   9.171
23176WAT      O69769   1.288   6.311   2.801
23176WAT     H169770   1.387   6.293   2.802
23176WAT     H269771   1.255   6.318   2.896
23177WAT      O69772   1.846   1.189   4.248
23177WAT     H169773   1.794   1.224   4.327
23177WAT     H269774   1.782   1.157   4.178
23178WAT      O69775   2.964   4.992   1.855
23178WAT     H169776   2.959   4.928   1.779
23178WAT     H269777   2.923   4.951   1.937
23179WAT      O69778   3.729   6.088   3.061
23179WAT     H169779   3.643   6.134   3.038
23179WAT     H269780   3.723   5.991   3.035
23180WAT      O69781   6.153   6.487   3.945
23180WAT     H169782   6.073   6.484   4.005
23180WAT     H269783   6.235   6.504   4.001
23181WAT      O69784   7.077   3.043   4.277
23181WAT     H169785   7.175   3.026   4.286
23181WAT     H269786   7.040   3.072   4.365
23182WAT      O69787   3.318   5.432   3.158
23182WAT     H169788   3.254   5.367   3.198
23182WAT     H269789   3.396   5.443   3.220
23183WAT      O69790   0.282   0.946   5.711
23183WAT     H169791   0.354   0.974   5.648
23183WAT     H269792   0.260   1.023   5.772
23184WAT      O69793   4.634   3.270   3.236
23184WAT     H169794   4.593   3.185   3.271
23184WAT     H269795   4.689   3.311   3.308
23185WAT      O69796   3.747   0.874   7.865
23185WAT     H169797   3.690   0.827   7.797
23185WAT     H269798   3.722   0.971   7.868
23186WAT      O69799   3.132   5.649   2.472
23186WAT     H169800   3.225   5.662   2.504
23186WAT     H269801   3.108   5.551   2.476
23187WAT      O69802   0.976   0.778   5.303
23187WAT     H169803   0.941   0.853   5.248
23187WAT     H269804   1.011   0.813   5.390
23188WAT      O69805   4.484   9.088   4.838
23188WAT     H169806   4.550   9.161   4.855
23188WAT     H269807   4.458   9.045   4.925
23189WAT      O69808   2.391   3.371   2.186
23189WAT     H169809   2.481   3.412   2.202
23189WAT     H269810   2.377   3.295   2.249
23190WAT      O69811   3.561   3.717   6.606
23190WAT     H169812   3.606   3.801   6.576
23190WAT     H269813   3.475   3.740   6.652
23191WAT      O69814   8.777   4.503   4.829
23191WAT     H169815   8.771   4.601   4.846
23191WAT     H269816   8.853   4.465   4.882
23192WAT      O69817   7.172   1.314   5.967
23192WAT     H169818   7.149   1.217   5.965
23192WAT     H269819   7.252   1.330   5.909
23193WAT      O69820   3.017   3.223   9.135
23193WAT     H169821   3.090   3.277   9.093
23193WAT     H269822   2.941   3.283   9.161
23194WAT      O69823   9.591   4.214   5.392
23194WAT     H169824   9.675   4.267   5.381
23194WAT     H269825   9.613   4.123   5.425
23195WAT      O69826   8.544   0.955   6.046
23195WAT     H169827   8.477   0.913   5.985
23195WAT     H269828   8.609   1.008   5.991
23196WAT      O69829   2.435   6.302   2.898
23196WAT     H169830   2.371   6.264   2.831
23196WAT     H269831   2.500   6.362   2.851
23197WAT      O69832   6.328   6.755   8.474
23197WAT     H169833   6.396   6.827   8.460
23197WAT     H269834   6.371   6.666   8.458
23198WAT      O69835   6.157   4.201   1.548
23198WAT     H169836   6.238   4.151   1.516
23198WAT     H269837   6.075   4.159   1.508
23199WAT      O69838   4.937   8.078   8.541
23199WAT     H169839   4.903   8.156   8.488
23199WAT     H269840   4.974   8.009   8.480
23200WAT      O69841   6.859   0.344   3.450
23200WAT     H169842   6.871   0.247   3.474
23200WAT     H269843   6.764   0.359   3.421
23201WAT      O69844   4.382   3.534   1.908
23201WAT     H169845   4.464   3.591   1.899
23201WAT     H269846   4.386   3.482   1.993
23202WAT      O69847   6.381   2.114   0.756
23202WAT     H169848   6.375   2.027   0.805
23202WAT     H269849   6.329   2.183   0.806
23203WAT      O69850   7.398   2.907   4.570
23203WAT     H169851   7.334   2.834   4.549
23203WAT     H269852   7.473   2.907   4.503
23204WAT      O69853   5.256   5.545   2.754
23204WAT     H169854   5.181   5.609   2.739
23204WAT     H269855   5.304   5.569   2.838
23205WAT      O69856   1.095   1.493   8.597
23205WAT     H169857   1.017   1.528   8.546
23205WAT     H269858   1.075   1.400   8.630
23206WAT      O69859   8.797   7.810   1.169
23206WAT     H169860   8.886   7.820   1.213
23206WAT     H269861   8.807   7.822   1.070
23207WAT      O69862   3.124   8.769   3.449
23207WAT     H169863   3.061   8.719   3.509
23207WAT     H269864   3.173   8.838   3.502
23208WAT      O69865   3.984   3.925   3.737
23208WAT     H169866   3.931   3.844   3.712
23208WAT     H269867   4.074   3.896   3.771
23209WAT      O69868   7.117   5.386   2.732
23209WAT     H169869   7.117   5.369   2.831
23209WAT     H269870   7.185   5.326   2.689
23210WAT      O69871   4.322   2.546   8.894
23210WAT     H169872   4.246   2.495   8.853
23210WAT     H269873   4.400   2.485   8.909
23211WAT      O69874   8.453   8.530   8.054
23211WAT     H169875   8.524   8.510   8.121
23211WAT     H269876   8.479   8.493   7.965
23212WAT      O69877   4.195   5.264   6.263
23212WAT     H169878   4.270   5.237   6.323
23212WAT     H269879   4.230   5.326   6.192
23213WAT      O69880   9.061   6.884   8.358
23213WAT     H169881   9.032   6.834   8.277
23213WAT     H269882   9.046   6.828   8.440
23214WAT      O69883   4.053   3.431   8.970
23214WAT     H169884   3.980   3.365   8.984
23214WAT     H269885   4.094   3.455   9.058
23215WAT      O69886   9.096   7.904   8.885
23215WAT     H169887   8.999   7.876   8.884
23215WAT     H269888   9.145   7.854   8.813
23216WAT      O69889   4.017   6.844   8.054
23216WAT     H169890   3.942   6.788   8.020
23216WAT     H269891   4.004   6.861   8.152
23217WAT      O69892   8.339   7.648   8.690
23217WAT     H169893   8.365   7.552   8.680
23217WAT     H269894   8.274   7.656   8.766
23218WAT      O69895   8.056   3.823   4.102
23218WAT     H169896   8.001   3.882   4.161
23218WAT     H269897   8.049   3.854   4.007
23219WAT      O69898   3.164   9.447   6.181
23219WAT     H169899   3.202   9.440   6.273
23219WAT     H269900   3.116   9.534   6.171
23220WAT      O69901   7.140   6.136   9.843
23220WAT     H169902   7.052   6.110   9.804
23220WAT     H269903   7.127   6.171   9.936
23221WAT      O69904   7.314   3.704   4.283
23221WAT     H169905   7.215   3.701   4.283
23221WAT     H269906   7.348   3.687   4.376
23222WAT      O69907   4.278   0.057   9.193
23222WAT     H169908   4.253   0.149   9.163
23222WAT     H269909   4.257   0.048   9.291
23223WAT      O69910   5.035   1.987   6.401
23223WAT     H169911   4.992   2.036   6.325
23223WAT     H269912   4.988   1.900   6.414
23224WAT      O69913   4.066   8.557   9.266
23224WAT     H169914   4.024   8.629   9.211
23224WAT     H269915   4.135   8.598   9.327
23225WAT      O69916   6.078   9.364   4.610
23225WAT     H169917   6.047   9.374   4.516
23225WAT     H269918   6.023   9.423   4.670
23226WAT      O69919   7.363   7.743   0.805
23226WAT     H169920   7.449   7.790   0.786
23226WAT     H269921   7.381   7.653   0.843
23227WAT      O69922   5.374   8.892   4.516
23227WAT     H169923   5.336   8.907   4.424
23227WAT     H269924   5.470   8.867   4.508
23228WAT      O69925   7.360   9.666   8.274
23228WAT     H169926   7.410   9.672   8.187
23228WAT     H269927   7.310   9.751   8.289
23229WAT      O69928   4.945   9.301   6.869
23229WAT     H169929   4.845   9.303   6.869
23229WAT     H269930   4.980   9.393   6.854
23230WAT      O69931   8.673   4.308   0.308
23230WAT     H169932   8.724   4.279   0.227
23230WAT     H269933   8.575   4.308   0.288
23231WAT      O69934   3.064   6.654   5.672
23231WAT     H169935   2.973   6.697   5.674
23231WAT     H269936   3.058   6.566   5.625
23232WAT      O69937   7.146   3.983   2.693
23232WAT     H169938   7.123   4.031   2.778
23232WAT     H269939   7.079   3.911   2.676
23233WAT      O69940   9.615   0.973   1.289
23233WAT     H169941   9.679   0.995   1.215
23233WAT     H269942   9.564   0.890   1.266
23234WAT      O69943   7.759   1.276   9.400
23234WAT     H169944   7.810   1.276   9.313
23234WAT     H269945   7.783   1.357   9.453
23235WAT      O69946   9.664   4.517   5.178
23235WAT     H169947   9.592   4.577   5.215
23235WAT     H269948   9.622   4.443   5.126
23236WAT      O69949   8.489   8.432   4.503
23236WAT     H169950   8.446   8.348   4.535
23236WAT     H269951   8.524   8.418   4.410
23237WAT      O69952   9.555   5.264   3.295
23237WAT     H169953   9.645   5.257   3.337
23237WAT     H269954   9.516   5.354   3.314
23238WAT      O69955   9.137   5.846   7.193
23238WAT     H169956   9.067   5.908   7.229
23238WAT     H269957   9.150   5.770   7.257
23239WAT      O69958   4.989   7.018   1.349
23239WAT     H169959   4.973   6.955   1.425
23239WAT     H269960   4.998   6.967   1.264
23240WAT      O69961   2.198   1.575   7.183
23240WAT     H169962   2.267   1.579   7.255
23240WAT     H269963   2.113   1.538   7.219
23241WAT      O69964   6.153   4.737   7.043
23241WAT     H169965   6.217   4.813   7.057
23241WAT     H269966   6.186   4.656   7.091
23242WAT      O69967   3.626   6.319   4.351
23242WAT     H169968   3.627   6.370   4.437
23242WAT     H269969   3.537   6.277   4.337
23243WAT      O69970   8.155   2.352   9.610
23243WAT     H169971   8.234   2.297   9.636
23243WAT     H269972   8.185   2.430   9.556
23244WAT      O69973   5.384   5.948   4.041
23244WAT     H169974   5.400   6.044   4.018
23244WAT     H269975   5.444   5.890   3.986
23245WAT      O69976   4.139   1.926   7.984
23245WAT     H169977   4.186   1.892   8.066
23245WAT     H269978   4.057   1.976   8.012
23246WAT      O69979   6.195   6.829   5.098
23246WAT     H169980   6.131   6.901   5.072
23246WAT     H269981   6.270   6.826   5.031
23247WAT      O69982   0.886   7.437   9.706
23247WAT     H169983   0.857   7.381   9.784
23247WAT     H269984   0.874   7.534   9.727
23248WAT      O69985   0.558   2.222   6.085
23248WAT     H169986   0.535   2.284   6.161
23248WAT     H269987   0.586   2.133   6.122
23249WAT      O69988   1.947   6.032   8.373
23249WAT     H169989   2.024   6.094   8.390
23249WAT     H269990   1.865   6.085   8.352
23250WAT      O69991   3.319   1.269   3.319
23250WAT     H169992   3.409   1.264   3.278
23250WAT     H269993   3.274   1.354   3.290
23251WAT      O69994   8.440   1.449   3.619
23251WAT     H169995   8.455   1.462   3.521
23251WAT     H269996   8.391   1.363   3.635
23252WAT      O69997   3.484   1.863   7.655
23252WAT     H169998   3.438   1.786   7.697
23252WAT     H269999   3.469   1.861   7.556
23253WAT      O70000   9.667   8.013   4.102
23253WAT     H170001   9.744   8.074   4.120
23253WAT     H270002   9.597   8.026   4.172
23254WAT      O70003   1.259   3.465   6.033
23254WAT     H170004   1.317   3.417   5.967
23254WAT     H270005   1.213   3.397   6.091
23255WAT      O70006   2.977   2.836   7.831
23255WAT     H170007   2.940   2.743   7.838
23255WAT     H270008   2.904   2.902   7.848
23256WAT      O70009   1.502   3.207   9.602
23256WAT     H170010   1.547   3.295   9.590
23256WAT     H270011   1.423   3.217   9.662
23257WAT      O70012   4.274   5.226   3.023
23257WAT     H170013   4.313   5.135   3.014
23257WAT     H270014   4.184   5.220   3.067
23258WAT      O70015   3.586   2.175   7.017
23258WAT     H170016   3.676   2.201   7.051
23258WAT     H270017   3.539   2.121   7.087
23259WAT      O70018   2.562   2.120   3.066
23259WAT     H170019   2.572   2.184   2.990
23259WAT     H270020   2.491   2.153   3.128
23260WAT      O70021   8.751   0.810   6.117
23260WAT     H170022   8.681   0.864   6.070
23260WAT     H270023   8.813   0.769   6.049
23261WAT      O70024   2.679   8.834   1.220
23261WAT     H170025   2.620   8.854   1.142
23261WAT     H270026   2.667   8.739   1.248
23262WAT      O70027   4.099   2.132   2.536
23262WAT     H170028   4.100   2.090   2.627
23262WAT     H270029   4.182   2.186   2.524
23263WAT      O70030   9.527   4.203   0.718
23263WAT     H170031   9.617   4.221   0.676
23263WAT     H270032   9.537   4.200   0.817
23264WAT      O70033   2.493   1.419   6.437
23264WAT     H170034   2.545   1.336   6.459
23264WAT     H270035   2.396   1.401   6.448
23265WAT      O70036   0.506   0.953   2.751
23265WAT     H170037   0.528   0.957   2.849
23265WAT     H270038   0.436   1.022   2.730
23266WAT      O70039   5.484   3.113   3.427
23266WAT     H170040   5.466   3.204   3.462
23266WAT     H270041   5.488   3.048   3.503
23267WAT      O70042   4.710   5.587   8.092
23267WAT     H170043   4.774   5.662   8.075
23267WAT     H270044   4.756   5.512   8.138
23268WAT      O70045   2.640   6.564   6.789
23268WAT     H170046   2.694   6.482   6.768
23268WAT     H270047   2.549   6.536   6.820
23269WAT      O70048   1.171   3.405   8.893
23269WAT     H170049   1.170   3.394   8.793
23269WAT     H270050   1.186   3.316   8.936
23270WAT      O70051   8.269   4.587   2.123
23270WAT     H170052   8.197   4.619   2.185
23270WAT     H270053   8.336   4.659   2.109
23271WAT      O70054   9.623   8.163   3.694
23271WAT     H170055   9.615   8.067   3.720
23271WAT     H270056   9.645   8.218   3.775
23272WAT      O70057   9.495   8.942   5.261
23272WAT     H170058   9.492   9.035   5.296
23272WAT     H270059   9.499   8.877   5.337
23273WAT      O70060   7.954   6.473   6.777
23273WAT     H170061   7.862   6.499   6.808
23273WAT     H270062   8.017   6.477   6.854
23274WAT      O70063   8.076   7.705   6.929
23274WAT     H170064   8.071   7.718   6.830
23274WAT     H270065   8.072   7.608   6.951
23275WAT      O70066   9.104   4.720   6.960
23275WAT     H170067   9.162   4.794   6.994
23275WAT     H270068   9.046   4.754   6.886
23276WAT      O70069   3.430   0.770   7.447
23276WAT     H170070   3.461   0.733   7.359
23276WAT     H270071   3.455   0.867   7.452
23277WAT      O70072   4.619   5.788   7.502
23277WAT     H170073   4.629   5.864   7.439
23277WAT     H270074   4.541   5.731   7.475
23278WAT      O70075   0.141   7.339   1.768
23278WAT     H170076   0.162   7.249   1.806
23278WAT     H270077   0.169   7.410   1.833
23279WAT      O70078   2.350   8.840   8.304
23279WAT     H170079   2.289   8.917   8.284
23279WAT     H270080   2.356   8.781   8.224
23280WAT      O70081   3.868   7.047   2.489
23280WAT     H170082   3.839   7.128   2.439
23280WAT     H270083   3.788   7.000   2.526
23281WAT      O70084   7.951   3.560   5.012
23281WAT     H170085   7.952   3.470   5.055
23281WAT     H270086   7.856   3.586   4.990
23282WAT      O70087   3.549   8.056   4.125
23282WAT     H170088   3.545   7.962   4.160
23282WAT     H270089   3.464   8.104   4.147
23283WAT      O70090   4.561   3.409   2.158
23283WAT     H170091   4.469   3.371   2.157
23283WAT     H270092   4.564   3.486   2.222
23284WAT      O70093   6.525   6.991   4.345
23284WAT     H170094   6.462   7.013   4.270
23284WAT     H270095   6.613   7.038   4.329
23285WAT      O70096   9.551   3.922   6.000
23285WAT     H170097   9.576   4.018   6.016
23285WAT     H270098   9.601   3.888   5.921
23286WAT      O70099   7.118   1.115   2.226
23286WAT     H170100   7.127   1.214   2.237
23286WAT     H270101   7.073   1.095   2.139
23287WAT      O70102   0.374   4.957   4.853
23287WAT     H170103   0.325   4.987   4.935
23287WAT     H270104   0.471   4.947   4.875
23288WAT      O70105   1.858   2.790   1.482
23288WAT     H170106   1.950   2.817   1.507
23288WAT     H270107   1.792   2.856   1.518
23289WAT      O70108   7.807   1.175   2.840
23289WAT     H170109   7.848   1.167   2.749
23289WAT     H270110   7.767   1.266   2.850
23290WAT      O70111   1.947   6.562   0.171
23290WAT     H170112   2.000   6.491   0.125
23290WAT     H270113   1.956   6.648   0.122
23291WAT      O70114   1.781   0.353   7.655
23291WAT     H170115   1.803   0.429   7.594
23291WAT     H270116   1.822   0.269   7.621
23292WAT      O70117   8.904   3.617   5.413
23292WAT     H170118   8.820   3.656   5.450
23292WAT     H270119   8.913   3.641   5.316
23293WAT      O70120   5.147   4.266   5.849
23293WAT     H170121   5.224   4.224   5.802
23293WAT     H270122   5.179   4.344   5.903
23294WAT      O70123   2.976   8.084   7.803
23294WAT     H170124   2.965   8.042   7.713
23294WAT     H270125   3.070   8.073   7.834
23295WAT      O70126   8.494   6.368   1.002
23295WAT     H170127   8.432   6.296   0.970
23295WAT     H270128   8.442   6.452   1.017
23296WAT      O70129   7.512   6.696   1.364
23296WAT     H170130   7.529   6.643   1.281
23296WAT     H270131   7.437   6.760   1.347
23297WAT      O70132   7.861   4.873   6.296
23297WAT     H170133   7.902   4.883   6.205
23297WAT     H270134   7.906   4.934   6.360
23298WAT      O70135   3.440   8.060   5.946
23298WAT     H170136   3.363   8.058   6.009
23298WAT     H270137   3.484   8.150   5.951
23299WAT      O70138   9.523   2.758   4.539
23299WAT     H170139   9.593   2.761   4.610
23299WAT     H270140   9.457   2.831   4.553
23300WAT      O70141   2.453   2.208   9.828
23300WAT     H170142   2.423   2.275   9.760
23300WAT     H270143   2.387   2.133   9.832
23301WAT      O70144   1.478   1.957   8.587
23301WAT     H170145   1.552   1.960   8.520
23301WAT     H270146   1.394   1.928   8.543
23302WAT      O70147   6.113   4.670   1.696
23302WAT     H170148   6.171   4.706   1.769
23302WAT     H270149   6.027   4.721   1.693
23303WAT      O70150   8.790   0.622   8.616
23303WAT     H170151   8.787   0.570   8.701
23303WAT     H270152   8.761   0.716   8.634
23304WAT      O70153   0.525   6.783   6.886
23304WAT     H170154   0.504   6.853   6.955
23304WAT     H270155   0.608   6.808   6.837
23305WAT      O70156   1.422   7.822   0.241
23305WAT     H170157   1.417   7.908   0.292
23305WAT     H270158   1.385   7.748   0.297
23306WAT      O70159   8.099   1.261   0.411
23306WAT     H170160   8.001   1.239   0.408
23306WAT     H270161   8.110   1.358   0.429
23307WAT      O70162   2.812   2.765   6.458
23307WAT     H170163   2.816   2.711   6.541
23307WAT     H270164   2.768   2.713   6.385
23308WAT      O70165   8.056   9.215   9.792
23308WAT     H170166   8.028   9.310   9.779
23308WAT     H270167   8.059   9.169   9.703
23309WAT      O70168   4.233   0.167   5.161
23309WAT     H170169   4.312   0.209   5.206
23309WAT     H270170   4.264   0.092   5.103
23310WAT      O70171   2.310   8.806   2.841
23310WAT     H170172   2.306   8.806   2.941
23310WAT     H270173   2.224   8.842   2.804
23311WAT      O70174   9.036   7.294   4.227
23311WAT     H170175   8.975   7.358   4.179
23311WAT     H270176   9.064   7.335   4.314
23312WAT      O70177   8.074   9.156   5.332
23312WAT     H170178   8.019   9.226   5.376
23312WAT     H270179   8.092   9.182   5.238
23313WAT      O70180   4.931   4.094   1.933
23313WAT     H170181   4.928   4.080   1.835
23313WAT     H270182   4.998   4.165   1.955
23314WAT      O70183   7.208   8.463   7.359
23314WAT     H170184   7.300   8.426   7.368
23314WAT     H270185   7.170   8.481   7.450
23315WAT      O70186   3.542   5.762   0.295
23315WAT     H170187   3.571   5.694   0.227
23315WAT     H270188   3.450   5.740   0.327
23316WAT      O70189   7.653   7.943   2.584
23316WAT     H170190   7.707   7.861   2.603
23316WAT     H270191   7.662   8.007   2.660
23317WAT      O70192   7.952   7.083   6.404
23317WAT     H170193   7.941   7.173   6.446
23317WAT     H270194   7.901   7.015   6.458
23318WAT      O70195   7.181   0.214   1.157
23318WAT     H170196   7.281   0.204   1.156
23318WAT     H270197   7.144   0.174   1.241
23319WAT      O70198   0.477   7.925   3.385
23319WAT     H170199   0.403   7.989   3.367
23319WAT     H270200   0.451   7.833   3.354
23320WAT      O70201   9.296   2.666   1.514
23320WAT     H170202   9.362   2.733   1.547
23320WAT     H270203   9.242   2.706   1.439
23321WAT      O70204   8.763   2.850   4.807
23321WAT     H170205   8.858   2.820   4.818
23321WAT     H270206   8.713   2.784   4.751
23322WAT      O70207   1.406   4.503   4.979
23322WAT     H170208   1.331   4.562   5.010
23322WAT     H270209   1.369   4.426   4.927
23323WAT      O70210   1.309   8.198   2.533
23323WAT     H170211   1.240   8.221   2.464
23323WAT     H270212   1.346   8.282   2.572
23324WAT      O70213   9.120   1.618   5.039
23324WAT     H170214   9.126   1.653   4.945
23324WAT     H270215   9.151   1.688   5.103
23325WAT      O70216   0.051   4.645   8.538
23325WAT     H170217  -0.005   4.724   8.510
23325WAT     H270218   0.020   4.563   8.490
23326WAT      O70219   9.133   6.893   7.619
23326WAT     H170220   9.115   6.954   7.542
23326WAT     H270221   9.197   6.822   7.591
23327WAT      O70222   6.119   5.178   4.431
23327WAT     H170223   6.024   5.148   4.440
23327WAT     H270224   6.121   5.276   4.412
23328WAT      O70225   5.088   2.532   0.035
23328WAT     H170226   5.097   2.440  -0.003
23328WAT     H270227   5.055   2.526   0.129
23329WAT      O70228   0.728   8.616   9.812
23329WAT     H170229   0.756   8.711   9.819
23329WAT     H270230   0.632   8.610   9.785
23330WAT      O70231   4.250   3.595   2.729
23330WAT     H170232   4.286   3.514   2.777
23330WAT     H270233   4.159   3.575   2.694
23331WAT      O70234   4.365   6.309   0.546
23331WAT     H170235   4.394   6.390   0.494
23331WAT     H270236   4.377   6.228   0.489
23332WAT      O70237   0.568   3.937   6.750
23332WAT     H170238   0.492   3.982   6.796
23332WAT     H270239   0.654   3.961   6.795
23333WAT      O70240   1.029   2.991   8.743
23333WAT     H170241   1.067   2.983   8.651
23333WAT     H270242   1.037   2.904   8.790
23334WAT      O70243   0.780   3.479   7.169
23334WAT     H170244   0.810   3.490   7.264
23334WAT     H270245   0.683   3.500   7.162
23335WAT      O70246   9.653   2.944   3.125
23335WAT     H170247   9.649   2.885   3.205
23335WAT     H270248   9.742   2.934   3.081
23336WAT      O70249   5.471   8.307   3.105
23336WAT     H170250   5.418   8.383   3.142
23336WAT     H270251   5.533   8.272   3.175
23337WAT      O70252   3.096   9.322   1.225
23337WAT     H170253   3.161   9.299   1.298
23337WAT     H270254   3.118   9.268   1.144
23338WAT      O70255   6.243   7.328   4.121
23338WAT     H170256   6.204   7.312   4.211
23338WAT     H270257   6.188   7.281   4.052
23339WAT      O70258   9.740   5.991   4.092
23339WAT     H170259   9.696   5.926   4.030
23339WAT     H270260   9.711   5.973   4.186
23340WAT      O70261   3.788   5.631   2.122
23340WAT     H170262   3.818   5.635   2.027
23340WAT     H270263   3.850   5.685   2.179
23341WAT      O70264   1.212   0.810   9.124
23341WAT     H170265   1.302   0.789   9.163
23341WAT     H270266   1.176   0.729   9.077
23342WAT      O70267   3.292   6.281   2.316
23342WAT     H170268   3.298   6.354   2.248
23342WAT     H270269   3.207   6.291   2.369
23343WAT      O70270   4.162   5.470   7.201
23343WAT     H170271   4.129   5.434   7.289
23343WAT     H270272   4.085   5.479   7.138
23344WAT      O70273   1.660   7.665   3.084
23344WAT     H170274   1.587   7.686   3.020
23344WAT     H270275   1.651   7.723   3.166
23345WAT      O70276   8.115   0.330   3.614
23345WAT     H170277   8.089   0.326   3.517
23345WAT     H270278   8.185   0.260   3.632
23346WAT      O70279   1.545   2.079   5.943
23346WAT     H170280   1.510   2.135   5.869
23346WAT     H270281   1.571   1.989   5.908
23347WAT      O70282   8.890   1.795   9.736
23347WAT     H170283   8.824   1.861   9.774
23347WAT     H270284   8.875   1.787   9.637
23348WAT      O70285   7.877   5.832   0.592
23348WAT     H170286   7.926   5.779   0.524
23348WAT     H270287   7.916   5.923   0.599
23349WAT      O70288   0.541   3.304   0.665
23349WAT     H170289   0.468   3.359   0.625
23349WAT     H270290   0.590   3.357   0.733
23350WAT      O70291   0.622   5.027   7.219
23350WAT     H170292   0.697   5.076   7.176
23350WAT     H270293   0.568   5.089   7.276
23351WAT      O70294   3.499   3.018   8.165
23351WAT     H170295   3.558   2.940   8.188
23351WAT     H270296   3.447   2.998   8.083
23352WAT      O70297   6.569   0.087   4.562
23352WAT     H170298   6.584   0.141   4.645
23352WAT     H270299   6.653   0.037   4.540
23353WAT      O70300   5.437   2.252   6.167
23353WAT     H170301   5.522   2.304   6.167
23353WAT     H270302   5.433   2.195   6.085
23354WAT      O70303   6.658   4.523   6.781
23354WAT     H170304   6.738   4.502   6.725
23354WAT     H270305   6.586   4.455   6.764
23355WAT      O70306   8.334   7.064   9.272
23355WAT     H170307   8.290   7.030   9.355
23355WAT     H270308   8.330   7.164   9.270
23356WAT      O70309   8.747   7.625   7.576
23356WAT     H170310   8.717   7.720   7.584
23356WAT     H270311   8.706   7.570   7.649
23357WAT      O70312   2.274   9.685   0.463
23357WAT     H170313   2.218   9.746   0.407
23357WAT     H270314   2.229   9.595   0.471
23358WAT      O70315   0.487   2.476   9.853
23358WAT     H170316   0.535   2.398   9.814
23358WAT     H270317   0.424   2.514   9.785
23359WAT      O70318   2.007   1.361   1.600
23359WAT     H170319   2.007   1.448   1.552
23359WAT     H270320   2.100   1.325   1.605
23360WAT      O70321   0.492   4.576   0.367
23360WAT     H170322   0.498   4.479   0.390
23360WAT     H270323   0.397   4.600   0.347
23361WAT      O70324   8.996   8.140   1.955
23361WAT     H170325   8.925   8.207   1.932
23361WAT     H270326   8.958   8.072   2.018
23362WAT      O70327   1.868   1.366   6.159
23362WAT     H170328   1.851   1.290   6.221
23362WAT     H270329   1.877   1.451   6.211
23363WAT      O70330   3.688   2.794   0.144
23363WAT     H170331   3.735   2.867   0.193
23363WAT     H270332   3.710   2.706   0.187
23364WAT      O70333   0.030   3.978   2.933
23364WAT     H170334  -0.019   4.063   2.914
23364WAT     H270335  -0.033   3.901   2.927
23365WAT      O70336   8.831   6.602   7.118
23365WAT     H170337   8.890   6.523   7.103
23365WAT     H270338   8.885   6.677   7.157
23366WAT      O70339   1.649   4.097   7.364
23366WAT     H170340   1.741   4.129   7.389
23366WAT     H270341   1.602   4.168   7.312
23367WAT      O70342   9.082   7.388   2.770
23367WAT     H170343   9.108   7.462   2.709
23367WAT     H270344   9.164   7.347   2.811
23368WAT      O70345   7.445   6.917   5.695
23368WAT     H170346   7.356   6.945   5.659
23368WAT     H270347   7.434   6.881   5.787
23369WAT      O70348   5.248   5.335   3.797
23369WAT     H170349   5.325   5.335   3.861
23369WAT     H270350   5.165   5.364   3.844
23370WAT      O70351   1.713   5.441   0.197
23370WAT     H170352   1.633   5.417   0.251
23370WAT     H270353   1.793   5.389   0.229
23371WAT      O70354   1.322   3.404   7.591
23371WAT     H170355   1.239   3.410   7.646
23371WAT     H270356   1.313   3.465   7.511
23372WAT      O70357   5.698   7.660   2.510
23372WAT     H170358   5.797   7.661   2.523
23372WAT     H270359   5.676   7.630   2.417
23373WAT      O70360   6.776   0.576   0.744
23373WAT     H170361   6.725   0.596   0.828
23373WAT     H270362   6.847   0.646   0.731
23374WAT      O70363   1.332   0.693   3.030
23374WAT     H170364   1.350   0.656   3.121
23374WAT     H270365   1.322   0.619   2.964
23375WAT      O70366   3.366   4.336   0.898
23375WAT     H170367   3.432   4.361   0.828
23375WAT     H270368   3.293   4.405   0.901
23376WAT      O70369   1.077   9.348   0.094
23376WAT     H170370   1.134   9.402   0.157
23376WAT     H270371   1.081   9.252   0.119
23377WAT      O70372   3.415   8.476   5.262
23377WAT     H170373   3.433   8.484   5.164
23377WAT     H270374   3.417   8.567   5.303
23378WAT      O70375   4.043   5.528   9.042
23378WAT     H170376   4.052   5.604   8.977
23378WAT     H270377   4.134   5.498   9.070
23379WAT      O70378   1.103   7.246   6.689
23379WAT     H170379   1.052   7.307   6.628
23379WAT     H270380   1.076   7.151   6.672
23380WAT      O70381   5.144   0.319   4.122
23380WAT     H170382   5.082   0.393   4.097
23380WAT     H270383   5.219   0.355   4.178
23381WAT      O70384   4.336   4.124   6.225
23381WAT     H170385   4.271   4.190   6.187
23381WAT     H270386   4.421   4.127   6.171
23382WAT      O70387   3.564   2.112   2.310
23382WAT     H170388   3.603   2.103   2.218
23382WAT     H270389   3.465   2.119   2.303
23383WAT      O70390   5.750   3.424   7.567
23383WAT     H170391   5.830   3.455   7.618
23383WAT     H270392   5.680   3.495   7.569
23384WAT      O70393   1.723   0.170   4.851
23384WAT     H170394   1.810   0.215   4.831
23384WAT     H270395   1.735   0.109   4.929
23385WAT      O70396   0.855   9.091   9.260
23385WAT     H170397   0.902   9.053   9.339
23385WAT     H270398   0.834   9.018   9.195
23386WAT      O70399   7.913   6.074   7.326
23386WAT     H170400   7.894   6.172   7.337
23386WAT     H270401   8.011   6.058   7.336
23387WAT      O70402   1.090   2.000   0.322
23387WAT     H170403   1.008   2.035   0.275
23387WAT     H270404   1.069   1.911   0.362
23388WAT      O70405   8.446   8.508   1.482
23388WAT     H170406   8.474   8.521   1.387
23388WAT     H270407   8.525   8.483   1.538
23389WAT      O70408   7.751   7.052   9.583
23389WAT     H170409   7.702   7.119   9.640
23389WAT     H270410   7.849   7.060   9.599
23390WAT      O70411   5.612   3.087   2.464
23390WAT     H170412   5.655   3.029   2.395
23390WAT     H270413   5.683   3.125   2.524
23391WAT      O70414   1.954   3.653   9.812
23391WAT     H170415   1.886   3.580   9.824
23391WAT     H270416   1.916   3.724   9.752
23392WAT      O70417   2.671   2.128   0.553
23392WAT     H170418   2.593   2.068   0.572
23392WAT     H270419   2.646   2.222   0.577
23393WAT      O70420   5.700   3.415   2.777
23393WAT     H170421   5.617   3.416   2.832
23393WAT     H270422   5.751   3.499   2.792
23394WAT      O70423   0.061   7.551   1.284
23394WAT     H170424   0.153   7.568   1.248
23394WAT     H270425   0.069   7.505   1.373
23395WAT      O70426   3.339   8.426   3.495
23395WAT     H170427   3.428   8.379   3.491
23395WAT     H270428   3.347   8.516   3.452
23396WAT      O70429   8.838   5.080   7.105
23396WAT     H170430   8.778   5.011   7.064
23396WAT     H270431   8.930   5.042   7.115
23397WAT      O70432   8.899   7.993   4.936
23397WAT     H170433   8.959   8.072   4.933
23397WAT     H270434   8.879   7.969   5.031
23398WAT      O70435   3.086   6.319   9.016
23398WAT     H170436   3.035   6.390   9.064
23398WAT     H270437   3.027   6.240   8.999
23399WAT      O70438   1.288   5.794   7.689
23399WAT     H170439   1.212   5.765   7.748
23399WAT     H270440   1.277   5.891   7.667
23400WAT      O70441   7.250   5.249   3.641
23400WAT     H170442   7.190   5.308   3.587
23400WAT     H270443   7.334   5.299   3.662
23401WAT      O70444   2.717   1.505   5.838
23401WAT     H170445   2.813   1.491   5.814
23401WAT     H270446   2.672   1.416   5.845
23402WAT      O70447   9.216   0.370   4.424
23402WAT     H170448   9.138   0.395   4.480
23402WAT     H270449   9.264   0.292   4.466
23403WAT      O70450   2.009   8.300   6.041
23403WAT     H170451   2.032   8.351   5.958
23403WAT     H270452   2.093   8.269   6.086
23404WAT      O70453   5.719   0.809   2.220
23404WAT     H170454   5.755   0.765   2.302
23404WAT     H270455   5.771   0.779   2.140
23405WAT      O70456   8.715   8.513   9.209
23405WAT     H170457   8.733   8.536   9.113
23405WAT     H270458   8.640   8.568   9.243
23406WAT      O70459   1.170   6.158   2.021
23406WAT     H170460   1.194   6.146   1.925
23406WAT     H270461   1.090   6.217   2.029
23407WAT      O70462   5.308   4.893   9.618
23407WAT     H170463   5.365   4.843   9.552
23407WAT     H270464   5.366   4.953   9.673
23408WAT      O70465   5.726   7.217   1.252
23408WAT     H170466   5.816   7.192   1.217
23408WAT     H270467   5.663   7.232   1.176
23409WAT      O70468   1.468   3.175   1.953
23409WAT     H170469   1.412   3.174   1.870
23409WAT     H270470   1.462   3.266   1.995
23410WAT      O70471   0.518   7.207   3.130
23410WAT     H170472   0.421   7.209   3.105
23410WAT     H270473   0.573   7.213   3.047
23411WAT      O70474   1.300   2.303   8.661
23411WAT     H170475   1.260   2.217   8.695
23411WAT     H270476   1.262   2.323   8.571
23412WAT      O70477   7.196   4.403   1.155
23412WAT     H170478   7.195   4.502   1.157
23412WAT     H270479   7.103   4.368   1.148
23413WAT      O70480   2.251   0.453   0.426
23413WAT     H170481   2.163   0.424   0.463
23413WAT     H270482   2.322   0.387   0.452
23414WAT      O70483   1.011   0.158   3.283
23414WAT     H170484   1.015   0.138   3.380
23414WAT     H270485   1.030   0.074   3.231
23415WAT      O70486   1.740   5.670   8.650
23415WAT     H170487   1.785   5.609   8.716
23415WAT     H270488   1.691   5.616   8.582
23416WAT      O70489   1.166   9.596   5.083
23416WAT     H170490   1.132   9.507   5.052
23416WAT     H270491   1.130   9.615   5.174
23417WAT      O70492   6.991   3.488   1.442
23417WAT     H170493   7.041   3.489   1.529
23417WAT     H270494   6.911   3.547   1.449
23418WAT      O70495   0.852   7.234   0.016
23418WAT     H170496   0.859   7.160  -0.051
23418WAT     H270497   0.925   7.226   0.084
23419WAT      O70498   0.291   9.006   4.094
23419WAT     H170499   0.366   8.963   4.044
23419WAT     H270500   0.298   9.105   4.087
23420WAT      O70501   1.308   3.619   7.384
23420WAT     H170502   1.254   3.569   7.316
23420WAT     H270503   1.396   3.645   7.345
23421WAT      O70504   0.184   5.289   8.367
23421WAT     H170505   0.265   5.308   8.312
23421WAT     H270506   0.212   5.272   8.462
23422WAT      O70507   8.722   1.316   9.635
23422WAT     H170508   8.779   1.378   9.582
23422WAT     H270509   8.779   1.265   9.700
23423WAT      O70510   4.482   5.760   9.097
23423WAT     H170511   4.430   5.676   9.081
23423WAT     H270512   4.424   5.839   9.080
23424WAT      O70513   8.339   9.551   3.787
23424WAT     H170514   8.388   9.632   3.817
23424WAT     H270515   8.347   9.479   3.856
23425WAT      O70516   0.254   5.509   4.201
23425WAT     H170517   0.270   5.445   4.125
23425WAT     H270518   0.340   5.552   4.227
23426WAT      O70519   5.531   7.935   5.029
23426WAT     H170520   5.500   8.026   5.056
23426WAT     H270521   5.541   7.878   5.111
23427WAT      O70522   6.469   9.808   4.090
23427WAT     H170523   6.545   9.789   4.151
23427WAT     H270524   6.485   9.895   4.042
23428WAT      O70525   7.510   8.384   9.064
23428WAT     H170526   7.461   8.448   9.123
23428WAT     H270527   7.558   8.434   8.992
23429WAT      O70528   3.450   0.573   1.785
23429WAT     H170529   3.403   0.580   1.873
23429WAT     H270530   3.548   0.589   1.798
23430WAT      O70531   4.078   4.770   3.340
23430WAT     H170532   4.036   4.714   3.269
23430WAT     H270533   4.031   4.754   3.427
23431WAT      O70534   3.536   0.528   1.135
23431WAT     H170535   3.577   0.599   1.077
23431WAT     H270536   3.436   0.538   1.133
23432WAT      O70537   2.400   1.040   1.826
23432WAT     H170538   2.335   0.975   1.787
23432WAT     H270539   2.490   1.027   1.785
23433WAT      O70540   2.743   7.874   0.897
23433WAT     H170541   2.689   7.947   0.855
23433WAT     H270542   2.693   7.838   0.976
23434WAT      O70543   7.533   1.028   6.928
23434WAT     H170544   7.438   0.996   6.929
23434WAT     H270545   7.577   1.002   7.014
23435WAT      O70546   5.525   0.693   6.377
23435WAT     H170547   5.501   0.732   6.466
23435WAT     H270548   5.526   0.593   6.385
23436WAT      O70549   9.116   9.236   1.270
23436WAT     H170550   9.063   9.152   1.257
23436WAT     H270551   9.207   9.212   1.306
23437WAT      O70552   7.895   5.142   2.338
23437WAT     H170553   7.910   5.202   2.260
23437WAT     H270554   7.927   5.188   2.422
23438WAT      O70555   8.392   3.745   2.201
23438WAT     H170556   8.302   3.719   2.167
23438WAT     H270557   8.385   3.773   2.297
23439WAT      O70558   3.664   0.356   0.036
23439WAT     H170559   3.622   0.267   0.016
23439WAT     H270560   3.759   0.354   0.006
23440WAT      O70561   1.854   0.576   1.740
23440WAT     H170562   1.914   0.638   1.689
23440WAT     H270563   1.846   0.608   1.835
23441WAT      O70564   7.519   2.294   2.191
23441WAT     H170565   7.507   2.293   2.092
23441WAT     H270566   7.459   2.364   2.231
23442WAT      O70567   7.993   4.304   9.873
23442WAT     H170568   8.027   4.398   9.878
23442WAT     H270569   7.905   4.303   9.826
23443WAT      O70570   5.895   6.140   4.429
23443WAT     H170571   5.973   6.192   4.465
23443WAT     H270572   5.928   6.061   4.377
23444WAT      O70573   7.685   5.393   1.510
23444WAT     H170574   7.679   5.406   1.411
23444WAT     H270575   7.741   5.466   1.550
23445WAT      O70576   3.360   2.150   9.671
23445WAT     H170577   3.345   2.185   9.764
23445WAT     H270578   3.420   2.214   9.622
23446WAT      O70579   4.162   7.119   8.116
23446WAT     H170580   4.164   7.176   8.033
23446WAT     H270581   4.126   7.029   8.094
23447WAT      O70582   1.838   4.334   5.487
23447WAT     H170583   1.853   4.386   5.403
23447WAT     H270584   1.865   4.390   5.566
23448WAT      O70585   1.190   8.513   6.855
23448WAT     H170586   1.251   8.591   6.864
23448WAT     H270587   1.209   8.465   6.769
23449WAT      O70588   6.058   3.762   5.044
23449WAT     H170589   6.011   3.705   5.112
23449WAT     H270590   6.013   3.851   5.039
23450WAT      O70591   0.326   3.036   8.464
23450WAT     H170592   0.408   2.990   8.431
23450WAT     H270593   0.299   3.107   8.399
23451WAT      O70594   5.089   2.929   8.439
23451WAT     H170595   5.100   2.896   8.345
23451WAT     H270596   5.178   2.951   8.477
23452WAT      O70597   2.193   6.722   6.486
23452WAT     H170598   2.187   6.792   6.557
23452WAT     H270599   2.131   6.646   6.509
23453WAT      O70600   7.835   1.197   0.471
23453WAT     H170601   7.866   1.106   0.497
23453WAT     H270602   7.826   1.254   0.553
23454WAT      O70603   8.090   5.422   8.603
23454WAT     H170604   8.050   5.443   8.692
23454WAT     H270605   8.187   5.443   8.604
23455WAT      O70606   6.839   2.428   4.241
23455WAT     H170607   6.803   2.386   4.325
23455WAT     H270608   6.881   2.516   4.263
23456WAT      O70609   2.437   1.359   6.775
23456WAT     H170610   2.362   1.401   6.825
23456WAT     H270611   2.524   1.384   6.818
23457WAT      O70612   0.558   6.148   5.174
23457WAT     H170613   0.593   6.135   5.081
23457WAT     H270614   0.633   6.179   5.233
23458WAT      O70615   5.950   1.865   7.948
23458WAT     H170616   5.939   1.964   7.952
23458WAT     H270617   6.039   1.840   7.986
23459WAT      O70618   1.246   3.265   6.628
23459WAT     H170619   1.304   3.298   6.554
23459WAT     H270620   1.268   3.169   6.648
23460WAT      O70621   7.961   0.139   8.434
23460WAT     H170622   8.002   0.182   8.354
23460WAT     H270623   7.975   0.198   8.514
23461WAT      O70624   8.519   8.457   0.022
23461WAT     H170625   8.464   8.516  -0.037
23461WAT     H270626   8.602   8.429  -0.026
23462WAT      O70627   7.359   0.375   3.162
23462WAT     H170628   7.356   0.276   3.144
23462WAT     H270629   7.448   0.411   3.133
23463WAT      O70630   2.121   6.812   0.776
23463WAT     H170631   2.166   6.897   0.805
23463WAT     H270632   2.164   6.734   0.823
23464WAT      O70633   2.711   8.633   0.316
23464WAT     H170634   2.614   8.660   0.316
23464WAT     H270635   2.727   8.568   0.242
23465WAT      O70636   6.246   8.796   1.521
23465WAT     H170637   6.199   8.722   1.569
23465WAT     H270638   6.248   8.877   1.579
23466WAT      O70639   7.984   9.615   7.044
23466WAT     H170640   7.940   9.540   6.995
23466WAT     H270641   7.954   9.702   7.006
23467WAT      O70642   8.280   0.920   8.636
23467WAT     H170643   8.318   0.906   8.727
23467WAT     H270644   8.185   0.889   8.635
23468WAT      O70645   7.666   3.944   3.425
23468WAT     H170646   7.620   4.033   3.427
23468WAT     H270647   7.752   3.949   3.477
23469WAT      O70648   0.244   6.673   4.770
23469WAT     H170649   0.257   6.700   4.675
23469WAT     H270650   0.191   6.589   4.774
23470WAT      O70651   3.939   3.273   2.151
23470WAT     H170652   3.922   3.181   2.117
23470WAT     H270653   4.013   3.270   2.219
23471WAT      O70654   6.367   1.612   9.656
23471WAT     H170655   6.376   1.513   9.641
23471WAT     H270656   6.278   1.642   9.624
23472WAT      O70657   7.785   5.014   0.751
23472WAT     H170658   7.766   5.037   0.846
23472WAT     H270659   7.883   4.997   0.739
23473WAT      O70660   8.222   2.273   4.922
23473WAT     H170661   8.263   2.309   4.838
23473WAT     H270662   8.271   2.309   5.001
23474WAT      O70663   6.690   1.458   8.852
23474WAT     H170664   6.688   1.373   8.799
23474WAT     H270665   6.623   1.452   8.926
23475WAT      O70666   6.185   2.117   8.626
23475WAT     H170667   6.150   2.090   8.715
23475WAT     H270668   6.282   2.095   8.620
23476WAT      O70669   1.824   4.150   8.603
23476WAT     H170670   1.893   4.212   8.565
23476WAT     H270671   1.853   4.055   8.588
23477WAT      O70672   1.519   9.408   9.383
23477WAT     H170673   1.443   9.436   9.324
23477WAT     H270674   1.601   9.459   9.359
23478WAT      O70675   7.127   0.841   2.582
23478WAT     H170676   7.055   0.896   2.541
23478WAT     H270677   7.216   0.872   2.550
23479WAT      O70678   6.580   6.709   9.856
23479WAT     H170679   6.642   6.774   9.899
23479WAT     H270680   6.511   6.680   9.922
23480WAT      O70681   9.841   1.977   4.957
23480WAT     H170682   9.807   1.988   4.863
23480WAT     H270683   9.856   2.067   4.997
23481WAT      O70684   5.731   3.458   9.230
23481WAT     H170685   5.634   3.475   9.211
23481WAT     H270686   5.743   3.441   9.328
23482WAT      O70687   8.806   4.046   7.844
23482WAT     H170688   8.820   4.143   7.865
23482WAT     H270689   8.708   4.029   7.834
23483WAT      O70690   0.515   8.199   2.880
23483WAT     H170691   0.589   8.188   2.814
23483WAT     H270692   0.438   8.244   2.837
23484WAT      O70693   7.342   3.770   0.091
23484WAT     H170694   7.321   3.833   0.165
23484WAT     H270695   7.431   3.794   0.051
23485WAT      O70696   1.063   2.322   0.700
23485WAT     H170697   1.016   2.313   0.612
23485WAT     H270698   1.114   2.238   0.719
23486WAT      O70699   0.159   0.185   6.730
23486WAT     H170700   0.220   0.234   6.668
23486WAT     H270701   0.081   0.148   6.679
23487WAT      O70702   2.563   8.043   0.782
23487WAT     H170703   2.533   8.091   0.864
23487WAT     H270704   2.598   8.108   0.716
23488WAT      O70705   2.794   6.544   0.864
23488WAT     H170706   2.775   6.536   0.962
23488WAT     H270707   2.751   6.467   0.816
23489WAT      O70708   0.302   0.328   7.895
23489WAT     H170709   0.317   0.295   7.802
23489WAT     H270710   0.341   0.263   7.960
23490WAT      O70711   4.105   5.273   4.311
23490WAT     H170712   4.122   5.237   4.219
23490WAT     H270713   4.191   5.274   4.362
23491WAT      O70714   1.046   5.140   0.515
23491WAT     H170715   0.982   5.152   0.590
23491WAT     H270716   1.024   5.204   0.441
23492WAT      O70717   3.418   6.553   0.982
23492WAT     H170718   3.424   6.478   1.047
23492WAT     H270719   3.415   6.640   1.032
23493WAT      O70720   1.435   9.704   7.278
23493WAT     H170721   1.465   9.713   7.373
23493WAT     H270722   1.364   9.634   7.271
23494WAT      O70723   8.380   1.467   4.390
23494WAT     H170724   8.476   1.489   4.373
23494WAT     H270725   8.367   1.368   4.386
23495WAT      O70726   6.315   9.431   0.759
23495WAT     H170727   6.379   9.460   0.830
23495WAT     H270728   6.288   9.510   0.705
23496WAT      O70729   4.257   3.857   7.971
23496WAT     H170730   4.334   3.855   7.906
23496WAT     H270731   4.277   3.924   8.043
23497WAT      O70732   3.515   7.701   9.587
23497WAT     H170733   3.567   7.760   9.525
23497WAT     H270734   3.473   7.627   9.534
23498WAT      O70735   3.058   5.091   4.393
23498WAT     H170736   3.018   5.004   4.423
23498WAT     H270737   3.051   5.099   4.294
23499WAT      O70738   1.599   3.893   6.719
23499WAT     H170739   1.510   3.857   6.745
23499WAT     H270740   1.644   3.829   6.657
23500WAT      O70741   4.813   3.411   6.322
23500WAT     H170742   4.814   3.317   6.289
23500WAT     H270743   4.740   3.462   6.277
23501WAT      O70744   3.744   2.896   4.225
23501WAT     H170745   3.798   2.980   4.226
23501WAT     H270746   3.770   2.840   4.304
23502WAT      O70747   6.930   9.463   7.990
23502WAT     H170748   6.943   9.529   7.916
23502WAT     H270749   7.018   9.426   8.018
23503WAT      O70750   6.241   7.406   3.716
23503WAT     H170751   6.219   7.399   3.618
23503WAT     H270752   6.299   7.329   3.742
23504WAT      O70753   8.709   1.000   4.465
23504WAT     H170754   8.701   0.910   4.421
23504WAT     H270755   8.663   1.069   4.409
23505WAT      O70756   4.267   0.620   6.309
23505WAT     H170757   4.280   0.717   6.328
23505WAT     H270758   4.186   0.608   6.250
23506WAT      O70759   4.714   2.572   2.053
23506WAT     H170760   4.619   2.593   2.076
23506WAT     H270761   4.741   2.623   1.971
23507WAT      O70762   3.814   6.336   6.877
23507WAT     H170763   3.874   6.367   6.950
23507WAT     H270764   3.859   6.351   6.788
23508WAT      O70765   1.618   0.316   3.641
23508WAT     H170766   1.698   0.269   3.603
23508WAT     H270767   1.543   0.313   3.575
23509WAT      O70768   0.625   6.423   9.024
23509WAT     H170769   0.587   6.333   9.004
23509WAT     H270770   0.709   6.413   9.079
23510WAT      O70771   6.442   0.324   5.467
23510WAT     H170772   6.456   0.334   5.566
23510WAT     H270773   6.411   0.411   5.429
23511WAT      O70774   0.773   3.452   9.346
23511WAT     H170775   0.711   3.511   9.398
23511WAT     H270776   0.853   3.431   9.402
23512WAT      O70777   1.073   3.881   6.826
23512WAT     H170778   1.012   3.912   6.754
23512WAT     H270779   1.068   3.781   6.834
23513WAT      O70780   5.745   4.224   2.406
23513WAT     H170781   5.788   4.286   2.472
23513WAT     H270782   5.805   4.147   2.388
23514WAT      O70783   5.710   5.740   9.813
23514WAT     H170784   5.618   5.723   9.777
23514WAT     H270785   5.772   5.669   9.780
23515WAT      O70786   1.839   7.074   5.780
23515WAT     H170787   1.911   7.097   5.714
23515WAT     H270788   1.842   6.976   5.799
23516WAT      O70789   9.786   4.262   0.623
23516WAT     H170790   9.870   4.243   0.673
23516WAT     H270791   9.774   4.194   0.551
23517WAT      O70792   2.635   6.737   4.631
23517WAT     H170793   2.725   6.699   4.653
23517WAT     H270794   2.644   6.796   4.550
23518WAT      O70795   7.396   1.168   9.227
23518WAT     H170796   7.374   1.251   9.176
23518WAT     H270797   7.313   1.113   9.239
23519WAT      O70798   7.108   1.990   3.514
23519WAT     H170799   7.094   1.891   3.505
23519WAT     H270800   7.205   2.009   3.528
23520WAT      O70801   5.912   2.117   8.504
23520WAT     H170802   5.842   2.131   8.574
23520WAT     H270803   5.999   2.093   8.546
23521WAT      O70804   2.628   9.207   2.536
23521WAT     H170805   2.608   9.190   2.440
23521WAT     H270806   2.606   9.126   2.590
23522WAT      O70807   8.569   5.150   6.888
23522WAT     H170808   8.542   5.215   6.959
23522WAT     H270809   8.490   5.131   6.829
23523WAT      O70810   2.832   6.586   1.516
23523WAT     H170811   2.832   6.679   1.554
23523WAT     H270812   2.850   6.590   1.418
23524WAT      O70813   3.499   5.484   3.343
23524WAT     H170814   3.594   5.454   3.330
23524WAT     H270815   3.492   5.582   3.325
23525WAT      O70816   9.416   5.967   1.023
23525WAT     H170817   9.510   5.992   1.043
23525WAT     H270818   9.384   6.018   0.942
23526WAT      O70819   6.506   3.305   8.308
23526WAT     H170820   6.522   3.240   8.233
23526WAT     H270821   6.590   3.316   8.360
23527WAT      O70822   8.968   8.509   0.871
23527WAT     H170823   8.892   8.560   0.831
23527WAT     H270824   8.979   8.423   0.822
23528WAT      O70825   0.944   9.742   9.860
23528WAT     H170826   1.033   9.764   9.820
23528WAT     H270827   0.925   9.644   9.848
23529WAT      O70828   6.454   9.002   4.654
23529WAT     H170829   6.473   8.905   4.644
23529WAT     H270830   6.528   9.056   4.614
23530WAT      O70831   9.235   5.040   7.995
23530WAT     H170832   9.314   5.099   8.008
23530WAT     H270833   9.264   4.945   7.993
23531WAT      O70834   3.273   0.509   8.262
23531WAT     H170835   3.256   0.437   8.195
23531WAT     H270836   3.293   0.595   8.215
23532WAT      O70837   0.494   3.155   4.113
23532WAT     H170838   0.530   3.229   4.170
23532WAT     H270839   0.503   3.179   4.017
23533WAT      O70840   1.202   6.919   6.881
23533WAT     H170841   1.297   6.919   6.912
23533WAT     H270842   1.151   6.847   6.928
23534WAT      O70843   1.633   3.434   3.823
23534WAT     H170844   1.552   3.385   3.853
23534WAT     H270845   1.684   3.378   3.757
23535WAT      O70846   0.489   5.729   9.265
23535WAT     H170847   0.515   5.650   9.210
23535WAT     H270848   0.411   5.776   9.222
23536WAT      O70849   8.801   3.809   1.215
23536WAT     H170850   8.787   3.892   1.270
23536WAT     H270851   8.736   3.808   1.139
23537WAT      O70852   6.478   3.101   1.674
23537WAT     H170853   6.564   3.073   1.717
23537WAT     H270854   6.416   3.023   1.671
23538WAT      O70855   2.046   2.034   3.824
23538WAT     H170856   1.979   2.108   3.823
23538WAT     H270857   2.093   2.034   3.912
23539WAT      O70858   9.063   1.435   0.387
23539WAT     H170859   8.999   1.399   0.454
23539WAT     H270860   9.014   1.455   0.302
23540WAT      O70861   1.784   0.650   7.526
23540WAT     H170862   1.705   0.628   7.469
23540WAT     H270863   1.861   0.678   7.468
23541WAT      O70864   4.661   6.406   4.935
23541WAT     H170865   4.607   6.329   4.968
23541WAT     H270866   4.682   6.467   5.011
23542WAT      O70867   2.609   1.727   0.771
23542WAT     H170868   2.649   1.639   0.743
23542WAT     H270869   2.647   1.753   0.860
23543WAT      O70870   5.907   8.856   6.346
23543WAT     H170871   5.941   8.913   6.421
23543WAT     H270872   5.927   8.900   6.259
23544WAT      O70873   1.609   2.857   6.988
23544WAT     H170874   1.650   2.911   6.915
23544WAT     H270875   1.558   2.918   7.049
23545WAT      O70876   2.904   5.589   5.210
23545WAT     H170877   2.879   5.602   5.306
23545WAT     H270878   2.864   5.504   5.176
23546WAT      O70879   6.405   9.652   1.983
23546WAT     H170880   6.475   9.657   1.912
23546WAT     H270881   6.354   9.738   1.987
23547WAT      O70882   9.272   6.436   8.374
23547WAT     H170883   9.187   6.383   8.371
23547WAT     H270884   9.295   6.457   8.469
23548WAT      O70885   5.225   2.848   9.560
23548WAT     H170886   5.296   2.793   9.513
23548WAT     H270887   5.158   2.787   9.601
23549WAT      O70888   8.675   0.007   7.665
23549WAT     H170889   8.720  -0.060   7.606
23549WAT     H270890   8.638   0.081   7.609
23550WAT      O70891   9.600   8.303   2.729
23550WAT     H170892   9.605   8.206   2.754
23550WAT     H270893   9.653   8.319   2.646
23551WAT      O70894   4.626   4.066   9.152
23551WAT     H170895   4.625   4.005   9.073
23551WAT     H270896   4.691   4.032   9.219
23552WAT      O70897   9.140   0.186   6.571
23552WAT     H170898   9.209   0.200   6.501
23552WAT     H270899   9.054   0.228   6.542
23553WAT      O70900   9.639   2.837   6.997
23553WAT     H170901   9.720   2.844   6.938
23553WAT     H270902   9.665   2.797   7.084
23554WAT      O70903   5.940   5.177   2.928
23554WAT     H170904   5.914   5.084   2.905
23554WAT     H270905   5.989   5.178   3.015
23555WAT      O70906   3.144   9.315   7.691
23555WAT     H170907   3.188   9.391   7.739
23555WAT     H270908   3.091   9.351   7.614
23556WAT      O70909   6.771   4.233   1.116
23556WAT     H170910   6.813   4.142   1.114
23556WAT     H270911   6.755   4.264   1.022
23557WAT      O70912   4.233   0.004   5.721
23557WAT     H170913   4.164  -0.041   5.777
23557WAT     H270914   4.196   0.021   5.630
23558WAT      O70915   4.707   1.558   3.177
23558WAT     H170916   4.758   1.626   3.124
23558WAT     H270917   4.770   1.507   3.235
23559WAT      O70918   5.146   2.441   2.146
23559WAT     H170919   5.130   2.363   2.207
23559WAT     H270920   5.112   2.524   2.188
23560WAT      O70921   3.905   4.250   6.989
23560WAT     H170922   3.935   4.154   6.982
23560WAT     H270923   3.880   4.270   7.083
23561WAT      O70924   0.984   8.848   1.976
23561WAT     H170925   0.887   8.849   1.949
23561WAT     H270926   0.992   8.821   2.072
23562WAT      O70927   5.024   7.417   3.393
23562WAT     H170928   4.975   7.448   3.312
23562WAT     H270929   4.966   7.353   3.445
23563WAT      O70930   1.623   8.904   1.154
23563WAT     H170931   1.567   8.923   1.234
23563WAT     H270932   1.696   8.972   1.148
23564WAT      O70933   1.010   5.533   3.965
23564WAT     H170934   1.027   5.561   4.060
23564WAT     H270935   1.009   5.613   3.906
23565WAT      O70936   4.365   0.092   0.868
23565WAT     H170937   4.329   0.093   0.775
23565WAT     H270938   4.397   0.183   0.893
23566WAT      O70939   4.013   1.471   4.639
23566WAT     H170940   3.939   1.515   4.688
23566WAT     H270941   3.984   1.380   4.610
23567WAT      O70942   2.942   0.298   1.467
23567WAT     H170943   2.987   0.381   1.436
23567WAT     H270944   2.852   0.290   1.423
23568WAT      O70945   6.655   3.132   4.836
23568WAT     H170946   6.715   3.207   4.808
23568WAT     H270947   6.710   3.051   4.857
23569WAT      O70948   4.612   1.572   4.586
23569WAT     H170949   4.614   1.489   4.641
23569WAT     H270950   4.602   1.549   4.490
23570WAT      O70951   1.124   3.444   5.057
23570WAT     H170952   1.065   3.367   5.080
23570WAT     H270953   1.150   3.438   4.961
23571WAT      O70954   5.478   7.918   7.311
23571WAT     H170955   5.398   7.865   7.341
23571WAT     H270956   5.561   7.879   7.352
23572WAT      O70957   7.156   1.104   0.296
23572WAT     H170958   7.221   1.095   0.220
23572WAT     H270959   7.175   1.033   0.364
23573WAT      O70960   9.088   3.598   3.687
23573WAT     H170961   9.007   3.656   3.700
23573WAT     H270962   9.070   3.507   3.723
23574WAT      O70963   9.357   6.898   2.152
23574WAT     H170964   9.261   6.916   2.131
23574WAT     H270965   9.371   6.907   2.251
23575WAT      O70966   1.212   5.119   5.592
23575WAT     H170967   1.253   5.155   5.676
23575WAT     H270968   1.150   5.187   5.553
23576WAT      O70969   3.921   9.721   5.239
23576WAT     H170970   3.886   9.678   5.322
23576WAT     H270971   3.866   9.693   5.161
23577WAT      O70972   4.332   5.909   3.179
23577WAT     H170973   4.296   5.985   3.124
23577WAT     H270974   4.322   5.823   3.128
23578WAT      O70975   4.669   7.997   2.434
23578WAT     H170976   4.752   8.053   2.431
23578WAT     H270977   4.602   8.034   2.369
23579WAT      O70978   2.448   1.040   8.604
23579WAT     H170979   2.481   1.135   8.607
23579WAT     H270980   2.460   1.004   8.511
23580WAT      O70981   1.348   6.863   8.860
23580WAT     H170982   1.419   6.844   8.793
23580WAT     H270983   1.280   6.790   8.859
23581WAT      O70984   0.999   2.424   7.283
23581WAT     H170985   1.060   2.376   7.346
23581WAT     H270986   0.913   2.446   7.329
23582WAT      O70987   8.537   0.626   3.547
23582WAT     H170988   8.449   0.643   3.503
23582WAT     H270989   8.565   0.707   3.599
23583WAT      O70990   0.885   9.374   4.156
23583WAT     H170991   0.946   9.375   4.077
23583WAT     H270992   0.887   9.463   4.201
23584WAT      O70993   6.501   6.865   0.500
23584WAT     H170994   6.575   6.928   0.475
23584WAT     H270995   6.541   6.779   0.531
23585WAT      O70996   2.848   1.964   3.796
23585WAT     H170997   2.793   1.895   3.751
23585WAT     H270998   2.940   1.965   3.756
23586WAT      O70999   8.841   8.499   4.148
23586WAT     H171000   8.759   8.462   4.193
23586WAT     H271001   8.919   8.493   4.210
23587WAT      O71002   8.552   9.822   1.683
23587WAT     H171003   8.609   9.884   1.629
23587WAT     H271004   8.488   9.774   1.623
23588WAT      O71005   3.114   1.483   9.153
23588WAT     H171006   3.045   1.508   9.084
23588WAT     H271007   3.115   1.551   9.226
23589WAT      O71008   3.455   8.812   6.254
23589WAT     H171009   3.491   8.890   6.306
23589WAT     H271010   3.526   8.741   6.247
23590WAT      O71011   2.304   6.893   1.395
23590WAT     H171012   2.398   6.926   1.390
23590WAT     H271013   2.302   6.795   1.375
23591WAT      O71014   4.926   2.225   6.883
23591WAT     H171015   4.871   2.152   6.843
23591WAT     H271016   4.928   2.216   6.982
23592WAT      O71017   2.110   9.430   5.365
23592WAT     H171018   2.018   9.393   5.372
23592WAT     H271019   2.130   9.484   5.447
23593WAT      O71020   4.489   9.071   6.827
23593WAT     H171021   4.443   9.127   6.759
23593WAT     H271022   4.575   9.036   6.788
23594WAT      O71023   3.975   1.044   4.885
23594WAT     H171024   3.956   0.946   4.899
23594WAT     H271025   4.072   1.061   4.899
23595WAT      O71026   2.275   7.358   1.190
23595WAT     H171027   2.296   7.262   1.205
23595WAT     H271028   2.217   7.391   1.264
23596WAT      O71029   7.296   4.967   0.368
23596WAT     H171030   7.276   4.869   0.372
23596WAT     H271031   7.306   4.995   0.273
23597WAT      O71032   6.417   6.445   1.688
23597WAT     H171033   6.484   6.519   1.699
23597WAT     H271034   6.455   6.374   1.628
23598WAT      O71035   1.788   2.804   8.847
23598WAT     H171036   1.776   2.793   8.749
23598WAT     H271037   1.863   2.746   8.878
23599WAT      O71038   9.619   6.779   3.550
23599WAT     H171039   9.616   6.829   3.463
23599WAT     H271040   9.582   6.687   3.536
23600WAT      O71041   2.555   3.634   9.546
23600WAT     H171042   2.459   3.657   9.529
23600WAT     H271043   2.578   3.656   9.641
23601WAT      O71044   6.404   3.175   3.788
23601WAT     H171045   6.307   3.190   3.806
23601WAT     H271046   6.415   3.120   3.706
23602WAT      O71047   1.938   7.831   1.807
23602WAT     H171048   1.966   7.912   1.857
23602WAT     H271049   1.989   7.825   1.721
23603WAT      O71050   2.628   2.882   2.698
23603WAT     H171051   2.532   2.901   2.715
23603WAT     H271052   2.645   2.783   2.705
23604WAT      O71053   4.680   3.141   3.830
23604WAT     H171054   4.676   3.199   3.912
23604WAT     H271055   4.767   3.092   3.828
23605WAT      O71056   0.731   3.995   7.607
23605WAT     H171057   0.656   4.043   7.652
23605WAT     H271058   0.722   4.003   7.508
23606WAT      O71059   1.283   0.530   7.514
23606WAT     H171060   1.272   0.627   7.492
23606WAT     H271061   1.281   0.519   7.614
23607WAT      O71062   9.064   4.418   6.913
23607WAT     H171063   8.969   4.422   6.945
23607WAT     H271064   9.098   4.511   6.897
23608WAT      O71065   2.102   5.460   3.167
23608WAT     H171066   2.005   5.435   3.168
23608WAT     H271067   2.158   5.377   3.164
23609WAT      O71068   2.346   8.254   5.226
23609WAT     H171069   2.409   8.329   5.248
23609WAT     H271070   2.266   8.259   5.286
23610WAT      O71071   3.011   5.159   7.740
23610WAT     H171072   2.969   5.084   7.690
23610WAT     H271073   3.054   5.222   7.676
23611WAT      O71074   2.255   9.162   1.067
23611WAT     H171075   2.179   9.142   1.130
23611WAT     H271076   2.282   9.077   1.021
23612WAT      O71077   0.480   5.660   4.259
23612WAT     H171078   0.505   5.719   4.183
23612WAT     H271079   0.560   5.610   4.291
23613WAT      O71080   3.240   9.618   9.117
23613WAT     H171081   3.279   9.550   9.179
23613WAT     H271082   3.251   9.587   9.022
23614WAT      O71083   1.863   1.584   5.906
23614WAT     H171084   1.848   1.607   5.810
23614WAT     H271085   1.898   1.490   5.912
23615WAT      O71086   9.257   2.182   5.732
23615WAT     H171087   9.319   2.108   5.760
23615WAT     H271088   9.192   2.147   5.665
23616WAT      O71089   5.262   6.645   5.902
23616WAT     H171090   5.163   6.650   5.907
23616WAT     H271091   5.289   6.599   5.817
23617WAT      O71092   2.146   9.596   6.970
23617WAT     H171093   2.060   9.586   6.920
23617WAT     H271094   2.127   9.616   7.066
23618WAT      O71095   2.879   5.998   5.881
23618WAT     H171096   2.790   6.028   5.847
23618WAT     H271097   2.882   5.898   5.885
23619WAT      O71098   2.922   2.711   8.486
23619WAT     H171099   2.846   2.774   8.503
23619WAT     H271100   2.993   2.724   8.556
23620WAT      O71101   8.129   9.179   1.321
23620WAT     H171102   8.074   9.259   1.345
23620WAT     H271103   8.086   9.131   1.245
23621WAT      O71104   5.039   3.015   2.884
23621WAT     H171105   5.037   2.977   2.976
23621WAT     H271106   4.957   3.071   2.869
23622WAT      O71107   1.786   1.390   8.903
23622WAT     H171108   1.856   1.385   8.831
23622WAT     H271109   1.829   1.377   8.992
23623WAT      O71110   1.209   4.783   2.572
23623WAT     H171111   1.297   4.775   2.524
23623WAT     H271112   1.163   4.694   2.573
23624WAT      O71113   5.783   6.601   7.061
23624WAT     H171114   5.801   6.527   7.126
23624WAT     H271115   5.831   6.582   6.976
23625WAT      O71116   6.997   3.176   2.514
23625WAT     H171117   7.067   3.163   2.584
23625WAT     H271118   6.908   3.188   2.558
23626WAT      O71119   0.295   5.203   6.986
23626WAT     H171120   0.265   5.291   7.022
23626WAT     H271121   0.222   5.135   7.001
23627WAT      O71122   8.995   4.996   9.111
23627WAT     H171123   9.066   5.024   9.175
23627WAT     H271124   9.036   4.947   9.035
23628WAT      O71125   4.702   0.561   5.614
23628WAT     H171126   4.755   0.586   5.695
23628WAT     H271127   4.692   0.641   5.555
23629WAT      O71128   9.382   8.338   1.150
23629WAT     H171129   9.368   8.432   1.120
23629WAT     H271130   9.448   8.336   1.225
23630WAT      O71131   4.551   1.082   0.277
23630WAT     H171132   4.529   1.173   0.310
23630WAT     H271133   4.649   1.074   0.261
23631WAT      O71134   7.712   1.898   0.054
23631WAT     H171135   7.700   1.938   0.145
23631WAT     H271136   7.751   1.806   0.063
23632WAT      O71137   5.016   1.377   8.235
23632WAT     H171138   5.084   1.402   8.167
23632WAT     H271139   5.026   1.435   8.315
23633WAT      O71140   0.747   5.011   0.937
23633WAT     H171141   0.801   5.004   1.022
23633WAT     H271142   0.654   5.040   0.960
23634WAT      O71143   6.346   1.748   7.596
23634WAT     H171144   6.302   1.806   7.527
23634WAT     H271145   6.348   1.796   7.684
23635WAT      O71146   9.723   0.099   7.985
23635WAT     H171147   9.812   0.131   8.017
23635WAT     H271148   9.699   0.144   7.899
23636WAT      O71149   5.999   1.670   7.773
23636WAT     H171150   5.990   1.755   7.826
23636WAT     H271151   5.946   1.598   7.818
23637WAT      O71152   1.413   8.143   1.072
23637WAT     H171153   1.336   8.138   1.135
23637WAT     H271154   1.427   8.054   1.029
23638WAT      O71155   5.402   8.402   9.636
23638WAT     H171156   5.406   8.376   9.539
23638WAT     H271157   5.446   8.331   9.691
23639WAT      O71158   2.780   3.208   3.250
23639WAT     H171159   2.800   3.223   3.347
23639WAT     H271160   2.736   3.289   3.212
23640WAT      O71161   2.940   3.181   8.321
23640WAT     H171162   2.905   3.262   8.369
23640WAT     H271163   2.966   3.111   8.388
23641WAT      O71164   6.737   3.500   4.689
23641WAT     H171165   6.719   3.436   4.614
23641WAT     H271166   6.770   3.450   4.769
23642WAT      O71167   1.524   2.520   8.153
23642WAT     H171168   1.541   2.462   8.074
23642WAT     H271169   1.566   2.480   8.235
23643WAT      O71170   6.436   0.360   1.721
23643WAT     H171171   6.412   0.265   1.703
23643WAT     H271172   6.353   0.416   1.721
23644WAT      O71173   1.320   5.882   0.644
23644WAT     H171174   1.302   5.806   0.707
23644WAT     H271175   1.235   5.907   0.599
23645WAT      O71176   1.649   5.910   4.611
23645WAT     H171177   1.581   5.837   4.597
23645WAT     H271178   1.716   5.907   4.537
23646WAT      O71179   0.318   7.553   5.672
23646WAT     H171180   0.275   7.510   5.751
23646WAT     H271181   0.248   7.600   5.618
23647WAT      O71182   7.647   1.042   9.150
23647WAT     H171183   7.581   1.065   9.221
23647WAT     H271184   7.713   0.975   9.186
23648WAT      O71185   5.029   6.411   8.520
23648WAT     H171186   4.939   6.405   8.563
23648WAT     H271187   5.100   6.398   8.589
23649WAT      O71188   3.809   5.967   4.518
23649WAT     H171189   3.727   5.933   4.473
23649WAT     H271190   3.887   5.958   4.456
23650WAT      O71191   5.418   8.934   3.933
23650WAT     H171192   5.455   8.996   4.003
23650WAT     H271193   5.342   8.882   3.972
23651WAT      O71194   1.088   6.883   1.492
23651WAT     H171195   1.147   6.851   1.419
23651WAT     H271196   0.994   6.854   1.474
23652WAT      O71197   1.455   0.457   8.638
23652WAT     H171198   1.450   0.405   8.724
23652WAT     H271199   1.448   0.555   8.658
23653WAT      O71200   3.082   8.295   4.203
23653WAT     H171201   3.009   8.232   4.231
23653WAT     H271202   3.097   8.362   4.277
23654WAT      O71203   5.681   4.301   7.840
23654WAT     H171204   5.597   4.316   7.787
23654WAT     H271205   5.676   4.213   7.887
23655WAT      O71206   4.949   6.333   3.614
23655WAT     H171207   5.019   6.403   3.630
23655WAT     H271208   4.994   6.246   3.593
23656WAT      O71209   7.599   2.987   1.362
23656WAT     H171210   7.601   3.024   1.455
23656WAT     H271211   7.525   3.031   1.310
23657WAT      O71212   4.115   9.680   0.876
23657WAT     H171213   4.158   9.660   0.788
23657WAT     H271214   4.068   9.598   0.910
23658WAT      O71215   0.138   0.415   8.785
23658WAT     H171216   0.090   0.328   8.796
23658WAT     H271217   0.229   0.408   8.826
23659WAT      O71218   8.417   0.240   7.083
23659WAT     H171219   8.443   0.200   7.170
23659WAT     H271220   8.340   0.303   7.097
23660WAT      O71221   2.999   1.767   2.880
23660WAT     H171222   2.941   1.792   2.957
23660WAT     H271223   3.095   1.762   2.910
23661WAT      O71224   1.606   7.266   5.114
23661WAT     H171225   1.677   7.291   5.181
23661WAT     H271226   1.518   7.257   5.161
23662WAT      O71227   0.155   8.106   4.309
23662WAT     H171228   0.169   8.104   4.408
23662WAT     H271229   0.223   8.048   4.264
23663WAT      O71230   1.950   8.831   0.922
23663WAT     H171231   2.028   8.802   0.977
23663WAT     H271232   1.977   8.835   0.826
23664WAT      O71233   8.376   3.491   5.142
23664WAT     H171234   8.293   3.536   5.176
23664WAT     H271235   8.440   3.560   5.108
23665WAT      O71236   7.802   3.865   8.606
23665WAT     H171237   7.793   3.959   8.638
23665WAT     H271238   7.867   3.862   8.530
23666WAT      O71239   0.355   2.835   0.045
23666WAT     H171240   0.310   2.746   0.053
23666WAT     H271241   0.338   2.888   0.128
23667WAT      O71242   1.623   7.641   8.389
23667WAT     H171243   1.672   7.563   8.428
23667WAT     H271244   1.528   7.615   8.370
23668WAT      O71245   9.468   1.720   1.999
23668WAT     H171246   9.427   1.810   1.982
23668WAT     H271247   9.461   1.664   1.916
23669WAT      O71248   2.624   6.248   4.591
23669WAT     H171249   2.642   6.150   4.580
23669WAT     H271250   2.686   6.285   4.660
23670WAT      O71251   6.002   3.847   2.639
23670WAT     H171252   5.996   3.790   2.721
23670WAT     H271253   6.021   3.942   2.665
23671WAT      O71254   6.758   2.560   1.940
23671WAT     H171255   6.741   2.651   1.978
23671WAT     H271256   6.761   2.493   2.015
23672WAT      O71257   8.467   8.503   7.205
23672WAT     H171258   8.373   8.484   7.177
23672WAT     H271259   8.469   8.588   7.259
23673WAT      O71260   2.037   8.618   2.404
23673WAT     H171261   2.030   8.520   2.386
23673WAT     H271262   2.119   8.654   2.361
23674WAT      O71263   5.351   4.453   6.996
23674WAT     H171264   5.370   4.529   7.058
23674WAT     H271265   5.268   4.405   7.027
23675WAT      O71266   0.652   2.705   6.504
23675WAT     H171267   0.559   2.691   6.470
23675WAT     H271268   0.653   2.697   6.603
23676WAT      O71269   4.610   6.623   9.478
23676WAT     H171270   4.705   6.621   9.446
23676WAT     H271271   4.549   6.639   9.400
23677WAT      O71272   6.342   5.308   3.226
23677WAT     H171273   6.438   5.332   3.216
23677WAT     H271274   6.288   5.359   3.160
23678WAT      O71275   1.224   6.175   1.747
23678WAT     H171276   1.128   6.197   1.728
23678WAT     H271277   1.281   6.253   1.720
23679WAT      O71278   2.736   0.757   5.248
23679WAT     H171279   2.698   0.762   5.340
23679WAT     H271280   2.690   0.823   5.189
23680WAT      O71281   7.008   1.381   0.642
23680WAT     H171282   6.985   1.440   0.565
23680WAT     H271283   6.943   1.305   0.647
23681WAT      O71284   3.823   9.491   6.501
23681WAT     H171285   3.916   9.466   6.473
23681WAT     H271286   3.757   9.451   6.437
23682WAT      O71287   4.555   0.979   2.917
23682WAT     H171288   4.586   1.024   3.000
23682WAT     H271289   4.622   0.991   2.844
23683WAT      O71290   8.848   5.221   4.067
23683WAT     H171291   8.863   5.123   4.058
23683WAT     H271292   8.766   5.236   4.124
23684WAT      O71293   0.014   7.404   2.333
23684WAT     H171294  -0.068   7.369   2.378
23684WAT     H271295   0.079   7.330   2.319
23685WAT      O71296   7.846   2.607   6.553
23685WAT     H171297   7.865   2.613   6.651
23685WAT     H271298   7.894   2.529   6.514
23686WAT      O71299   2.217   3.033   3.277
23686WAT     H171300   2.240   3.050   3.181
23686WAT     H271301   2.148   2.960   3.283
23687WAT      O71302   9.509   6.172   9.077
23687WAT     H171303   9.439   6.187   9.147
23687WAT     H271304   9.501   6.078   9.043
23688WAT      O71305   1.228   0.945   1.774
23688WAT     H171306   1.186   0.873   1.720
23688WAT     H271307   1.168   0.971   1.849
23689WAT      O71308   0.255   8.812   8.819
23689WAT     H171309   0.291   8.727   8.857
23689WAT     H271310   0.327   8.859   8.769
23690WAT      O71311   6.309   0.542   1.112
23690WAT     H171312   6.241   0.480   1.149
23690WAT     H271313   6.344   0.601   1.185
23691WAT      O71314   0.041   0.448   4.263
23691WAT     H171315  -0.056   0.429   4.254
23691WAT     H271316   0.076   0.403   4.345
23692WAT      O71317   6.308   6.204   3.889
23692WAT     H171318   6.272   6.204   3.983
23692WAT     H271319   6.400   6.244   3.889
23693WAT      O71320   8.547   4.135   7.023
23693WAT     H171321   8.496   4.055   6.992
23693WAT     H271322   8.645   4.122   7.004
23694WAT      O71323   1.771   3.069   3.420
23694WAT     H171324   1.720   2.991   3.384
23694WAT     H271325   1.726   3.154   3.392
23695WAT      O71326   4.150   8.839   0.934
23695WAT     H171327   4.069   8.782   0.914
23695WAT     H271328   4.123   8.915   0.993
23696WAT      O71329   3.026   5.911   8.868
23696WAT     H171330   2.987   5.989   8.915
23696WAT     H271331   3.059   5.845   8.936
23697WAT      O71332   3.848   0.437   8.360
23697WAT     H171333   3.757   0.478   8.350
23697WAT     H271334   3.915   0.508   8.381
23698WAT      O71335   4.011   7.011   7.843
23698WAT     H171336   4.037   6.960   7.761
23698WAT     H271337   4.035   6.957   7.924
23699WAT      O71338   8.411   2.873   0.187
23699WAT     H171339   8.322   2.909   0.215
23699WAT     H271340   8.445   2.926   0.110
23700WAT      O71341   2.018   7.535   8.839
23700WAT     H171342   1.962   7.535   8.757
23700WAT     H271343   2.096   7.597   8.828
23701WAT      O71344   3.766   8.251   6.724
23701WAT     H171345   3.830   8.195   6.776
23701WAT     H271346   3.786   8.243   6.627
23702WAT      O71347   5.926   9.612   4.630
23702WAT     H171348   5.846   9.620   4.690
23702WAT     H271349   5.897   9.583   4.539
23703WAT      O71350   5.054   0.628   3.128
23703WAT     H171351   4.960   0.641   3.097
23703WAT     H271352   5.065   0.536   3.165
23704WAT      O71353   2.087   1.829   5.874
23704WAT     H171354   2.163   1.865   5.927
23704WAT     H271355   2.031   1.769   5.932
23705WAT      O71356   3.046   8.299   2.855
23705WAT     H171357   3.008   8.369   2.794
23705WAT     H271358   3.136   8.327   2.886
23706WAT      O71359   0.578   0.513   9.826
23706WAT     H171360   0.567   0.445   9.899
23706WAT     H271361   0.521   0.592   9.846
23707WAT      O71362   0.152   8.834   5.723
23707WAT     H171363   0.186   8.753   5.675
23707WAT     H271364   0.125   8.904   5.657
23708WAT      O71365   3.776   0.975   3.301
23708WAT     H171366   3.760   1.037   3.225
23708WAT     H271367   3.710   0.994   3.374
23709WAT      O71368   2.488   3.635   3.480
23709WAT     H171369   2.487   3.552   3.424
23709WAT     H271370   2.398   3.679   3.476
23710WAT      O71371   7.745   9.056   0.385
23710WAT     H171372   7.775   9.142   0.345
23710WAT     H271373   7.730   8.988   0.313
23711WAT      O71374   4.824   5.980   4.748
23711WAT     H171375   4.819   5.916   4.671
23711WAT     H271376   4.801   6.072   4.717
23712WAT      O71377   2.450   0.046   4.088
23712WAT     H171378   2.480   0.081   3.999
23712WAT     H271379   2.391  -0.033   4.075
23713WAT      O71380   2.934   6.525   9.109
23713WAT     H171381   3.009   6.572   9.154
23713WAT     H271382   2.847   6.556   9.148
23714WAT      O71383   0.465   6.958   8.411
23714WAT     H171384   0.485   6.962   8.508
23714WAT     H271385   0.434   7.048   8.380
23715WAT      O71386   5.912   8.229   5.544
23715WAT     H171387   5.968   8.294   5.493
23715WAT     H271388   5.970   8.179   5.609
23716WAT      O71389   5.024   5.060   9.402
23716WAT     H171390   4.952   5.051   9.332
23716WAT     H271391   5.057   4.970   9.428
23717WAT      O71392   3.616   9.350   7.211
23717WAT     H171393   3.538   9.290   7.232
23717WAT     H271394   3.631   9.413   7.287
23718WAT      O71395   5.312   1.698   8.169
23718WAT     H171396   5.307   1.660   8.262
23718WAT     H271397   5.241   1.656   8.112
23719WAT      O71398   5.282   0.142   7.343
23719WAT     H171399   5.195   0.192   7.344
23719WAT     H271400   5.286   0.084   7.262
23720WAT      O71401   6.685   1.340   3.721
23720WAT     H171402   6.629   1.291   3.654
23720WAT     H271403   6.756   1.279   3.757
23721WAT      O71404   8.489   1.830   8.687
23721WAT     H171405   8.500   1.883   8.771
23721WAT     H271406   8.418   1.873   8.630
23722WAT      O71407   6.114   0.346   4.069
23722WAT     H171408   6.190   0.332   4.006
23722WAT     H271409   6.145   0.328   4.162
23723WAT      O71410   9.261   1.906   1.302
23723WAT     H171411   9.192   1.866   1.242
23723WAT     H271412   9.348   1.913   1.253
23724WAT      O71413   4.681   6.248   5.182
23724WAT     H171414   4.606   6.252   5.247
23724WAT     H271415   4.721   6.339   5.171
23725WAT      O71416   1.592   8.431   6.876
23725WAT     H171417   1.576   8.426   6.777
23725WAT     H271418   1.609   8.339   6.911
23726WAT      O71419   3.878   5.060   1.013
23726WAT     H171420   3.940   4.993   1.053
23726WAT     H271421   3.838   5.116   1.085
23727WAT      O71422   5.908   0.638   0.292
23727WAT     H171423   5.906   0.683   0.381
23727WAT     H271424   5.867   0.547   0.300
23728WAT      O71425   5.631   6.840   0.596
23728WAT     H171426   5.652   6.931   0.630
23728WAT     H271427   5.712   6.781   0.606
23729WAT      O71428   8.720   6.713   2.510
23729WAT     H171429   8.742   6.810   2.516
23729WAT     H271430   8.624   6.702   2.483
23730WAT      O71431   4.506   9.254   8.593
23730WAT     H171432   4.448   9.223   8.517
23730WAT     H271433   4.589   9.198   8.596
23731WAT      O71434   3.317   1.397   0.514
23731WAT     H171435   3.398   1.343   0.492
23731WAT     H271436   3.319   1.483   0.462
23732WAT      O71437   0.233   5.257   7.495
23732WAT     H171438   0.284   5.237   7.579
23732WAT     H271439   0.261   5.193   7.423
23733WAT      O71440   8.123   9.040   2.433
23733WAT     H171441   8.176   9.025   2.350
23733WAT     H271442   8.184   9.049   2.511
23734WAT      O71443   1.604   0.813   1.363
23734WAT     H171444   1.526   0.872   1.383
23734WAT     H271445   1.688   0.868   1.359
23735WAT      O71446   9.247   5.553   1.935
23735WAT     H171447   9.190   5.592   2.008
23735WAT     H271448   9.189   5.508   1.868
23736WAT      O71449   5.965   2.706   8.359
23736WAT     H171450   6.010   2.725   8.446
23736WAT     H271451   5.866   2.713   8.370
23737WAT      O71452   5.790   3.917   6.223
23737WAT     H171453   5.742   3.868   6.296
23737WAT     H271454   5.790   4.015   6.244
23738WAT      O71455   7.895   5.045   8.974
23738WAT     H171456   7.902   4.952   9.009
23738WAT     H271457   7.966   5.102   9.015
23739WAT      O71458   0.044   0.732   1.864
23739WAT     H171459   0.005   0.815   1.905
23739WAT     H271460   0.024   0.732   1.765
23740WAT      O71461   1.595   2.415   7.923
23740WAT     H171462   1.627   2.497   7.875
23740WAT     H271463   1.531   2.366   7.864
23741WAT      O71464   2.802   3.869   2.987
23741WAT     H171465   2.752   3.946   2.948
23741WAT     H271466   2.839   3.895   3.076
23742WAT      O71467   6.153   5.910   8.262
23742WAT     H171468   6.062   5.951   8.255
23742WAT     H271469   6.195   5.938   8.349
23743WAT      O71470   7.648   3.845   8.211
23743WAT     H171471   7.670   3.756   8.251
23743WAT     H271472   7.622   3.909   8.284
23744WAT      O71473   3.961   9.558   5.752
23744WAT     H171474   3.968   9.643   5.804
23744WAT     H271475   3.996   9.572   5.659
23745WAT      O71476   5.816   3.662   2.884
23745WAT     H171477   5.767   3.749   2.887
23745WAT     H271478   5.819   3.623   2.976
23746WAT      O71479   3.314   1.200   2.018
23746WAT     H171480   3.232   1.202   2.074
23746WAT     H271481   3.356   1.291   2.017
23747WAT      O71482   4.364   5.502   9.044
23747WAT     H171483   4.379   5.421   9.101
23747WAT     H271484   4.318   5.475   8.959
23748WAT      O71485   7.440   1.176   8.437
23748WAT     H171486   7.422   1.227   8.353
23748WAT     H271487   7.531   1.136   8.432
23749WAT      O71488   4.720   9.261   6.546
23749WAT     H171489   4.652   9.247   6.474
23749WAT     H271490   4.787   9.328   6.515
23750WAT      O71491   2.195   4.962   1.321
23750WAT     H171492   2.153   4.888   1.269
23750WAT     H271493   2.177   4.949   1.419
23751WAT      O71494   3.732   5.649   8.285
23751WAT     H171495   3.784   5.629   8.202
23751WAT     H271496   3.646   5.596   8.284
23752WAT      O71497   4.329   1.239   4.641
23752WAT     H171498   4.384   1.209   4.562
23752WAT     H271499   4.329   1.339   4.645
23753WAT      O71500   2.846   3.727   6.358
23753WAT     H171501   2.917   3.796   6.375
23753WAT     H271502   2.756   3.770   6.360
23754WAT      O71503   4.843   8.902   9.859
23754WAT     H171504   4.795   8.815   9.873
23754WAT     H271505   4.928   8.901   9.911
23755WAT      O71506   6.699   2.595   4.472
23755WAT     H171507   6.787   2.620   4.512
23755WAT     H271508   6.685   2.496   4.481
23756WAT      O71509   3.593   3.885   3.698
23756WAT     H171510   3.587   3.855   3.603
23756WAT     H271511   3.610   3.806   3.758
23757WAT      O71512   7.140   3.342   9.858
23757WAT     H171513   7.096   3.371   9.943
23757WAT     H271514   7.083   3.272   9.814
23758WAT      O71515   9.632   0.712   6.654
23758WAT     H171516   9.581   0.794   6.627
23758WAT     H271517   9.692   0.685   6.578
23759WAT      O71518   5.092   0.896   3.019
23759WAT     H171519   5.056   0.986   2.994
23759WAT     H271520   5.019   0.828   3.009
23760WAT      O71521   1.957   6.476   3.632
23760WAT     H171522   2.043   6.485   3.581
23760WAT     H271523   1.970   6.508   3.726
23761WAT      O71524   7.220   3.468   3.077
23761WAT     H171525   7.281   3.542   3.106
23761WAT     H271526   7.134   3.475   3.127
23762WAT      O71527   0.601   7.916   3.670
23762WAT     H171528   0.555   7.893   3.584
23762WAT     H271529   0.558   7.866   3.745
23763WAT      O71530   8.534   8.532   6.755
23763WAT     H171531   8.457   8.568   6.807
23763WAT     H271532   8.552   8.591   6.676
23764WAT      O71533   3.602   5.662   2.871
23764WAT     H171534   3.550   5.577   2.878
23764WAT     H271535   3.689   5.644   2.825
23765WAT      O71536   8.334   6.186   0.884
23765WAT     H171537   8.283   6.107   0.852
23765WAT     H271538   8.332   6.258   0.815
23766WAT      O71539   1.039   5.911   6.385
23766WAT     H171540   1.134   5.893   6.410
23766WAT     H271541   1.032   5.918   6.285
23767WAT      O71542   5.921   0.663   9.084
23767WAT     H171543   5.839   0.624   9.124
23767WAT     H271544   5.921   0.648   8.985
23768WAT      O71545   7.567   5.768   0.351
23768WAT     H171546   7.611   5.840   0.297
23768WAT     H271547   7.599   5.773   0.445
23769WAT      O71548   7.057   7.771   5.739
23769WAT     H171549   7.106   7.847   5.696
23769WAT     H271550   7.000   7.725   5.672
23770WAT      O71551   5.993   8.465   1.116
23770WAT     H171552   6.070   8.523   1.142
23770WAT     H271553   5.965   8.486   1.023
23771WAT      O71554   3.288   3.489   1.093
23771WAT     H171555   3.257   3.477   1.188
23771WAT     H271556   3.218   3.454   1.031
23772WAT      O71557   7.723   8.235   9.167
23772WAT     H171558   7.642   8.274   9.124
23772WAT     H271559   7.781   8.309   9.202
23773WAT      O71560   6.239   7.670   3.730
23773WAT     H171561   6.274   7.699   3.641
23773WAT     H271562   6.251   7.571   3.740
23774WAT      O71563   8.139   9.424   8.187
23774WAT     H171564   8.072   9.396   8.117
23774WAT     H271565   8.208   9.352   8.196
23775WAT      O71566   3.595   6.466   4.595
23775WAT     H171567   3.642   6.546   4.633
23775WAT     H271568   3.586   6.395   4.665
23776WAT      O71569   0.055   8.020   6.994
23776WAT     H171570   0.133   7.959   6.985
23776WAT     H271571   0.072   8.085   7.068
23777WAT      O71572   9.181   8.655   5.085
23777WAT     H171573   9.173   8.611   4.995
23777WAT     H271574   9.206   8.751   5.073
23778WAT      O71575   5.087   1.732   2.724
23778WAT     H171576   5.100   1.636   2.748
23778WAT     H271577   5.139   1.753   2.642
23779WAT      O71578   9.777   8.396   3.249
23779WAT     H171579   9.707   8.462   3.221
23779WAT     H271580   9.868   8.434   3.231
23780WAT      O71581   4.140   4.772   8.557
23780WAT     H171582   4.131   4.672   8.557
23780WAT     H271583   4.050   4.814   8.549
23781WAT      O71584   6.058   7.079   1.579
23781WAT     H171585   6.098   7.168   1.602
23781WAT     H271586   6.108   7.039   1.503
23782WAT      O71587   5.543   5.843   5.313
23782WAT     H171588   5.635   5.851   5.277
23782WAT     H271589   5.536   5.760   5.368
23783WAT      O71590   0.627   9.069   0.429
23783WAT     H171591   0.611   9.076   0.528
23783WAT     H271592   0.726   9.066   0.412
23784WAT      O71593   2.469   3.151   0.306
23784WAT     H171594   2.450   3.143   0.208
23784WAT     H271595   2.386   3.130   0.358
23785WAT      O71596   2.972   9.507   8.961
23785WAT     H171597   2.920   9.556   8.891
23785WAT     H271598   3.070   9.514   8.941
23786WAT      O71599   3.445   1.683   2.446
23786WAT     H171600   3.510   1.758   2.436
23786WAT     H271601   3.491   1.603   2.485
23787WAT      O71602   3.546   7.494   9.201
23787WAT     H171603   3.550   7.594   9.208
23787WAT     H271604   3.633   7.455   9.231
23788WAT      O71605   3.720   0.853   1.453
23788WAT     H171606   3.798   0.849   1.391
23788WAT     H271607   3.693   0.761   1.479
23789WAT      O71608   6.570   4.667   8.493
23789WAT     H171609   6.478   4.627   8.496
23789WAT     H271610   6.625   4.629   8.567
23790WAT      O71611   0.605   9.343   4.101
23790WAT     H171612   0.592   9.428   4.051
23790WAT     H271613   0.702   9.324   4.109
23791WAT      O71614   1.724   9.421   8.163
23791WAT     H171615   1.818   9.426   8.130
23791WAT     H271616   1.720   9.361   8.243
23792WAT      O71617   5.151   4.167   1.429
23792WAT     H171618   5.208   4.183   1.510
23792WAT     H271619   5.137   4.253   1.380
23793WAT      O71620   3.449   7.977   3.040
23793WAT     H171621   3.417   8.037   3.113
23793WAT     H271622   3.549   7.984   3.033
23794WAT      O71623   0.003   4.196   7.293
23794WAT     H171624   0.066   4.146   7.233
23794WAT     H271625  -0.091   4.174   7.268
23795WAT      O71626   0.024   7.633   2.189
23795WAT     H171627   0.020   7.556   2.253
23795WAT     H271628   0.113   7.679   2.199
23796WAT      O71629   0.396   7.697   8.841
23796WAT     H171630   0.301   7.720   8.864
23796WAT     H271631   0.416   7.604   8.873
23797WAT      O71632   2.995   1.001   7.083
23797WAT     H171633   2.956   1.085   7.121
23797WAT     H271634   2.922   0.934   7.068
23798WAT      O71635   4.791   1.538   6.785
23798WAT     H171636   4.771   1.462   6.723
23798WAT     H271637   4.886   1.533   6.815
23799WAT      O71638   3.214   8.428   2.029
23799WAT     H171639   3.261   8.508   1.992
23799WAT     H271640   3.195   8.442   2.126
23800WAT      O71641   2.925   4.845   1.597
23800WAT     H171642   2.982   4.793   1.533
23800WAT     H271643   2.889   4.926   1.551
23801WAT      O71644   6.702   6.121   8.754
23801WAT     H171645   6.671   6.033   8.717
23801WAT     H271646   6.653   6.141   8.839
23802WAT      O71647   2.726   7.379   5.909
23802WAT     H171648   2.759   7.436   5.984
23802WAT     H271649   2.639   7.415   5.876
23803WAT      O71650   1.840   3.877   8.568
23803WAT     H171651   1.858   3.792   8.618
23803WAT     H271652   1.760   3.865   8.510
23804WAT      O71653   7.122   4.266   2.677
23804WAT     H171654   7.132   4.187   2.617
23804WAT     H271655   7.212   4.296   2.707
23805WAT      O71656   4.759   8.812   5.734
23805WAT     H171657   4.844   8.806   5.786
23805WAT     H271658   4.779   8.832   5.639
23806WAT      O71659   3.820   9.682   7.379
23806WAT     H171660   3.845   9.748   7.450
23806WAT     H271661   3.789   9.731   7.298
23807WAT      O71662   7.392   5.492   1.367
23807WAT     H171663   7.374   5.583   1.330
23807WAT     H271664   7.482   5.461   1.336
23808WAT      O71665   5.713   0.585   0.060
23808WAT     H171666   5.757   0.607   0.147
23808WAT     H271667   5.775   0.532   0.003
23809WAT      O71668   2.299   1.709   2.114
23809WAT     H171669   2.339   1.776   2.177
23809WAT     H271670   2.201   1.703   2.129
23810WAT      O71671   1.010   9.025   9.772
23810WAT     H171672   1.028   9.123   9.760
23810WAT     H271673   0.963   8.990   9.692
23811WAT      O71674   3.742   3.128   2.535
23811WAT     H171675   3.705   3.217   2.505
23811WAT     H271676   3.794   3.087   2.461
23812WAT      O71677   0.271   2.347   4.995
23812WAT     H171678   0.355   2.299   4.969
23812WAT     H271679   0.274   2.367   5.093
23813WAT      O71680   1.198   3.086   7.271
23813WAT     H171681   1.246   3.061   7.355
23813WAT     H271682   1.234   3.172   7.236
23814WAT      O71683   1.143   7.992   5.759
23814WAT     H171684   1.232   8.021   5.795
23814WAT     H271685   1.075   8.063   5.774
23815WAT      O71686   7.370   4.853   6.839
23815WAT     H171687   7.356   4.765   6.885
23815WAT     H271688   7.300   4.917   6.870
23816WAT      O71689   3.670   5.812   7.665
23816WAT     H171690   3.638   5.718   7.652
23816WAT     H271691   3.593   5.869   7.696
23817WAT      O71692   9.078   7.899   5.701
23817WAT     H171693   9.030   7.855   5.625
23817WAT     H271694   9.014   7.954   5.754
23818WAT      O71695   8.944   2.019   1.736
23818WAT     H171696   8.951   2.118   1.749
23818WAT     H271697   8.997   1.991   1.656
23819WAT      O71698   3.788   2.024   1.096
23819WAT     H171699   3.741   2.006   1.010
23819WAT     H271700   3.838   1.942   1.124
23820WAT      O71701   7.959   6.360   2.235
23820WAT     H171702   7.927   6.275   2.194
23820WAT     H271703   8.059   6.365   2.227
23821WAT      O71704   0.414   3.829   5.715
23821WAT     H171705   0.346   3.792   5.650
23821WAT     H271706   0.504   3.794   5.692
23822WAT      O71707   9.871   3.849   2.267
23822WAT     H171708   9.853   3.876   2.173
23822WAT     H271709   9.937   3.774   2.268
23823WAT      O71710   6.573   0.192   7.429
23823WAT     H171711   6.513   0.112   7.420
23823WAT     H271712   6.652   0.168   7.485
23824WAT      O71713   2.027   9.815   0.321
23824WAT     H171714   2.027   9.905   0.277
23824WAT     H271715   2.047   9.826   0.418
23825WAT      O71716   4.961   0.551   4.787
23825WAT     H171717   5.053   0.543   4.748
23825WAT     H271718   4.959   0.510   4.878
23826WAT      O71719   6.484   6.601   1.194
23826WAT     H171720   6.519   6.569   1.106
23826WAT     H271721   6.431   6.529   1.237
23827WAT      O71722   6.270   1.295   8.314
23827WAT     H171723   6.297   1.263   8.223
23827WAT     H271724   6.292   1.224   8.382
23828WAT      O71725   0.293   0.147   0.542
23828WAT     H171726   0.331   0.055   0.538
23828WAT     H271727   0.306   0.185   0.633
23829WAT      O71728   3.231   8.248   6.930
23829WAT     H171729   3.326   8.243   6.898
23829WAT     H271730   3.223   8.202   7.018
23830WAT      O71731   4.180   4.640   6.238
23830WAT     H171732   4.135   4.649   6.326
23830WAT     H271733   4.267   4.591   6.250
23831WAT      O71734   8.658   2.865   6.773
23831WAT     H171735   8.719   2.788   6.791
23831WAT     H271736   8.589   2.838   6.705
23832WAT      O71737   1.862   8.784   1.547
23832WAT     H171738   1.933   8.743   1.604
23832WAT     H271739   1.905   8.836   1.473
23833WAT      O71740   4.435   5.879   3.574
23833WAT     H171741   4.426   5.800   3.636
23833WAT     H271742   4.502   5.857   3.503
23834WAT      O71743   6.044   2.645   8.094
23834WAT     H171744   6.030   2.638   8.193
23834WAT     H271745   6.140   2.627   8.072
23835WAT      O71746   4.541   3.386   7.359
23835WAT     H171747   4.636   3.381   7.389
23835WAT     H271748   4.522   3.479   7.326
23836WAT      O71749   1.111   0.416   9.008
23836WAT     H171750   1.102   0.490   8.941
23836WAT     H271751   1.063   0.335   8.974
23837WAT      O71752   1.121   5.525   8.479
23837WAT     H171753   1.075   5.537   8.391
23837WAT     H271754   1.147   5.430   8.490
23838WAT      O71755   1.880   6.051   1.208
23838WAT     H171756   1.862   6.062   1.306
23838WAT     H271757   1.878   6.141   1.163
23839WAT      O71758   0.526   5.438   2.116
23839WAT     H171759   0.588   5.487   2.179
23839WAT     H271760   0.579   5.377   2.058
23840WAT      O71761   7.314   2.124   9.444
23840WAT     H171762   7.249   2.053   9.420
23840WAT     H271763   7.390   2.124   9.378
23841WAT      O71764   2.565   0.114   2.414
23841WAT     H171765   2.662   0.090   2.408
23841WAT     H271766   2.547   0.196   2.361
23842WAT      O71767   0.400   0.495   2.577
23842WAT     H171768   0.394   0.449   2.666
23842WAT     H271769   0.329   0.565   2.572
23843WAT      O71770   9.643   6.398   9.045
23843WAT     H171771   9.614   6.303   9.059
23843WAT     H271772   9.709   6.423   9.115
23844WAT      O71773   6.113   0.069   7.804
23844WAT     H171774   6.174   0.013   7.748
23844WAT     H271775   6.027   0.084   7.755
23845WAT      O71776   6.626   9.055   2.102
23845WAT     H171777   6.558   9.127   2.089
23845WAT     H271778   6.710   9.095   2.139
23846WAT      O71779   8.112   7.244   3.016
23846WAT     H171780   8.130   7.339   3.042
23846WAT     H271781   8.026   7.240   2.966
23847WAT      O71782   1.283   6.980   7.339
23847WAT     H171783   1.204   6.969   7.278
23847WAT     H271784   1.305   6.892   7.381
23848WAT      O71785   7.800   7.143   8.463
23848WAT     H171786   7.889   7.114   8.497
23848WAT     H271787   7.797   7.243   8.456
23849WAT      O71788   1.206   3.940   8.079
23849WAT     H171789   1.256   3.933   8.165
23849WAT     H271790   1.163   3.853   8.058
23850WAT      O71791   6.877   2.478   7.549
23850WAT     H171792   6.832   2.389   7.558
23850WAT     H271793   6.937   2.493   7.628
23851WAT      O71794   3.041   2.535   3.429
23851WAT     H171795   3.050   2.439   3.456
23851WAT     H271796   3.037   2.592   3.511
23852WAT      O71797   9.623   1.164   4.113
23852WAT     H171798   9.584   1.135   4.025
23852WAT     H271799   9.551   1.198   4.172
23853WAT      O71800   6.704   1.349   7.377
23853WAT     H171801   6.628   1.408   7.401
23853WAT     H271802   6.680   1.293   7.297
23854WAT      O71803   9.850   5.199   6.863
23854WAT     H171804   9.754   5.221   6.879
23854WAT     H271805   9.901   5.205   6.949
23855WAT      O71806   3.459   2.296   1.548
23855WAT     H171807   3.376   2.243   1.563
23855WAT     H271808   3.538   2.236   1.549
23856WAT      O71809   3.780   5.433   7.313
23856WAT     H171810   3.778   5.333   7.314
23856WAT     H271811   3.797   5.466   7.406
23857WAT      O71812   6.351   1.832   6.872
23857WAT     H171813   6.410   1.824   6.791
23857WAT     H271814   6.408   1.828   6.955
23858WAT      O71815   3.224   5.306   5.149
23858WAT     H171816   3.188   5.398   5.158
23858WAT     H271817   3.188   5.249   5.224
23859WAT      O71818   3.343   3.576   5.333
23859WAT     H171819   3.390   3.541   5.414
23859WAT     H271820   3.284   3.652   5.359
23860WAT      O71821   3.690   5.753   1.666
23860WAT     H171822   3.696   5.849   1.695
23860WAT     H271823   3.607   5.712   1.705
23861WAT      O71824   8.641   5.251   8.346
23861WAT     H171825   8.685   5.173   8.300
23861WAT     H271826   8.544   5.252   8.326
23862WAT      O71827   0.491   7.275   8.752
23862WAT     H171828   0.544   7.276   8.667
23862WAT     H271829   0.550   7.246   8.828
23863WAT      O71830   4.913   9.003   9.591
23863WAT     H171831   4.907   8.967   9.684
23863WAT     H271832   5.009   9.003   9.562
23864WAT      O71833   3.861   8.833   4.991
23864WAT     H171834   3.917   8.792   5.063
23864WAT     H271835   3.905   8.916   4.958
23865WAT      O71836   5.439   8.898   1.334
23865WAT     H171837   5.416   8.805   1.307
23865WAT     H271838   5.529   8.900   1.378
23866WAT      O71839   1.470   9.415   9.857
23866WAT     H171840   1.543   9.481   9.869
23866WAT     H271841   1.505   9.335   9.809
23867WAT      O71842   2.278   6.499   2.325
23867WAT     H171843   2.293   6.403   2.300
23867WAT     H271844   2.189   6.530   2.291
23868WAT      O71845   6.499   6.386   2.677
23868WAT     H171846   6.464   6.325   2.607
23868WAT     H271847   6.538   6.332   2.752
23869WAT      O71848   0.304   1.352   7.323
23869WAT     H171849   0.391   1.396   7.348
23869WAT     H271850   0.231   1.420   7.329
23870WAT      O71851   3.409   5.998   2.530
23870WAT     H171852   3.341   6.044   2.587
23870WAT     H271853   3.409   6.038   2.438
23871WAT      O71854   3.710   4.402   1.934
23871WAT     H171855   3.678   4.432   1.844
23871WAT     H271856   3.651   4.441   2.005
23872WAT      O71857   5.961   0.629   6.555
23872WAT     H171858   5.941   0.715   6.604
23872WAT     H271859   5.902   0.623   6.475
23873WAT      O71860   7.031   0.495   8.520
23873WAT     H171861   6.945   0.447   8.504
23873WAT     H271862   7.063   0.477   8.613
23874WAT      O71863   5.539   0.358   8.064
23874WAT     H171864   5.496   0.439   8.105
23874WAT     H271865   5.469   0.288   8.050
23875WAT      O71866   1.049   3.836   2.121
23875WAT     H171867   1.085   3.848   2.214
23875WAT     H271868   1.051   3.924   2.073
23876WAT      O71869   5.548   1.809   9.858
23876WAT     H171870   5.634   1.825   9.908
23876WAT     H271871   5.530   1.887   9.798
23877WAT      O71872   4.273   6.401   3.269
23877WAT     H171873   4.307   6.419   3.177
23877WAT     H271874   4.174   6.385   3.267
23878WAT      O71875   6.832   9.151   3.977
23878WAT     H171876   6.931   9.133   3.976
23878WAT     H271877   6.782   9.065   3.971
23879WAT      O71878   5.306   7.589   4.251
23879WAT     H171879   5.354   7.614   4.167
23879WAT     H271880   5.291   7.490   4.252
23880WAT      O71881   8.772   6.318   4.593
23880WAT     H171882   8.836   6.344   4.666
23880WAT     H271883   8.687   6.285   4.633
23881WAT      O71884   7.586   4.431   0.417
23881WAT     H171885   7.495   4.401   0.446
23881WAT     H271886   7.612   4.382   0.334
23882WAT      O71887   7.660   0.697   7.123
23882WAT     H171888   7.758   0.708   7.103
23882WAT     H271889   7.635   0.601   7.113
23883WAT      O71890   9.291   3.588   9.568
23883WAT     H171891   9.203   3.542   9.558
23883WAT     H271892   9.276   3.685   9.587
23884WAT      O71893   3.232   5.008   4.801
23884WAT     H171894   3.238   4.909   4.790
23884WAT     H271895   3.159   5.030   4.865
23885WAT      O71896   6.566   2.284   8.492
23885WAT     H171897   6.542   2.195   8.531
23885WAT     H271898   6.627   2.270   8.414
23886WAT      O71899   2.759   4.167   0.591
23886WAT     H171900   2.849   4.125   0.580
23886WAT     H271901   2.768   4.266   0.591
23887WAT      O71902   2.788   9.428   5.805
23887WAT     H171903   2.806   9.410   5.902
23887WAT     H271904   2.818   9.350   5.750
23888WAT      O71905   5.078   1.977   1.894
23888WAT     H171906   5.143   1.976   1.818
23888WAT     H271907   4.990   1.941   1.863
23889WAT      O71908   1.791   1.518   7.727
23889WAT     H171909   1.848   1.478   7.655
23889WAT     H271910   1.850   1.561   7.796
23890WAT      O71911   8.221   4.972   6.305
23890WAT     H171912   8.194   4.965   6.209
23890WAT     H271913   8.318   4.949   6.315
23891WAT      O71914   9.145   3.673   1.504
23891WAT     H171915   9.189   3.647   1.590
23891WAT     H271916   9.057   3.715   1.523
23892WAT      O71917   0.917   1.318   5.000
23892WAT     H171918   0.830   1.270   5.015
23892WAT     H271919   0.934   1.326   4.902
23893WAT      O71920   5.376   9.510   4.747
23893WAT     H171921   5.460   9.514   4.692
23893WAT     H271922   5.376   9.426   4.801
23894WAT      O71923   1.668   3.923   7.006
23894WAT     H171924   1.634   3.939   6.913
23894WAT     H271925   1.756   3.877   7.001
23895WAT      O71926   8.794   8.120   7.938
23895WAT     H171927   8.772   8.028   7.906
23895WAT     H271928   8.819   8.177   7.860
23896WAT      O71929   0.600   5.965   3.115
23896WAT     H171930   0.693   5.963   3.154
23896WAT     H271931   0.543   6.028   3.167
23897WAT      O71932   6.412   5.827   3.336
23897WAT     H171933   6.322   5.785   3.348
23897WAT     H271934   6.482   5.756   3.343
23898WAT      O71935   0.216   7.621   7.569
23898WAT     H171936   0.154   7.661   7.501
23898WAT     H271937   0.278   7.557   7.524
23899WAT      O71938   3.576   9.311   5.449
23899WAT     H171939   3.532   9.251   5.382
23899WAT     H271940   3.515   9.322   5.528
23900WAT      O71941   4.275   7.247   2.675
23900WAT     H171942   4.323   7.225   2.760
23900WAT     H271943   4.236   7.163   2.636
23901WAT      O71944   0.636   9.346   7.156
23901WAT     H171945   0.649   9.326   7.059
23901WAT     H271946   0.725   9.345   7.202
23902WAT      O71947   2.159   4.682   6.692
23902WAT     H171948   2.201   4.720   6.774
23902WAT     H271949   2.213   4.605   6.658
23903WAT      O71950   0.053   7.008   8.247
23903WAT     H171951   0.107   6.948   8.307
23903WAT     H271952   0.070   6.983   8.151
23904WAT      O71953   5.220   6.934   2.331
23904WAT     H171954   5.312   6.946   2.368
23904WAT     H271955   5.199   7.009   2.269
23905WAT      O71956   5.003   4.291   0.140
23905WAT     H171957   5.009   4.201   0.181
23905WAT     H271958   5.086   4.343   0.161
23906WAT      O71959   4.326   0.868   2.464
23906WAT     H171960   4.321   0.814   2.548
23906WAT     H271961   4.411   0.845   2.416
23907WAT      O71962   3.483   9.419   4.221
23907WAT     H171963   3.570   9.463   4.200
23907WAT     H271964   3.476   9.334   4.168
23908WAT      O71965   5.016   8.817   5.269
23908WAT     H171966   5.093   8.787   5.212
23908WAT     H271967   4.930   8.801   5.220
23909WAT      O71968   8.352   5.624   3.374
23909WAT     H171969   8.332   5.619   3.471
23909WAT     H271970   8.270   5.600   3.322
23910WAT      O71971   4.360   8.004   4.486
23910WAT     H171972   4.424   8.071   4.450
23910WAT     H271973   4.405   7.916   4.498
23911WAT      O71974   8.509   0.369   3.647
23911WAT     H171975   8.576   0.353   3.720
23911WAT     H271976   8.535   0.451   3.595
23912WAT      O71977   9.271   1.979   3.824
23912WAT     H171978   9.239   1.901   3.770
23912WAT     H271979   9.274   1.954   3.921
23913WAT      O71980   9.374   9.738   0.296
23913WAT     H171981   9.355   9.824   0.249
23913WAT     H271982   9.434   9.682   0.239
23914WAT      O71983   0.952   8.715   7.982
23914WAT     H171984   0.998   8.627   7.965
23914WAT     H271985   0.902   8.742   7.900
23915WAT      O71986   5.161   5.127   7.141
23915WAT     H171987   5.183   5.142   7.237
23915WAT     H271988   5.204   5.198   7.085
23916WAT      O71989   0.184   9.734   1.103
23916WAT     H171990   0.137   9.781   1.028
23916WAT     H271991   0.184   9.636   1.086
23917WAT      O71992   7.387   4.186   6.854
23917WAT     H171993   7.458   4.148   6.914
23917WAT     H271994   7.318   4.233   6.910
23918WAT      O71995   1.310   2.767   0.677
23918WAT     H171996   1.242   2.815   0.621
23918WAT     H271997   1.288   2.670   0.681
23919WAT      O71998   8.014   8.850   7.923
23919WAT     H171999   8.087   8.918   7.934
23919WAT     H272000   7.928   8.896   7.901
23920WAT      O72001   3.742   4.061   2.184
23920WAT     H172002   3.827   4.043   2.233
23920WAT     H272003   3.726   4.160   2.181
23921WAT      O72004   2.953   9.630   0.741
23921WAT     H172005   2.872   9.687   0.725
23921WAT     H272006   2.926   9.534   0.741
23922WAT      O72007   2.110   9.355   1.685
23922WAT     H172008   2.095   9.275   1.744
23922WAT     H272009   2.178   9.333   1.616
23923WAT      O72010   6.354   9.684   0.683
23923WAT     H172011   6.419   9.694   0.758
23923WAT     H272012   6.348   9.770   0.632
23924WAT      O72013   4.719   6.871   6.689
23924WAT     H172014   4.803   6.920   6.665
23924WAT     H272015   4.695   6.808   6.615
23925WAT      O72016   6.214   1.396   3.044
23925WAT     H172017   6.171   1.313   3.080
23925WAT     H272018   6.272   1.437   3.115
23926WAT      O72019   5.401   7.508   0.490
23926WAT     H172020   5.343   7.458   0.425
23926WAT     H272021   5.345   7.573   0.541
23927WAT      O72022   6.576   6.044   6.120
23927WAT     H172023   6.574   6.058   6.021
23927WAT     H272024   6.671   6.045   6.151
23928WAT      O72025   5.824   1.979   4.987
23928WAT     H172026   5.799   2.074   4.971
23928WAT     H272027   5.840   1.933   4.899
23929WAT      O72028   3.751   8.421   4.737
23929WAT     H172029   3.766   8.431   4.836
23929WAT     H272030   3.706   8.333   4.719
23930WAT      O72031   6.644   3.758   5.029
23930WAT     H172032   6.622   3.673   4.982
23930WAT     H272033   6.703   3.739   5.107
23931WAT      O72034   3.685   6.515   8.192
23931WAT     H172035   3.736   6.447   8.244
23931WAT     H272036   3.635   6.575   8.254
23932WAT      O72037   3.935   9.081   4.576
23932WAT     H172038   3.959   9.177   4.561
23932WAT     H272039   4.006   9.036   4.631
23933WAT      O72040   4.192   7.863   3.125
23933WAT     H172041   4.215   7.957   3.100
23933WAT     H272042   4.183   7.857   3.225
23934WAT      O72043   3.161   2.596   6.976
23934WAT     H172044   3.119   2.540   6.904
23934WAT     H272045   3.094   2.663   7.009
23935WAT      O72046   4.857   4.033   7.139
23935WAT     H172047   4.900   4.056   7.052
23935WAT     H272048   4.758   4.046   7.131
23936WAT      O72049   4.038   3.636   4.263
23936WAT     H172050   4.022   3.647   4.362
23936WAT     H272051   4.093   3.554   4.247
23937WAT      O72052   0.882   5.152   6.582
23937WAT     H172053   0.895   5.251   6.581
23937WAT     H272054   0.809   5.129   6.647
23938WAT      O72055   4.748   8.568   5.524
23938WAT     H172056   4.810   8.531   5.454
23938WAT     H272057   4.764   8.666   5.533
23939WAT      O72058   1.290   0.920   6.910
23939WAT     H172059   1.297   0.902   7.008
23939WAT     H272060   1.376   0.959   6.877
23940WAT      O72061   5.962   3.472   7.734
23940WAT     H172062   6.000   3.564   7.736
23940WAT     H272063   6.030   3.407   7.768
23941WAT      O72064   4.768   0.954   8.202
23941WAT     H172065   4.763   0.856   8.223
23941WAT     H272066   4.799   1.004   8.284
23942WAT      O72067   9.847   6.430   7.937
23942WAT     H172068   9.849   6.477   8.025
23942WAT     H272069   9.929   6.372   7.928
23943WAT      O72070   9.368   0.179   4.547
23943WAT     H172071   9.371   0.080   4.563
23943WAT     H272072   9.400   0.227   4.629
23944WAT      O72073   4.830   9.419   0.786
23944WAT     H172074   4.915   9.391   0.829
23944WAT     H272075   4.805   9.353   0.715
23945WAT      O72076   1.450   6.908   0.497
23945WAT     H172077   1.403   6.988   0.460
23945WAT     H272078   1.394   6.867   0.569
23946WAT      O72079   5.451   4.490   9.094
23946WAT     H172080   5.441   4.442   9.182
23946WAT     H272081   5.537   4.465   9.051
23947WAT      O72082   0.891   8.465   9.651
23947WAT     H172083   0.863   8.379   9.607
23947WAT     H272084   0.817   8.498   9.709
23948WAT      O72085   0.754   3.664   6.508
23948WAT     H172086   0.819   3.733   6.540
23948WAT     H272087   0.796   3.574   6.514
23949WAT      O72088   8.328   7.337   4.893
23949WAT     H172089   8.365   7.244   4.889
23949WAT     H272090   8.360   7.389   4.814
23950WAT      O72091   2.870   2.000   1.335
23950WAT     H172092   2.906   2.030   1.247
23950WAT     H272093   2.816   2.074   1.376
23951WAT      O72094   8.771   4.388   5.274
23951WAT     H172095   8.722   4.323   5.217
23951WAT     H272096   8.851   4.344   5.315
23952WAT      O72097   2.332   7.480   5.156
23952WAT     H172098   2.406   7.429   5.199
23952WAT     H272099   2.297   7.548   5.220
23953WAT      O72100   5.005   0.628   2.348
23953WAT     H172101   4.924   0.665   2.395
23953WAT     H272102   5.058   0.704   2.310
23954WAT      O72103   4.657   5.792   3.070
23954WAT     H172104   4.609   5.874   3.103
23954WAT     H272105   4.756   5.805   3.081
23955WAT      O72106   1.665   1.215   3.581
23955WAT     H172107   1.604   1.238   3.657
23955WAT     H272108   1.735   1.286   3.573
23956WAT      O72109   5.088   9.565   4.364
23956WAT     H172110   5.104   9.554   4.462
23956WAT     H272111   5.032   9.646   4.349
23957WAT      O72112   1.394   6.172   8.135
23957WAT     H172113   1.485   6.209   8.118
23957WAT     H272114   1.401   6.079   8.171
23958WAT      O72115   6.923   4.259   0.238
23958WAT     H172116   6.956   4.348   0.270
23958WAT     H272117   6.827   4.266   0.212
23959WAT      O72118   8.606   8.157   2.009
23959WAT     H172119   8.666   8.153   2.089
23959WAT     H272120   8.638   8.093   1.940
23960WAT      O72121   3.750   0.587   2.923
23960WAT     H172122   3.792   0.581   2.833
23960WAT     H272123   3.795   0.659   2.976
23961WAT      O72124   0.119   0.536   8.521
23961WAT     H172125   0.044   0.594   8.554
23961WAT     H272126   0.154   0.482   8.597
23962WAT      O72127   5.239   1.911   1.216
23962WAT     H172128   5.212   1.818   1.239
23962WAT     H272129   5.281   1.913   1.125
23963WAT      O72130   4.061   2.673   9.266
23963WAT     H172131   4.044   2.612   9.343
23963WAT     H272132   4.040   2.767   9.292
23964WAT      O72133   9.062   0.941   8.873
23964WAT     H172134   9.002   0.871   8.913
23964WAT     H272135   9.117   0.983   8.946
23965WAT      O72136   6.185   0.617   4.612
23965WAT     H172137   6.132   0.557   4.672
23965WAT     H272138   6.249   0.563   4.559
23966WAT      O72139   2.479   6.889   9.121
23966WAT     H172140   2.511   6.861   9.030
23966WAT     H272141   2.382   6.911   9.116
23967WAT      O72142   1.195   0.018   0.117
23967WAT     H172143   1.231  -0.061   0.067
23967WAT     H272144   1.103  -0.002   0.150
23968WAT      O72145   6.576   0.354   9.616
23968WAT     H172146   6.610   0.297   9.691
23968WAT     H272147   6.476   0.353   9.617
23969WAT      O72148   7.329   8.356   8.345
23969WAT     H172149   7.412   8.403   8.313
23969WAT     H272150   7.269   8.338   8.268
23970WAT      O72151   6.271   0.140   2.508
23970WAT     H172152   6.222   0.178   2.430
23970WAT     H272153   6.338   0.073   2.475
23971WAT      O72154   4.942   0.233   8.325
23971WAT     H172155   4.921   0.175   8.404
23971WAT     H272156   5.010   0.301   8.351
23972WAT      O72157   4.579   4.738   4.116
23972WAT     H172158   4.490   4.780   4.131
23972WAT     H272159   4.581   4.694   4.026
23973WAT      O72160   5.420   1.099   0.573
23973WAT     H172161   5.333   1.147   0.585
23973WAT     H272162   5.453   1.068   0.662
23974WAT      O72163   5.391   8.029   0.808
23974WAT     H172164   5.345   7.944   0.831
23974WAT     H272165   5.443   8.061   0.887
23975WAT      O72166   0.034   8.402   8.638
23975WAT     H172167  -0.052   8.443   8.608
23975WAT     H272168   0.059   8.439   8.728
23976WAT      O72169   5.694   4.413   5.907
23976WAT     H172170   5.721   4.502   5.872
23976WAT     H272171   5.683   4.418   6.007
23977WAT      O72172   3.222   6.474   9.318
23977WAT     H172173   3.253   6.565   9.289
23977WAT     H272174   3.299   6.410   9.315
23978WAT      O72175   1.138   9.782   8.773
23978WAT     H172176   1.153   9.756   8.869
23978WAT     H272177   1.041   9.772   8.751
23979WAT      O72178   4.890   1.194   6.552
23979WAT     H172179   4.821   1.266   6.566
23979WAT     H272180   4.844   1.108   6.528
23980WAT      O72181   0.186   4.900   2.989
23980WAT     H172182   0.200   4.910   3.087
23980WAT     H272183   0.101   4.947   2.962
23981WAT      O72184   5.410   1.969   4.408
23981WAT     H172185   5.448   2.000   4.495
23981WAT     H272186   5.466   1.895   4.371
23982WAT      O72187   9.814   3.646   9.481
23982WAT     H172188   9.783   3.558   9.516
23982WAT     H272189   9.911   3.659   9.501
23983WAT      O72190   1.222   8.577   5.879
23983WAT     H172191   1.214   8.592   5.781
23983WAT     H272192   1.314   8.603   5.909
23984WAT      O72193   0.344   7.535   2.876
23984WAT     H172194   0.431   7.578   2.899
23984WAT     H272195   0.276   7.607   2.860
23985WAT      O72196   5.536   8.080   1.031
23985WAT     H172197   5.598   8.157   1.018
23985WAT     H272198   5.490   8.089   1.120
23986WAT      O72199   8.638   3.731   8.578
23986WAT     H172200   8.580   3.758   8.655
23986WAT     H272201   8.629   3.633   8.562
23987WAT      O72202   2.920   8.253   0.024
23987WAT     H172203   2.901   8.286  -0.068
23987WAT     H272204   2.985   8.315   0.070
23988WAT      O72205   0.184   1.468   7.692
23988WAT     H172206   0.124   1.388   7.702
23988WAT     H272207   0.128   1.552   7.693
23989WAT      O72208   1.610   3.460   9.659
23989WAT     H172209   1.699   3.429   9.693
23989WAT     H272210   1.622   3.545   9.608
23990WAT      O72211   1.720   3.301   6.742
23990WAT     H172212   1.685   3.237   6.811
23990WAT     H272213   1.813   3.328   6.765
23991WAT      O72214   3.766   6.304   8.345
23991WAT     H172215   3.708   6.234   8.384
23991WAT     H272216   3.810   6.269   8.262
23992WAT      O72217   5.475   7.659   9.378
23992WAT     H172218   5.563   7.698   9.352
23992WAT     H272219   5.425   7.630   9.296
23993WAT      O72220   8.586   7.563   4.706
23993WAT     H172221   8.621   7.649   4.667
23993WAT     H272222   8.514   7.583   4.771
23994WAT      O72223   6.215   9.765   4.155
23994WAT     H172224   6.311   9.787   4.141
23994WAT     H272225   6.185   9.801   4.244
23995WAT      O72226   0.455   1.937   5.355
23995WAT     H172227   0.472   1.941   5.257
23995WAT     H272228   0.440   1.842   5.383
23996WAT      O72229   3.498   9.513   2.007
23996WAT     H172230   3.581   9.569   2.001
23996WAT     H272231   3.420   9.568   1.978
23997WAT      O72232   0.634   6.785   1.228
23997WAT     H172233   0.606   6.716   1.161
23997WAT     H272234   0.668   6.866   1.180
23998WAT      O72235   6.837   5.862   2.863
23998WAT     H172236   6.809   5.888   2.955
23998WAT     H272237   6.928   5.897   2.844
23999WAT      O72238   8.041   8.184   3.229
23999WAT     H172239   8.005   8.275   3.247
23999WAT     H272240   8.027   8.161   3.133
24000WAT      O72241   2.346   5.505   3.394
24000WAT     H172242   2.294   5.502   3.309
24000WAT     H272243   2.360   5.600   3.422
24001WAT      O72244   6.741   2.530   1.319
24001WAT     H172245   6.706   2.618   1.287
24001WAT     H272246   6.745   2.465   1.242
24002WAT      O72247   0.556   4.987   1.252
24002WAT     H172248   0.649   4.951   1.250
24002WAT     H272249   0.536   5.032   1.165
24003WAT      O72250   1.985   4.461   8.038
24003WAT     H172251   2.072   4.414   8.021
24003WAT     H272252   1.921   4.441   7.964
24004WAT      O72253   2.104   6.556   8.964
24004WAT     H172254   2.095   6.654   8.942
24004WAT     H272255   2.195   6.525   8.937
24005WAT      O72256   2.032   3.816   2.928
24005WAT     H172257   2.033   3.900   2.875
24005WAT     H272258   2.125   3.791   2.953
24006WAT      O72259   4.115   3.405   5.423
24006WAT     H172260   4.191   3.346   5.393
24006WAT     H272261   4.082   3.374   5.512
24007WAT      O72262   0.410   4.329   9.172
24007WAT     H172263   0.334   4.270   9.146
24007WAT     H272264   0.388   4.424   9.149
24008WAT      O72265   4.382   2.404   4.063
24008WAT     H172266   4.414   2.402   3.968
24008WAT     H272267   4.423   2.483   4.110
24009WAT      O72268   3.140   1.275   5.211
24009WAT     H172269   3.192   1.318   5.285
24009WAT     H272270   3.117   1.181   5.237
24010WAT      O72271   4.062   3.787   6.659
24010WAT     H172272   4.039   3.732   6.579
24010WAT     H272273   4.129   3.738   6.715
24011WAT      O72274   8.628   0.311   9.572
24011WAT     H172275   8.702   0.376   9.591
24011WAT     H272276   8.667   0.222   9.552
24012WAT      O72277   4.037   3.018   5.350
24012WAT     H172278   3.959   3.073   5.378
24012WAT     H272279   4.118   3.047   5.401
24013WAT      O72280   2.906   6.568   2.684
24013WAT     H172281   2.966   6.492   2.711
24013WAT     H272282   2.955   6.655   2.696
24014WAT      O72283   9.454   5.723   1.122
24014WAT     H172284   9.420   5.809   1.083
24014WAT     H272285   9.512   5.677   1.055
24015WAT      O72286   0.847   9.671   2.371
24015WAT     H172287   0.921   9.710   2.316
24015WAT     H272288   0.831   9.729   2.451
24016WAT      O72289   3.128   9.252   9.265
24016WAT     H172290   3.093   9.172   9.217
24016WAT     H272291   3.133   9.233   9.363
24017WAT      O72292   4.996   1.259   0.065
24017WAT     H172293   5.081   1.213   0.040
24017WAT     H272294   4.941   1.275  -0.017
24018WAT      O72295   6.968   8.513   0.106
24018WAT     H172296   6.947   8.605   0.139
24018WAT     H272297   6.904   8.487   0.035
24019WAT      O72298   0.675   4.114   5.186
24019WAT     H172299   0.600   4.107   5.251
24019WAT     H272300   0.731   4.194   5.207
24020WAT      O72301   7.664   5.694   3.193
24020WAT     H172302   7.645   5.742   3.107
24020WAT     H272303   7.698   5.602   3.174
24021WAT      O72304   1.392   6.027   9.101
24021WAT     H172305   1.464   6.091   9.077
24021WAT     H272306   1.318   6.076   9.147
24022WAT      O72307   4.211   5.507   6.724
24022WAT     H172308   4.262   5.585   6.761
24022WAT     H272309   4.208   5.514   6.624
24023WAT      O72310   5.604   2.151   6.398
24023WAT     H172311   5.616   2.246   6.427
24023WAT     H272312   5.548   2.148   6.315
24024WAT      O72313   0.689   2.548   8.600
24024WAT     H172314   0.670   2.646   8.607
24024WAT     H272315   0.788   2.534   8.592
24025WAT      O72316   4.612   5.512   4.578
24025WAT     H172317   4.673   5.558   4.514
24025WAT     H272318   4.520   5.507   4.539
24026WAT      O72319   3.523   5.575   3.804
24026WAT     H172320   3.567   5.632   3.735
24026WAT     H272321   3.428   5.559   3.777
24027WAT      O72322   8.208   2.178   7.690
24027WAT     H172323   8.299   2.218   7.700
24027WAT     H272324   8.153   2.235   7.629
24028WAT      O72325   0.854   8.895   9.081
24028WAT     H172326   0.828   8.878   8.986
24028WAT     H272327   0.920   8.826   9.110
24029WAT      O72328   8.620   1.013   0.397
24029WAT     H172329   8.674   0.944   0.349
24029WAT     H272330   8.626   1.100   0.348
24030WAT      O72331   1.968   3.673   7.953
24030WAT     H172332   1.895   3.682   7.886
24030WAT     H272333   2.049   3.635   7.910
24031WAT      O72334   0.562   8.152   5.183
24031WAT     H172335   0.571   8.213   5.104
24031WAT     H272336   0.467   8.155   5.216
24032WAT      O72337   6.654   3.888   2.034
24032WAT     H172338   6.727   3.877   2.102
24032WAT     H272339   6.675   3.833   1.954
24033WAT      O72340   7.933   6.632   4.339
24033WAT     H172341   7.928   6.532   4.338
24033WAT     H272342   7.845   6.670   4.310
24034WAT      O72343   9.798   7.919   4.908
24034WAT     H172344   9.728   7.983   4.877
24034WAT     H272345   9.791   7.834   4.855
24035WAT      O72346   8.400   3.649   9.117
24035WAT     H172347   8.368   3.727   9.171
24035WAT     H272348   8.496   3.663   9.093
24036WAT      O72349   6.531   8.134   2.207
24036WAT     H172350   6.509   8.134   2.305
24036WAT     H272351   6.564   8.224   2.180
24037WAT      O72352   8.723   0.322   3.819
24037WAT     H172353   8.822   0.315   3.806
24037WAT     H272354   8.702   0.319   3.916
24038WAT      O72355   8.019   6.450   5.268
24038WAT     H172356   8.046   6.370   5.215
24038WAT     H272357   8.044   6.533   5.219
24039WAT      O72358   2.546   4.964   0.400
24039WAT     H172359   2.451   4.958   0.429
24039WAT     H272360   2.604   4.921   0.470
24040WAT      O72361   6.812   6.377   1.465
24040WAT     H172362   6.747   6.329   1.524
24040WAT     H272363   6.786   6.473   1.458
24041WAT      O72364   4.477   7.807   9.727
24041WAT     H172365   4.462   7.759   9.814
24041WAT     H272366   4.485   7.741   9.653
24042WAT      O72367   3.030   5.809   4.756
24042WAT     H172368   3.007   5.740   4.688
24042WAT     H272369   2.982   5.788   4.842
24043WAT      O72370   0.881   2.206   5.270
24043WAT     H172371   0.929   2.120   5.283
24043WAT     H272372   0.785   2.195   5.293
24044WAT      O72373   2.348   0.228   1.541
24044WAT     H172374   2.447   0.211   1.543
24044WAT     H272375   2.303   0.157   1.487
24045WAT      O72376   5.868   6.142   7.087
24045WAT     H172377   5.852   6.237   7.116
24045WAT     H272378   5.874   6.084   7.168
24046WAT      O72379   6.793   7.456   7.979
24046WAT     H172380   6.728   7.489   7.911
24046WAT     H272381   6.882   7.441   7.935
24047WAT      O72382   0.532   1.059   7.121
24047WAT     H172383   0.547   1.101   7.211
24047WAT     H272384   0.464   0.986   7.129
24048WAT      O72385   6.696   4.481   4.987
24048WAT     H172386   6.605   4.478   5.027
24048WAT     H272387   6.764   4.475   5.059
24049WAT      O72388   2.674   8.550   0.599
24049WAT     H172389   2.592   8.494   0.584
24049WAT     H272390   2.714   8.574   0.511
24050WAT      O72391   7.227   7.026   4.285
24050WAT     H172392   7.197   7.092   4.354
24050WAT     H272393   7.281   7.074   4.215
24051WAT      O72394   9.103   1.918   1.534
24051WAT     H172395   9.161   1.898   1.455
24051WAT     H272396   9.113   1.845   1.602
24052WAT      O72397   9.254   5.989   0.564
24052WAT     H172398   9.218   6.068   0.516
24052WAT     H272399   9.196   5.910   0.547
24053WAT      O72400   5.970   7.963   2.553
24053WAT     H172401   5.885   7.928   2.513
24053WAT     H272402   6.042   7.965   2.484
24054WAT      O72403   2.477   1.057   1.232
24054WAT     H172404   2.472   0.977   1.172
24054WAT     H272405   2.478   1.141   1.177
24055WAT      O72406   0.240   1.160   0.369
24055WAT     H172407   0.200   1.251   0.355
24055WAT     H272408   0.339   1.165   0.353
24056WAT      O72409   1.459   3.664   3.271
24056WAT     H172410   1.451   3.592   3.340
24056WAT     H272411   1.509   3.741   3.310
24057WAT      O72412   9.002   8.977   1.291
24057WAT     H172413   9.080   8.922   1.319
24057WAT     H272414   8.957   8.935   1.212
24058WAT      O72415   3.471   6.888   1.388
24058WAT     H172416   3.533   6.951   1.342
24058WAT     H272417   3.392   6.939   1.422
24059WAT      O72418   8.121   6.801   9.733
24059WAT     H172419   8.130   6.706   9.701
24059WAT     H272420   8.201   6.853   9.704
24060WAT      O72421   8.992   2.988   1.273
24060WAT     H172422   9.010   3.049   1.196
24060WAT     H272423   8.984   3.042   1.357
24061WAT      O72424   5.378   0.720   4.215
24061WAT     H172425   5.431   0.641   4.247
24061WAT     H272426   5.341   0.770   4.293
24062WAT      O72427   8.283   9.510   2.062
24062WAT     H172428   8.198   9.508   2.114
24062WAT     H272429   8.272   9.570   1.982
24063WAT      O72430   1.623   7.953   1.720
24063WAT     H172431   1.616   7.854   1.730
24063WAT     H272432   1.547   7.997   1.769
24064WAT      O72433   4.168   4.304   3.959
24064WAT     H172434   4.102   4.233   3.983
24064WAT     H272435   4.207   4.284   3.869
24065WAT      O72436   3.040   2.025   5.490
24065WAT     H172437   3.045   1.981   5.400
24065WAT     H272438   3.080   2.116   5.485
24066WAT      O72439   3.278   3.556   7.843
24066WAT     H172440   3.278   3.550   7.744
24066WAT     H272441   3.189   3.586   7.875
24067WAT      O72442   1.248   6.721   8.534
24067WAT     H172443   1.224   6.703   8.629
24067WAT     H272444   1.197   6.658   8.475
24068WAT      O72445   9.605   2.823   5.155
24068WAT     H172446   9.542   2.822   5.077
24068WAT     H272447   9.699   2.817   5.122
24069WAT      O72448   9.161   7.695   5.129
24069WAT     H172449   9.143   7.692   5.228
24069WAT     H272450   9.208   7.780   5.107
24070WAT      O72451   2.354   0.656   1.333
24070WAT     H172452   2.277   0.596   1.355
24070WAT     H272453   2.435   0.627   1.384
24071WAT      O72454   4.756   5.035   0.782
24071WAT     H172455   4.761   4.980   0.865
24071WAT     H272456   4.662   5.067   0.768
24072WAT      O72457   0.525   7.813   7.760
24072WAT     H172458   0.455   7.742   7.757
24072WAT     H272459   0.511   7.877   7.685
24073WAT      O72460   4.797   7.834   3.807
24073WAT     H172461   4.721   7.772   3.821
24073WAT     H272462   4.766   7.914   3.754
24074WAT      O72463   0.796   4.482   8.295
24074WAT     H172464   0.870   4.543   8.268
24074WAT     H272465   0.825   4.426   8.373
24075WAT      O72466   2.215   4.384   9.574
24075WAT     H172467   2.159   4.318   9.524
24075WAT     H272468   2.302   4.341   9.600
24076WAT      O72469   1.509   5.799   2.119
24076WAT     H172470   1.433   5.739   2.092
24076WAT     H272471   1.475   5.868   2.183
24077WAT      O72472   5.128   7.264   6.566
24077WAT     H172473   5.092   7.230   6.653
24077WAT     H272474   5.053   7.273   6.500
24078WAT      O72475   4.565   4.313   0.665
24078WAT     H172476   4.539   4.230   0.615
24078WAT     H272477   4.658   4.302   0.700
24079WAT      O72478   2.930   3.600   1.399
24079WAT     H172479   2.911   3.692   1.364
24079WAT     H272480   2.850   3.542   1.386
24080WAT      O72481   3.260   6.550   2.173
24080WAT     H172482   3.195   6.551   2.249
24080WAT     H272483   3.212   6.567   2.088
24081WAT      O72484   2.654   1.219   0.613
24081WAT     H172485   2.693   1.130   0.636
24081WAT     H272486   2.626   1.219   0.517
24082WAT      O72487   2.978   4.024   4.696
24082WAT     H172488   3.069   4.013   4.735
24082WAT     H272489   2.932   3.936   4.691
24083WAT      O72490   7.281   5.020   0.782
24083WAT     H172491   7.246   5.031   0.689
24083WAT     H272492   7.369   4.972   0.779
24084WAT      O72493   9.798   5.617   2.870
24084WAT     H172494   9.778   5.522   2.845
24084WAT     H272495   9.891   5.623   2.906
24085WAT      O72496   3.773   9.653   0.732
24085WAT     H172497   3.761   9.752   0.745
24085WAT     H272498   3.684   9.608   0.736
24086WAT      O72499   2.535   4.770   9.846
24086WAT     H172500   2.596   4.828   9.900
24086WAT     H272501   2.493   4.701   9.905
24087WAT      O72502   7.117   5.003   6.025
24087WAT     H172503   7.176   4.987   5.945
24087WAT     H272504   7.110   4.919   6.078
24088WAT      O72505   5.887   1.115   5.269
24088WAT     H172506   5.978   1.093   5.306
24088WAT     H272507   5.858   1.204   5.305
24089WAT      O72508   9.333   0.126   6.939
24089WAT     H172509   9.265   0.076   6.885
24089WAT     H272510   9.389   0.061   6.990
24090WAT      O72511   9.518   3.018   8.834
24090WAT     H172512   9.598   2.989   8.781
24090WAT     H272513   9.503   3.116   8.821
24091WAT      O72514   2.717   4.123   0.059
24091WAT     H172515   2.654   4.051   0.090
24091WAT     H272516   2.666   4.193   0.010
24092WAT      O72517   0.866   0.625   3.073
24092WAT     H172518   0.894   0.540   3.118
24092WAT     H272519   0.838   0.605   2.980
24093WAT      O72520   0.921   2.545   0.165
24093WAT     H172521   0.928   2.458   0.215
24093WAT     H272522   0.936   2.528   0.068
24094WAT      O72523   8.445   4.089   2.402
24094WAT     H172524   8.384   4.152   2.355
24094WAT     H272525   8.514   4.055   2.337
24095WAT      O72526   2.190   1.871   6.142
24095WAT     H172527   2.257   1.833   6.207
24095WAT     H272528   2.107   1.816   6.143
24096WAT      O72529   2.138   0.526   1.441
24096WAT     H172530   2.050   0.495   1.405
24096WAT     H272531   2.154   0.485   1.531
24097WAT      O72532   6.406   5.711   1.907
24097WAT     H172533   6.500   5.677   1.919
24097WAT     H272534   6.343   5.633   1.907
24098WAT      O72535   0.540   8.928   7.500
24098WAT     H172536   0.528   8.895   7.407
24098WAT     H272537   0.540   9.028   7.499
24099WAT      O72538   5.044   3.647   8.367
24099WAT     H172539   5.113   3.587   8.328
24099WAT     H272540   5.064   3.663   8.464
24100WAT      O72541   8.854   9.002   9.816
24100WAT     H172542   8.820   9.045   9.900
24100WAT     H272543   8.888   8.910   9.838
24101WAT      O72544   2.997   8.092   8.262
24101WAT     H172545   3.025   8.037   8.340
24101WAT     H272546   2.941   8.036   8.200
24102WAT      O72547   2.610   7.782   1.103
24102WAT     H172548   2.696   7.744   1.137
24102WAT     H272549   2.548   7.708   1.077
24103WAT      O72550   6.106   3.704   9.845
24103WAT     H172551   6.056   3.624   9.877
24103WAT     H272552   6.067   3.735   9.759
24104WAT      O72553   5.268   6.309   9.442
24104WAT     H172554   5.225   6.382   9.495
24104WAT     H272555   5.324   6.349   9.369
24105WAT      O72556   3.596   0.188   5.052
24105WAT     H172557   3.625   0.157   4.961
24105WAT     H272558   3.557   0.280   5.044
24106WAT      O72559   8.723   9.512   6.843
24106WAT     H172560   8.750   9.419   6.818
24106WAT     H272561   8.629   9.511   6.877
24107WAT      O72562   9.266   4.660   5.066
24107WAT     H172563   9.349   4.673   5.120
24107WAT     H272564   9.213   4.745   5.067
24108WAT      O72565   0.137   3.665   3.608
24108WAT     H172566   0.059   3.728   3.618
24108WAT     H272567   0.113   3.594   3.541
24109WAT      O72568   7.431   3.287   3.038
24109WAT     H172569   7.344   3.334   3.048
24109WAT     H272570   7.421   3.191   3.066
24110WAT      O72571   8.503   4.902   7.400
24110WAT     H172572   8.452   4.928   7.482
24110WAT     H272573   8.583   4.961   7.390
24111WAT      O72574   8.396   3.590   0.692
24111WAT     H172575   8.441   3.500   0.689
24111WAT     H272576   8.329   3.591   0.766
24112WAT      O72577   2.811   1.021   3.864
24112WAT     H172578   2.720   1.053   3.840
24112WAT     H272579   2.852   1.084   3.931
24113WAT      O72580   9.273   3.945   7.251
24113WAT     H172581   9.202   3.993   7.201
24113WAT     H272582   9.339   3.906   7.186
24114WAT      O72583   3.248   0.249   9.409
24114WAT     H172584   3.274   0.191   9.332
24114WAT     H272585   3.206   0.193   9.480
24115WAT      O72586   5.306   7.831   4.914
24115WAT     H172587   5.377   7.878   4.966
24115WAT     H272588   5.296   7.738   4.949
24116WAT      O72589   6.853   8.176   4.470
24116WAT     H172590   6.800   8.092   4.482
24116WAT     H272591   6.944   8.164   4.508
24117WAT      O72592   6.620   4.041   4.147
24117WAT     H172593   6.591   4.097   4.224
24117WAT     H272594   6.702   3.989   4.173
24118WAT      O72595   1.329   1.757   3.038
24118WAT     H172596   1.240   1.774   3.081
24118WAT     H272597   1.374   1.844   3.019
24119WAT      O72598   9.835   2.073   6.223
24119WAT     H172599   9.834   2.140   6.298
24119WAT     H272600   9.811   2.119   6.138
24120WAT      O72601   4.696   0.194   7.553
24120WAT     H172602   4.707   0.102   7.515
24120WAT     H272603   4.632   0.191   7.630
24121WAT      O72604   1.091   8.270   1.851
24121WAT     H172605   1.155   8.250   1.925
24121WAT     H272606   1.141   8.304   1.771
24122WAT      O72607   7.342   6.775   1.052
24122WAT     H172608   7.348   6.676   1.043
24122WAT     H272609   7.434   6.812   1.069
24123WAT      O72610   4.841   5.528   3.498
24123WAT     H172611   4.784   5.462   3.547
24123WAT     H272612   4.908   5.479   3.441
24124WAT      O72613   1.823   6.735   7.701
24124WAT     H172614   1.734   6.708   7.738
24124WAT     H272615   1.896   6.685   7.747
24125WAT      O72616   1.408   4.052   3.359
24125WAT     H172617   1.498   4.011   3.344
24125WAT     H272618   1.337   3.987   3.331
24126WAT      O72619   6.006   5.058   0.416
24126WAT     H172620   6.024   5.137   0.358
24126WAT     H272621   6.003   5.087   0.512
24127WAT      O72622   5.352   7.914   5.395
24127WAT     H172623   5.426   7.883   5.336
24127WAT     H272624   5.390   7.957   5.477
24128WAT      O72625   8.101   4.224   3.959
24128WAT     H172626   8.168   4.150   3.968
24128WAT     H272627   8.078   4.237   3.862
24129WAT      O72628   6.930   1.153   8.844
24129WAT     H172629   7.017   1.184   8.805
24129WAT     H272630   6.907   1.208   8.924
24130WAT      O72631   3.233   5.996   1.165
24130WAT     H172632   3.232   6.078   1.108
24130WAT     H272633   3.290   5.926   1.121
24131WAT      O72634   2.084   9.390   4.362
24131WAT     H172635   2.181   9.410   4.346
24131WAT     H272636   2.064   9.298   4.328
24132WAT      O72637   3.232   9.103   4.272
24132WAT     H172638   3.279   9.109   4.184
24132WAT     H272639   3.142   9.146   4.265
24133WAT      O72640   5.866   2.734   9.444
24133WAT     H172641   5.854   2.653   9.502
24133WAT     H272642   5.947   2.785   9.475
24134WAT      O72643   2.557   0.224   7.846
24134WAT     H172644   2.597   0.133   7.860
24134WAT     H272645   2.627   0.293   7.863
24135WAT      O72646   9.656   1.047   8.713
24135WAT     H172647   9.749   1.012   8.702
24135WAT     H272648   9.591   0.971   8.711
24136WAT      O72649   7.638   4.580   9.608
24136WAT     H172650   7.591   4.545   9.689
24136WAT     H272651   7.636   4.509   9.536
24137WAT      O72652   4.665   8.637   1.560
24137WAT     H172653   4.652   8.661   1.656
24137WAT     H272654   4.608   8.697   1.503
24138WAT      O72655   0.978   1.542   5.562
24138WAT     H172656   0.964   1.640   5.551
24138WAT     H272657   1.066   1.525   5.606
24139WAT      O72658   5.246   8.167   6.861
24139WAT     H172659   5.261   8.079   6.906
24139WAT     H272660   5.161   8.164   6.810
24140WAT      O72661   4.412   1.005   0.513
24140WAT     H172662   4.404   0.911   0.545
24140WAT     H272663   4.435   1.005   0.415
24141WAT      O72664   9.598   7.027   2.371
24141WAT     H172665   9.635   7.102   2.315
24141WAT     H272666   9.596   7.056   2.467
24142WAT      O72667   0.572   5.263   1.874
24142WAT     H172668   0.560   5.170   1.908
24142WAT     H272669   0.666   5.275   1.840
24143WAT      O72670   3.894   3.517   0.569
24143WAT     H172671   3.882   3.513   0.470
24143WAT     H272672   3.874   3.609   0.602
24144WAT      O72673   4.822   9.395   9.883
24144WAT     H172674   4.874   9.314   9.855
24144WAT     H272675   4.775   9.433   9.804
24145WAT      O72676   8.374   4.749   1.760
24145WAT     H172677   8.308   4.698   1.816
24145WAT     H272678   8.460   4.760   1.811
24146WAT      O72679   3.068   1.954   7.530
24146WAT     H172680   3.030   1.995   7.613
24146WAT     H272681   3.097   1.860   7.550
24147WAT      O72682   3.206   1.750   6.166
24147WAT     H172683   3.153   1.834   6.152
24147WAT     H272684   3.144   1.676   6.192
24148WAT      O72685   2.370   8.778   5.858
24148WAT     H172686   2.353   8.869   5.822
24148WAT     H272687   2.285   8.740   5.895
24149WAT      O72688   6.430   2.352   9.879
24149WAT     H172689   6.367   2.404   9.937
24149WAT     H272690   6.404   2.363   9.783
24150WAT      O72691   8.935   2.378   8.077
24150WAT     H172692   8.880   2.354   7.997
24150WAT     H272693   9.017   2.322   8.079
24151WAT      O72694   0.296   9.585   7.668
24151WAT     H172695   0.242   9.508   7.632
24151WAT     H272696   0.331   9.639   7.591
24152WAT      O72697   1.649   4.006   1.424
24152WAT     H172698   1.698   4.025   1.339
24152WAT     H272699   1.570   3.947   1.404
24153WAT      O72700   2.937   6.120   3.912
24153WAT     H172701   2.887   6.206   3.901
24153WAT     H272702   2.910   6.075   3.997
24154WAT      O72703   0.869   2.858   2.360
24154WAT     H172704   0.883   2.920   2.282
24154WAT     H272705   0.937   2.876   2.430
24155WAT      O72706   2.693   9.810   1.028
24155WAT     H172707   2.635   9.891   1.026
24155WAT     H272708   2.696   9.772   1.120
24156WAT      O72709   3.407   2.284   0.268
24156WAT     H172710   3.420   2.185   0.260
24156WAT     H272711   3.438   2.315   0.358
24157WAT      O72712   1.970   1.384   2.429
24157WAT     H172713   2.070   1.380   2.438
24157WAT     H272714   1.935   1.294   2.405
24158WAT      O72715   5.566   1.553   3.534
24158WAT     H172716   5.502   1.478   3.554
24158WAT     H272717   5.648   1.543   3.591
24159WAT      O72718   8.440   6.809   6.310
24159WAT     H172719   8.501   6.886   6.294
24159WAT     H272720   8.346   6.837   6.295
24160WAT      O72721   9.325   0.479   9.475
24160WAT     H172722   9.310   0.422   9.556
24160WAT     H272723   9.240   0.527   9.452
24161WAT      O72724   7.352   0.269   2.212
24161WAT     H172725   7.314   0.354   2.248
24161WAT     H272726   7.400   0.220   2.284
24162WAT      O72727   9.557   2.460   6.916
24162WAT     H172728   9.510   2.548   6.921
24162WAT     H272729   9.543   2.409   7.000
24163WAT      O72730   0.208   8.656   3.726
24163WAT     H172731   0.249   8.660   3.817
24163WAT     H272732   0.273   8.692   3.659
24164WAT      O72733   5.776   5.649   3.114
24164WAT     H172734   5.693   5.642   3.059
24164WAT     H272735   5.753   5.678   3.207
24165WAT      O72736   8.896   3.846   4.120
24165WAT     H172737   8.985   3.801   4.115
24165WAT     H272738   8.863   3.863   4.027
24166WAT      O72739   8.334   3.188   3.894
24166WAT     H172740   8.356   3.276   3.937
24166WAT     H272741   8.390   3.117   3.937
24167WAT      O72742   7.707   8.194   8.467
24167WAT     H172743   7.614   8.176   8.497
24167WAT     H272744   7.712   8.192   8.367
24168WAT      O72745   3.827   3.533   1.000
24168WAT     H172746   3.809   3.555   1.096
24168WAT     H272747   3.843   3.618   0.949
24169WAT      O72748   7.628   6.498   0.889
24169WAT     H172749   7.566   6.552   0.832
24169WAT     H272750   7.721   6.532   0.879
24170WAT      O72751   0.204   1.587   2.971
24170WAT     H172752   0.140   1.585   3.048
24170WAT     H272753   0.283   1.643   2.995
24171WAT      O72754   3.587   6.811   5.558
24171WAT     H172755   3.595   6.810   5.458
24171WAT     H272756   3.557   6.722   5.590
24172WAT      O72757   8.223   2.745   3.889
24172WAT     H172758   8.171   2.660   3.897
24172WAT     H272759   8.159   2.822   3.885
24173WAT      O72760   9.747   1.051   6.961
24173WAT     H172761   9.801   1.080   7.041
24173WAT     H272762   9.787   1.090   6.878
24174WAT      O72763   7.585   8.066   5.332
24174WAT     H172764   7.629   7.981   5.305
24174WAT     H272765   7.617   8.092   5.424
24175WAT      O72766   2.718   6.450   7.230
24175WAT     H172767   2.725   6.515   7.155
24175WAT     H272768   2.662   6.489   7.303
24176WAT      O72769   8.642   1.842   8.404
24176WAT     H172770   8.715   1.774   8.394
24176WAT     H272771   8.661   1.919   8.343
24177WAT      O72772   0.804   3.559   3.720
24177WAT     H172773   0.855   3.526   3.640
24177WAT     H272774   0.799   3.486   3.788
24178WAT      O72775   8.758   7.081   4.887
24178WAT     H172776   8.752   7.085   4.986
24178WAT     H272777   8.751   7.173   4.849
24179WAT      O72778   3.829   5.572   2.542
24179WAT     H172779   3.861   5.612   2.628
24179WAT     H272780   3.791   5.644   2.485
24180WAT      O72781   7.818   2.396   6.954
24180WAT     H172782   7.807   2.311   7.006
24180WAT     H272783   7.742   2.457   6.976
24181WAT      O72784   8.302   7.890   9.783
24181WAT     H172785   8.218   7.910   9.833
24181WAT     H272786   8.334   7.973   9.736
24182WAT      O72787   0.175   8.857   5.978
24182WAT     H172788   0.255   8.915   5.991
24182WAT     H272789   0.165   8.835   5.881
24183WAT      O72790   0.353   8.380   4.932
24183WAT     H172791   0.344   8.302   4.869
24183WAT     H272792   0.265   8.396   4.977
24184WAT      O72793   8.799   2.992   0.499
24184WAT     H172794   8.827   2.989   0.403
24184WAT     H272795   8.817   2.903   0.542
24185WAT      O72796   3.131   1.283   6.817
24185WAT     H172797   3.075   1.366   6.828
24185WAT     H272798   3.071   1.203   6.821
24186WAT      O72799   1.926   3.423   1.014
24186WAT     H172800   1.861   3.462   1.080
24186WAT     H272801   2.009   3.478   1.012
24187WAT      O72802   4.497   7.719   6.071
24187WAT     H172803   4.455   7.646   6.125
24187WAT     H272804   4.441   7.801   6.076
24188WAT      O72805   7.037   4.399   8.025
24188WAT     H172806   7.009   4.452   8.105
24188WAT     H272807   6.989   4.432   7.944
24189WAT      O72808   5.932   7.267   6.214
24189WAT     H172809   5.948   7.363   6.193
24189WAT     H272810   6.003   7.234   6.277
24190WAT      O72811   7.878   5.468   8.279
24190WAT     H172812   7.834   5.498   8.364
24190WAT     H272813   7.977   5.469   8.291
24191WAT      O72814   4.235   3.369   9.215
24191WAT     H172815   4.313   3.424   9.246
24191WAT     H272816   4.264   3.313   9.138
24192WAT      O72817   5.733   1.801   8.100
24192WAT     H172818   5.677   1.759   8.029
24192WAT     H272819   5.804   1.858   8.058
24193WAT      O72820   7.321   3.526   4.765
24193WAT     H172821   7.377   3.582   4.826
24193WAT     H272822   7.263   3.466   4.820
24194WAT      O72823   1.818   8.242   8.366
24194WAT     H172824   1.864   8.214   8.450
24194WAT     H272825   1.763   8.324   8.385
24195WAT      O72826   2.565   3.493   4.347
24195WAT     H172827   2.481   3.470   4.397
24195WAT     H272828   2.545   3.495   4.249
24196WAT      O72829   0.189   3.441   9.161
24196WAT     H172830   0.143   3.445   9.073
24196WAT     H272831   0.121   3.425   9.233
24197WAT      O72832   2.255   9.300   6.858
24197WAT     H172833   2.330   9.233   6.865
24197WAT     H272834   2.226   9.327   6.949
24198WAT      O72835   9.240   1.598   9.641
24198WAT     H172836   9.317   1.549   9.600
24198WAT     H272837   9.217   1.678   9.585
24199WAT      O72838   0.417   5.049   0.095
24199WAT     H172839   0.501   5.034   0.145
24199WAT     H272840   0.347   4.985   0.126
24200WAT      O72841   1.989   0.021   5.005
24200WAT     H172842   2.072  -0.003   5.055
24200WAT     H272843   1.989  -0.026   4.917
24201WAT      O72844   2.768   3.385   9.044
24201WAT     H172845   2.690   3.322   9.049
24201WAT     H272846   2.793   3.415   9.136
24202WAT      O72847   5.245   7.625   5.338
24202WAT     H172848   5.282   7.712   5.369
24202WAT     H272849   5.158   7.640   5.291
24203WAT      O72850   2.759   3.850   1.929
24203WAT     H172851   2.742   3.758   1.962
24203WAT     H272852   2.771   3.848   1.829
24204WAT      O72853   7.084   6.744   7.953
24204WAT     H172854   7.175   6.709   7.977
24204WAT     H272855   7.015   6.678   7.982
24205WAT      O72856   3.705   2.271   6.041
24205WAT     H172857   3.792   2.320   6.048
24205WAT     H272858   3.635   2.320   6.092
24206WAT      O72859   0.396   7.528   0.362
24206WAT     H172860   0.383   7.450   0.424
24206WAT     H272861   0.425   7.494   0.272
24207WAT      O72862   5.739   7.727   0.641
24207WAT     H172863   5.703   7.635   0.656
24207WAT     H272864   5.706   7.788   0.712
24208WAT      O72865   8.472   3.798   2.840
24208WAT     H172866   8.416   3.716   2.831
24208WAT     H272867   8.448   3.863   2.768
24209WAT      O72868   9.636   1.825   3.679
24209WAT     H172869   9.562   1.760   3.694
24209WAT     H272870   9.630   1.898   3.747
24210WAT      O72871   0.175   6.559   1.341
24210WAT     H172872   0.109   6.516   1.280
24210WAT     H272873   0.127   6.594   1.422
24211WAT      O72874   3.075   1.583   2.442
24211WAT     H172875   3.122   1.580   2.530
24211WAT     H272876   3.111   1.659   2.388
24212WAT      O72877   6.870   5.679   3.762
24212WAT     H172878   6.946   5.728   3.804
24212WAT     H272879   6.905   5.602   3.708
24213WAT      O72880   9.404   2.211   4.894
24213WAT     H172881   9.451   2.224   4.807
24213WAT     H272882   9.316   2.258   4.891
24214WAT      O72883   5.817   9.444   6.011
24214WAT     H172884   5.752   9.518   6.019
24214WAT     H272885   5.804   9.397   5.923
24215WAT      O72886   5.555   4.892   0.572
24215WAT     H172887   5.500   4.821   0.528
24215WAT     H272888   5.633   4.915   0.514
24216WAT      O72889   0.846   7.435   7.154
24216WAT     H172890   0.885   7.461   7.242
24216WAT     H272891   0.791   7.510   7.118
24217WAT      O72892   8.022   7.527   8.630
24217WAT     H172893   8.055   7.612   8.589
24217WAT     H272894   8.055   7.449   8.576
24218WAT      O72895   8.836   1.021   0.896
24218WAT     H172896   8.738   1.004   0.907
24218WAT     H272897   8.869   0.981   0.811
24219WAT      O72898   9.267   3.252   1.381
24219WAT     H172899   9.211   3.251   1.464
24219WAT     H272900   9.284   3.347   1.354
24220WAT      O72901   7.335   3.329   4.406
24220WAT     H172902   7.335   3.314   4.307
24220WAT     H272903   7.424   3.362   4.435
24221WAT      O72904   3.843   7.606   1.609
24221WAT     H172905   3.864   7.682   1.548
24221WAT     H272906   3.847   7.638   1.704
24222WAT      O72907   0.758   8.507   3.289
24222WAT     H172908   0.674   8.489   3.239
24222WAT     H272909   0.736   8.557   3.373
24223WAT      O72910   8.804   5.475   8.415
24223WAT     H172911   8.767   5.385   8.393
24223WAT     H272912   8.728   5.538   8.436
24224WAT      O72913   3.727   8.460   7.818
24224WAT     H172914   3.717   8.542   7.761
24224WAT     H272915   3.779   8.391   7.768
24225WAT      O72916   0.432   7.036   0.213
24225WAT     H172917   0.447   7.076   0.303
24225WAT     H272918   0.517   6.995   0.180
24226WAT      O72919   8.155   2.023   4.844
24226WAT     H172920   8.174   2.114   4.880
24226WAT     H272921   8.222   1.958   4.880
24227WAT      O72922   1.790   1.331   4.739
24227WAT     H172923   1.766   1.427   4.729
24227WAT     H272924   1.862   1.322   4.808
24228WAT      O72925   5.308   2.031   2.901
24228WAT     H172926   5.369   2.003   2.827
24228WAT     H272927   5.265   2.118   2.877
24229WAT      O72928   1.968   2.240   1.771
24229WAT     H172929   2.031   2.310   1.806
24229WAT     H272930   1.894   2.227   1.837
24230WAT      O72931   0.683   7.051   5.001
24230WAT     H172932   0.714   7.093   4.916
24230WAT     H272933   0.726   6.961   5.011
24231WAT      O72934   7.303   4.281   3.317
24231WAT     H172935   7.314   4.261   3.220
24231WAT     H272936   7.389   4.263   3.364
24232WAT      O72937   7.488   3.208   6.024
24232WAT     H172938   7.403   3.219   6.076
24232WAT     H272939   7.478   3.252   5.935
24233WAT      O72940   5.529   0.358   4.811
24233WAT     H172941   5.547   0.342   4.908
24233WAT     H272942   5.568   0.284   4.757
24234WAT      O72943   0.414   9.508   0.406
24234WAT     H172944   0.478   9.466   0.342
24234WAT     H272945   0.332   9.537   0.356
24235WAT      O72946   8.209   9.097   9.037
24235WAT     H172947   8.111   9.076   9.038
24235WAT     H272948   8.225   9.174   8.975
24236WAT      O72949   3.392   7.025   2.426
24236WAT     H172950   3.329   6.948   2.411
24236WAT     H272951   3.340   7.104   2.459
24237WAT      O72952   5.563   9.822   7.603
24237WAT     H172953   5.568   9.722   7.610
24237WAT     H272954   5.551   9.848   7.507
24238WAT      O72955   7.140   4.358   5.969
24238WAT     H172956   7.171   4.441   6.015
24238WAT     H272957   7.150   4.369   5.870
24239WAT      O72958   3.524   1.805   6.846
24239WAT     H172959   3.514   1.808   6.946
24239WAT     H272960   3.466   1.876   6.805
24240WAT      O72961   3.686   0.692   9.230
24240WAT     H172962   3.661   0.785   9.202
24240WAT     H272963   3.630   0.626   9.180
24241WAT      O72964   4.322   6.144   9.744
24241WAT     H172965   4.391   6.164   9.813
24241WAT     H272966   4.260   6.222   9.734
24242WAT      O72967   9.654   1.522   6.985
24242WAT     H172968   9.638   1.451   6.916
24242WAT     H272969   9.586   1.514   7.057
24243WAT      O72970   9.073   7.182   0.214
24243WAT     H172971   9.104   7.211   0.304
24243WAT     H272972   9.014   7.252   0.175
24244WAT      O72973   4.574   3.092   6.703
24244WAT     H172974   4.600   2.997   6.722
24244WAT     H272975   4.619   3.152   6.769
24245WAT      O72976   6.649   5.874   5.263
24245WAT     H172977   6.551   5.894   5.260
24245WAT     H272978   6.673   5.842   5.355
24246WAT      O72979   8.899   3.160   0.723
24246WAT     H172980   8.889   3.101   0.642
24246WAT     H272981   8.847   3.244   0.710
24247WAT      O72982   7.019   1.895   7.449
24247WAT     H172983   7.111   1.932   7.459
24247WAT     H272984   6.972   1.899   7.537
24248WAT      O72985   4.977   6.564   7.593
24248WAT     H172986   4.996   6.577   7.690
24248WAT     H272987   5.059   6.589   7.540
24249WAT      O72988   5.042   2.689   5.291
24249WAT     H172989   5.078   2.656   5.204
24249WAT     H272990   4.954   2.646   5.310
24250WAT      O72991   2.705   6.234   6.482
24250WAT     H172992   2.647   6.157   6.454
24250WAT     H272993   2.787   6.237   6.425
24251WAT      O72994   3.684   2.651   2.131
24251WAT     H172995   3.720   2.719   2.194
24251WAT     H272996   3.696   2.682   2.037
24252WAT      O72997   5.310   5.059   1.161
24252WAT     H172998   5.287   5.156   1.169
24252WAT     H272999   5.329   5.021   1.252
24253WAT      O73000   6.967   0.439   7.136
24253WAT     H173001   6.980   0.346   7.104
24253WAT     H273002   6.869   0.455   7.152
24254WAT      O73003   9.616   3.071   3.452
24254WAT     H173004   9.611   2.983   3.405
24254WAT     H273005   9.704   3.079   3.498
24255WAT      O73006   4.945   7.098   3.156
24255WAT     H173007   5.029   7.082   3.207
24255WAT     H273008   4.966   7.100   3.058
24256WAT      O73009   7.291   9.836   5.166
24256WAT     H173010   7.207   9.806   5.212
24256WAT     H273011   7.356   9.870   5.234
24257WAT      O73012   0.003   6.291   8.351
24257WAT     H173013  -0.082   6.243   8.370
24257WAT     H273014   0.061   6.234   8.292
24258WAT      O73015   0.707   8.460   2.246
24258WAT     H173016   0.800   8.485   2.220
24258WAT     H273017   0.642   8.502   2.183
24259WAT      O73018   9.870   5.109   0.510
24259WAT     H173019   9.837   5.046   0.580
24259WAT     H273020   9.814   5.101   0.428
24260WAT      O73021   9.827   9.235   4.772
24260WAT     H173022   9.920   9.202   4.758
24260WAT     H273023   9.762   9.168   4.735
24261WAT      O73024   8.504   2.538   7.107
24261WAT     H173025   8.454   2.514   7.190
24261WAT     H273026   8.483   2.471   7.035
24262WAT      O73027   4.851   8.580   7.196
24262WAT     H173028   4.862   8.617   7.104
24262WAT     H273029   4.853   8.655   7.262
24263WAT      O73030   7.071   9.803   6.809
24263WAT     H173031   7.154   9.750   6.795
24263WAT     H273032   7.093   9.900   6.815
24264WAT      O73033   4.106   5.022   3.564
24264WAT     H173034   4.035   5.089   3.541
24264WAT     H273035   4.184   5.033   3.502
24265WAT      O73036   5.129   5.085   0.115
24265WAT     H173037   5.113   5.175   0.157
24265WAT     H273038   5.044   5.032   0.117
24266WAT      O73039   4.744   4.098   5.726
24266WAT     H173040   4.819   4.092   5.792
24266WAT     H273041   4.657   4.081   5.771
24267WAT      O73042   1.595   0.464   2.559
24267WAT     H173043   1.639   0.380   2.592
24267WAT     H273044   1.601   0.468   2.460
24268WAT      O73045   9.647   4.818   3.145
24268WAT     H173046   9.630   4.778   3.055
24268WAT     H273047   9.561   4.831   3.193
24269WAT      O73048   2.891   0.366   2.676
24269WAT     H173049   2.896   0.462   2.648
24269WAT     H273050   2.961   0.349   2.745
24270WAT      O73051   4.197   7.394   7.549
24270WAT     H173052   4.104   7.412   7.519
24270WAT     H273053   4.216   7.296   7.546
24271WAT      O73054   4.504   8.939   8.374
24271WAT     H173055   4.561   8.915   8.452
24271WAT     H273056   4.464   8.856   8.335
24272WAT      O73057   3.234   3.592   2.820
24272WAT     H173058   3.278   3.618   2.906
24272WAT     H273059   3.143   3.555   2.839
24273WAT      O73060   3.072   9.739   0.963
24273WAT     H173061   3.037   9.715   0.873
24273WAT     H273062   3.060   9.661   1.025
24274WAT      O73063   2.483   7.747   3.849
24274WAT     H173064   2.537   7.716   3.770
24274WAT     H273065   2.387   7.755   3.823
24275WAT      O73066   4.837   7.454   3.801
24275WAT     H173067   4.921   7.498   3.834
24275WAT     H273068   4.821   7.370   3.853
24276WAT      O73069   1.083   0.819   4.050
24276WAT     H173070   1.101   0.866   4.136
24276WAT     H273071   1.044   0.728   4.069
24277WAT      O73072   1.003   6.273   0.013
24277WAT     H173073   0.939   6.305  -0.057
24277WAT     H273074   0.968   6.189   0.054
24278WAT      O73075   2.318   9.292   1.515
24278WAT     H173076   2.325   9.370   1.452
24278WAT     H273077   2.398   9.291   1.576
24279WAT      O73078   2.389   2.030   1.621
24279WAT     H173079   2.439   2.012   1.536
24279WAT     H273080   2.319   1.960   1.634
24280WAT      O73081   3.472   2.117   8.036
24280WAT     H173082   3.494   2.194   7.976
24280WAT     H273083   3.544   2.105   8.104
24281WAT      O73084   8.120   9.074   3.880
24281WAT     H173085   8.044   9.138   3.892
24281WAT     H273086   8.114   9.002   3.949
24282WAT      O73087   4.730   8.390   2.542
24282WAT     H173088   4.816   8.403   2.493
24282WAT     H273089   4.748   8.382   2.640
24283WAT      O73090   5.325   2.488   9.429
24283WAT     H173091   5.380   2.559   9.472
24283WAT     H273092   5.366   2.463   9.341
24284WAT      O73093   0.430   2.999   9.330
24284WAT     H173094   0.450   3.038   9.420
24284WAT     H273095   0.511   3.005   9.272
24285WAT      O73096   1.926   0.533   2.443
24285WAT     H173097   1.877   0.599   2.386
24285WAT     H273098   1.917   0.559   2.539
24286WAT      O73099   1.739   5.470   0.713
24286WAT     H173100   1.689   5.550   0.748
24286WAT     H273101   1.778   5.492   0.624
24287WAT      O73102   7.837   1.812   6.377
24287WAT     H173103   7.769   1.882   6.356
24287WAT     H273104   7.926   1.855   6.393
24288WAT      O73105   1.069   6.199   7.689
24288WAT     H173106   0.978   6.235   7.708
24288WAT     H273107   1.062   6.107   7.653
24289WAT      O73108   7.900   2.941   1.411
24289WAT     H173109   7.801   2.927   1.411
24289WAT     H273110   7.921   3.034   1.440
24290WAT      O73111   4.486   8.384   1.904
24290WAT     H173112   4.502   8.471   1.857
24290WAT     H273113   4.547   8.315   1.866
24291WAT      O73114   7.985   2.032   0.481
24291WAT     H173115   8.018   1.954   0.533
24291WAT     H273116   8.061   2.072   0.429
24292WAT      O73117   2.140   5.677   0.604
24292WAT     H173118   2.144   5.580   0.626
24292WAT     H273119   2.171   5.731   0.683
24293WAT      O73120   3.664   3.590   5.599
24293WAT     H173121   3.642   3.494   5.614
24293WAT     H273122   3.582   3.645   5.611
24294WAT      O73123   4.709   6.877   4.167
24294WAT     H173124   4.620   6.923   4.167
24294WAT     H273125   4.737   6.860   4.262
24295WAT      O73126   6.363   3.844   5.046
24295WAT     H173127   6.463   3.838   5.039
24295WAT     H273128   6.326   3.756   5.077
24296WAT      O73129   3.670   7.997   1.276
24296WAT     H173130   3.598   7.959   1.218
24296WAT     H273131   3.697   8.087   1.242
24297WAT      O73132   1.311   3.113   2.709
24297WAT     H173133   1.380   3.183   2.727
24297WAT     H273134   1.320   3.081   2.614
24298WAT      O73135   9.694   6.386   0.532
24298WAT     H173136   9.619   6.423   0.477
24298WAT     H273137   9.778   6.382   0.477
24299WAT      O73138   7.645   9.791   9.198
24299WAT     H173139   7.611   9.827   9.284
24299WAT     H273140   7.719   9.726   9.216
24300WAT      O73141   2.166   4.208   0.868
24300WAT     H173142   2.160   4.121   0.915
24300WAT     H273143   2.192   4.193   0.772
24301WAT      O73144   4.429   1.868   8.030
24301WAT     H173145   4.358   1.888   8.097
24301WAT     H273146   4.390   1.871   7.938
24302WAT      O73147   1.647   9.092   4.033
24302WAT     H173148   1.691   9.029   3.969
24302WAT     H273149   1.693   9.181   4.030
24303WAT      O73150   2.732   2.713   6.003
24303WAT     H173151   2.722   2.787   6.070
24303WAT     H273152   2.823   2.672   6.012
24304WAT      O73153   6.856   7.391   1.163
24304WAT     H173154   6.871   7.390   1.262
24304WAT     H273155   6.767   7.433   1.143
24305WAT      O73156   1.076   7.699   8.315
24305WAT     H173157   1.137   7.761   8.265
24305WAT     H273158   0.982   7.713   8.286
24306WAT      O73159   4.051   2.534   3.636
24306WAT     H173160   3.991   2.510   3.559
24306WAT     H273161   4.109   2.456   3.659
24307WAT      O73162   1.405   1.666   8.053
24307WAT     H173163   1.356   1.704   8.131
24307WAT     H273164   1.342   1.653   7.977
24308WAT      O73165   4.069   2.635   8.348
24308WAT     H173166   4.042   2.575   8.273
24308WAT     H273167   4.147   2.691   8.319
24309WAT      O73168   8.059   1.910   5.553
24309WAT     H173169   8.128   1.948   5.493
24309WAT     H273170   7.993   1.857   5.499
24310WAT      O73171   5.440   9.047   0.572
24310WAT     H173172   5.351   9.073   0.608
24310WAT     H273173   5.446   8.948   0.566
24311WAT      O73174   0.640   3.691   2.136
24311WAT     H173175   0.721   3.692   2.193
24311WAT     H273176   0.609   3.785   2.120
24312WAT      O73177   7.117   4.081   4.700
24312WAT     H173178   7.092   4.021   4.776
24312WAT     H273179   7.134   4.027   4.618
24313WAT      O73180   4.042   3.748   7.317
24313WAT     H173181   3.968   3.693   7.356
24313WAT     H273182   4.130   3.711   7.349
24314WAT      O73183   8.471   8.613   5.686
24314WAT     H173184   8.496   8.518   5.670
24314WAT     H273185   8.372   8.623   5.675
24315WAT      O73186   1.011   8.875   7.619
24315WAT     H173187   1.055   8.947   7.566
24315WAT     H273188   1.074   8.798   7.628
24316WAT      O73189   8.606   1.655   7.123
24316WAT     H173190   8.521   1.664   7.175
24316WAT     H273191   8.588   1.603   7.039
24317WAT      O73192   7.682   3.895   6.119
24317WAT     H173193   7.638   3.811   6.087
24317WAT     H273194   7.772   3.874   6.156
24318WAT      O73195   9.177   7.270   0.446
24318WAT     H173196   9.149   7.364   0.467
24318WAT     H273197   9.142   7.208   0.516
24319WAT      O73198   2.481   9.610   6.405
24319WAT     H173199   2.454   9.641   6.313
24319WAT     H273200   2.428   9.530   6.430
24320WAT      O73201   5.908   1.209   7.023
24320WAT     H173202   5.855   1.275   7.076
24320WAT     H273203   5.964   1.258   6.956
24321WAT      O73204   4.876   0.966   9.389
24321WAT     H173205   4.786   0.923   9.403
24321WAT     H273206   4.896   1.026   9.466
24322WAT      O73207   2.853   2.721   2.108
24322WAT     H173208   2.876   2.802   2.054
24322WAT     H273209   2.766   2.684   2.076
24323WAT      O73210   3.890   1.105   0.569
24323WAT     H173211   3.843   1.146   0.492
24323WAT     H273212   3.982   1.078   0.542
24324WAT      O73213   9.075   5.872   6.117
24324WAT     H173214   9.164   5.913   6.095
24324WAT     H273215   9.031   5.841   6.032
24325WAT      O73216   0.806   9.351   0.647
24325WAT     H173217   0.832   9.297   0.567
24325WAT     H273218   0.808   9.449   0.623
24326WAT      O73219   0.283   3.142   0.596
24326WAT     H173220   0.235   3.216   0.550
24326WAT     H273221   0.381   3.147   0.574
24327WAT      O73222   9.503   8.332   1.399
24327WAT     H173223   9.581   8.289   1.446
24327WAT     H273224   9.418   8.300   1.442
24328WAT      O73225   9.682   6.093   8.378
24328WAT     H173226   9.687   6.002   8.337
24328WAT     H273227   9.597   6.102   8.429
24329WAT      O73228   7.144   2.312   3.872
24329WAT     H173229   7.218   2.361   3.826
24329WAT     H273230   7.086   2.267   3.804
24330WAT      O73231   3.782   3.076   5.720
24330WAT     H173232   3.731   2.990   5.718
24330WAT     H273233   3.878   3.057   5.740
24331WAT      O73234   5.191   8.124   2.195
24331WAT     H173235   5.220   8.120   2.291
24331WAT     H273236   5.115   8.188   2.185
24332WAT      O73237   5.126   1.353   3.157
24332WAT     H173238   5.062   1.381   3.085
24332WAT     H273239   5.214   1.399   3.144
24333WAT      O73240   3.361   6.694   7.462
24333WAT     H173241   3.290   6.675   7.394
24333WAT     H273242   3.407   6.609   7.488
24334WAT      O73243   0.103   8.166   7.899
24334WAT     H173244   0.016   8.170   7.948
24334WAT     H273245   0.171   8.221   7.948
24335WAT      O73246   8.687   6.961   0.781
24335WAT     H173247   8.638   7.008   0.708
24335WAT     H273248   8.761   6.906   0.742
24336WAT      O73249   3.244   5.175   2.873
24336WAT     H173250   3.316   5.191   2.805
24336WAT     H273251   3.280   5.117   2.946
24337WAT      O73252   9.316   2.202   7.486
24337WAT     H173253   9.369   2.117   7.480
24337WAT     H273254   9.326   2.242   7.577
24338WAT      O73255   2.502   1.265   3.053
24338WAT     H173256   2.589   1.262   3.004
24338WAT     H273257   2.460   1.175   3.050
24339WAT      O73258   8.414   9.022   7.700
24339WAT     H173259   8.366   8.942   7.665
24339WAT     H273260   8.502   8.993   7.739
24340WAT      O73261   0.178   5.431   4.459
24340WAT     H173262   0.197   5.425   4.361
24340WAT     H273263   0.252   5.480   4.504
24341WAT      O73264   0.108   5.101   6.619
24341WAT     H173265   0.186   5.163   6.622
24341WAT     H273266   0.060   5.105   6.707
24342WAT      O73267   5.488   4.066   1.102
24342WAT     H173268   5.542   4.087   1.183
24342WAT     H273269   5.406   4.016   1.128
24343WAT      O73270   3.037   4.833   4.513
24343WAT     H173271   3.117   4.823   4.571
24343WAT     H273272   3.004   4.743   4.487
24344WAT      O73273   3.746   2.862   9.402
24344WAT     H173274   3.715   2.930   9.468
24344WAT     H273275   3.730   2.895   9.309
24345WAT      O73276   0.548   5.407   8.793
24345WAT     H173277   0.617   5.467   8.834
24345WAT     H273278   0.587   5.361   8.713
24346WAT      O73279   4.866   4.219   8.647
24346WAT     H173280   4.907   4.294   8.700
24346WAT     H273281   4.935   4.176   8.590
24347WAT      O73282   2.929   5.063   8.812
24347WAT     H173283   2.861   5.003   8.856
24347WAT     H273284   3.020   5.027   8.829
24348WAT      O73285   9.118   7.697   0.285
24348WAT     H173286   9.085   7.693   0.191
24348WAT     H273287   9.129   7.792   0.313
24349WAT      O73288   6.871   4.478   5.190
24349WAT     H173289   6.864   4.547   5.262
24349WAT     H273290   6.876   4.387   5.231
24350WAT      O73291   9.318   3.920   0.150
24350WAT     H173292   9.239   3.916   0.089
24350WAT     H273293   9.400   3.940   0.098
24351WAT      O73294   9.232   8.144   2.091
24351WAT     H173295   9.266   8.073   2.030
24351WAT     H273296   9.138   8.167   2.065
24352WAT      O73297   5.970   5.318   2.683
24352WAT     H173298   5.959   5.417   2.689
24352WAT     H273299   5.969   5.279   2.775
24353WAT      O73300   8.129   8.249   7.916
24353WAT     H173301   8.042   8.208   7.886
24353WAT     H273302   8.177   8.185   7.976
24354WAT      O73303   7.177   0.520   4.272
24354WAT     H173304   7.106   0.482   4.332
24354WAT     H273305   7.233   0.445   4.235
24355WAT      O73306   6.616   1.666   0.235
24355WAT     H173307   6.678   1.745   0.236
24355WAT     H273308   6.548   1.679   0.162
24356WAT      O73309   6.212   4.379   8.256
24356WAT     H173310   6.257   4.454   8.207
24356WAT     H273311   6.209   4.298   8.197
24357WAT      O73312   4.409   5.799   0.389
24357WAT     H173313   4.383   5.866   0.319
24357WAT     H273314   4.413   5.844   0.478
24358WAT      O73315   8.574   7.206   8.228
24358WAT     H173316   8.642   7.176   8.294
24358WAT     H273317   8.590   7.162   8.140
24359WAT      O73318   5.091   0.593   6.841
24359WAT     H173319   5.125   0.608   6.748
24359WAT     H273320   5.051   0.678   6.875
24360WAT      O73321   2.474   9.054   4.869
24360WAT     H173322   2.532   9.135   4.857
24360WAT     H273323   2.499   8.985   4.801
24361WAT      O73324   1.967   0.558   8.819
24361WAT     H173325   1.961   0.470   8.867
24361WAT     H273326   1.881   0.608   8.831
24362WAT      O73327   6.541   3.139   1.222
24362WAT     H173328   6.616   3.075   1.238
24362WAT     H273329   6.493   3.156   1.308
24363WAT      O73330   4.419   2.573   1.221
24363WAT     H173331   4.467   2.552   1.136
24363WAT     H273332   4.387   2.488   1.262
24364WAT      O73333   0.960   5.677   7.346
24364WAT     H173334   1.019   5.757   7.353
24364WAT     H273335   1.000   5.600   7.397
24365WAT      O73336   8.565   6.641   8.704
24365WAT     H173337   8.596   6.633   8.609
24365WAT     H273338   8.638   6.679   8.760
24366WAT      O73339   5.943   7.410   5.719
24366WAT     H173340   6.033   7.371   5.740
24366WAT     H273341   5.950   7.510   5.718
24367WAT      O73342   6.377   3.703   5.384
24367WAT     H173343   6.334   3.728   5.298
24367WAT     H273344   6.470   3.740   5.388
24368WAT      O73345   2.650   4.177   1.116
24368WAT     H173346   2.636   4.081   1.092
24368WAT     H273347   2.562   4.225   1.115
24369WAT      O73348   5.630   6.488   2.962
24369WAT     H173349   5.590   6.403   2.994
24369WAT     H273350   5.677   6.534   3.038
24370WAT      O73351   5.646   1.723   1.238
24370WAT     H173352   5.714   1.714   1.311
24370WAT     H273353   5.683   1.685   1.153
24371WAT      O73354   5.067   6.788   3.187
24371WAT     H173355   5.068   6.751   3.280
24371WAT     H273356   5.160   6.788   3.150
24372WAT      O73357   8.644   2.989   6.240
24372WAT     H173358   8.694   3.017   6.157
24372WAT     H273359   8.702   2.927   6.293
24373WAT      O73360   5.406   1.441   3.170
24373WAT     H173361   5.403   1.440   3.070
24373WAT     H273362   5.446   1.526   3.202
24374WAT      O73363   0.481   3.838   5.288
24374WAT     H173364   0.563   3.782   5.289
24374WAT     H273365   0.495   3.921   5.342
24375WAT      O73366   8.650   4.750   7.953
24375WAT     H173367   8.593   4.682   7.908
24375WAT     H273368   8.605   4.839   7.948
24376WAT      O73369   0.431   6.516   6.255
24376WAT     H173370   0.440   6.518   6.354
24376WAT     H273371   0.336   6.536   6.230
24377WAT      O73372   2.379   9.026   6.573
24377WAT     H173373   2.377   9.089   6.651
24377WAT     H273374   2.410   8.936   6.604
24378WAT      O73375   6.746   6.156   4.719
24378WAT     H173376   6.658   6.176   4.763
24378WAT     H273377   6.732   6.151   4.620
24379WAT      O73378   5.754   6.034   0.874
24379WAT     H173379   5.790   5.944   0.900
24379WAT     H273380   5.781   6.102   0.942
24380WAT      O73381   6.301   2.778   5.426
24380WAT     H173382   6.383   2.739   5.466
24380WAT     H273383   6.295   2.752   5.330
24381WAT      O73384   7.828   5.454   7.625
24381WAT     H173385   7.745   5.506   7.648
24381WAT     H273386   7.807   5.389   7.551
24382WAT      O73387   3.145   4.765   8.312
24382WAT     H173388   3.121   4.670   8.332
24382WAT     H273389   3.072   4.808   8.260
24383WAT      O73390   9.509   7.089   4.121
24383WAT     H173391   9.595   7.133   4.094
24383WAT     H273392   9.498   7.095   4.220
24384WAT      O73393   3.497   6.416   7.355
24384WAT     H173394   3.582   6.382   7.315
24384WAT     H273395   3.453   6.480   7.292
24385WAT      O73396   2.332   5.693   1.765
24385WAT     H173397   2.304   5.774   1.713
24385WAT     H273398   2.280   5.688   1.850
24386WAT      O73399   4.476   2.339   8.224
24386WAT     H173400   4.487   2.299   8.315
24386WAT     H273401   4.527   2.425   8.220
24387WAT      O73402   9.218   3.036   6.340
24387WAT     H173403   9.251   3.115   6.392
24387WAT     H273404   9.222   3.057   6.242
24388WAT      O73405   0.632   3.578   3.295
24388WAT     H173406   0.630   3.502   3.360
24388WAT     H273407   0.685   3.653   3.333
24389WAT      O73408   5.452   8.521   5.976
24389WAT     H173409   5.498   8.586   6.036
24389WAT     H273410   5.469   8.546   5.880
24390WAT      O73411   5.677   3.264   6.831
24390WAT     H173412   5.680   3.359   6.863
24390WAT     H273413   5.702   3.203   6.906
24391WAT      O73414   0.238   9.587   9.483
24391WAT     H173415   0.248   9.628   9.573
24391WAT     H273416   0.141   9.573   9.463
24392WAT      O73417   8.625   6.679   8.021
24392WAT     H173418   8.591   6.701   8.112
24392WAT     H273419   8.624   6.760   7.963
24393WAT      O73420   2.010   8.057   0.868
24393WAT     H173421   1.986   8.145   0.828
24393WAT     H273422   1.986   7.983   0.805
24394WAT      O73423   7.060   8.273   0.722
24394WAT     H173424   6.963   8.275   0.748
24394WAT     H273425   7.116   8.265   0.804
24395WAT      O73426   8.654   6.572   5.464
24395WAT     H173427   8.740   6.589   5.512
24395WAT     H273428   8.578   6.584   5.528
24396WAT      O73429   6.944   7.832   2.378
24396WAT     H173430   6.961   7.886   2.296
24396WAT     H273431   6.848   7.841   2.405
24397WAT      O73432   5.696   9.463   8.428
24397WAT     H173433   5.716   9.561   8.432
24397WAT     H273434   5.737   9.424   8.345
24398WAT      O73435   7.070   0.375   4.467
24398WAT     H173436   7.156   0.329   4.490
24398WAT     H273437   7.045   0.438   4.540
24399WAT      O73438   7.683   1.515   6.029
24399WAT     H173439   7.758   1.499   5.966
24399WAT     H273440   7.633   1.430   6.044
24400WAT      O73441   8.530   6.403   6.079
24400WAT     H173442   8.553   6.477   6.143
24400WAT     H273443   8.497   6.324   6.130
24401WAT      O73444   8.555   6.367   0.054
24401WAT     H173445   8.558   6.287  -0.007
24401WAT     H273446   8.640   6.419   0.046
24402WAT      O73447   3.601   0.204   8.671
24402WAT     H173448   3.583   0.129   8.734
24402WAT     H273449   3.689   0.190   8.625
24403WAT      O73450   2.635   3.167   6.304
24403WAT     H173451   2.599   3.223   6.230
24403WAT     H273452   2.729   3.196   6.324
24404WAT      O73453   1.511   5.078   8.537
24404WAT     H173454   1.420   5.043   8.558
24404WAT     H273455   1.580   5.009   8.562
24405WAT      O73456   0.218   9.341   9.852
24405WAT     H173457   0.202   9.302   9.943
24405WAT     H273458   0.315   9.365   9.843
24406WAT      O73459   0.230   0.454   3.298
24406WAT     H173460   0.138   0.491   3.289
24406WAT     H273461   0.226   0.370   3.353
24407WAT      O73462   8.035   1.742   1.441
24407WAT     H173463   8.113   1.697   1.397
24407WAT     H273464   7.953   1.686   1.429
24408WAT      O73465   5.208   5.817   2.525
24408WAT     H173466   5.234   5.737   2.579
24408WAT     H273467   5.267   5.894   2.550
24409WAT      O73468   9.748   9.474   4.391
24409WAT     H173469   9.809   9.462   4.469
24409WAT     H273470   9.784   9.427   4.311
24410WAT      O73471   0.422   4.028   1.345
24410WAT     H173472   0.372   4.011   1.429
24410WAT     H273473   0.357   4.053   1.272
24411WAT      O73474   1.554   8.892   5.464
24411WAT     H173475   1.506   8.940   5.537
24411WAT     H273476   1.525   8.797   5.461
24412WAT      O73477   7.700   3.491   5.016
24412WAT     H173478   7.642   3.413   4.996
24412WAT     H273479   7.743   3.479   5.105
24413WAT      O73480   1.392   4.163   6.110
24413WAT     H173481   1.377   4.065   6.104
24413WAT     H273482   1.321   4.211   6.058
24414WAT      O73483   8.274   5.765   8.911
24414WAT     H173484   8.244   5.850   8.867
24414WAT     H273485   8.258   5.688   8.849
24415WAT      O73486   2.436   2.657   4.004
24415WAT     H173487   2.410   2.585   3.940
24415WAT     H273488   2.354   2.704   4.036
24416WAT      O73489   0.361   4.920   4.577
24416WAT     H173490   0.385   4.934   4.673
24416WAT     H273491   0.263   4.934   4.565
24417WAT      O73492   0.899   7.692   4.474
24417WAT     H173493   0.859   7.784   4.472
24417WAT     H273494   0.970   7.686   4.405
24418WAT      O73495   2.855   7.497   7.759
24418WAT     H173496   2.831   7.537   7.847
24418WAT     H273497   2.953   7.478   7.757
24419WAT      O73498   4.563   7.076   2.376
24419WAT     H173499   4.516   7.071   2.464
24419WAT     H273500   4.657   7.046   2.387
24420WAT      O73501   2.714   0.939   0.642
24420WAT     H173502   2.652   0.910   0.715
24420WAT     H273503   2.712   0.871   0.568
24421WAT      O73504   2.231   8.170   9.511
24421WAT     H173505   2.230   8.270   9.516
24421WAT     H273506   2.326   8.137   9.512
24422WAT      O73507   5.479   9.131   0.296
24422WAT     H173508   5.561   9.080   0.324
24422WAT     H273509   5.451   9.192   0.370
24423WAT      O73510   7.130   9.610   3.700
24423WAT     H173511   7.230   9.610   3.709
24423WAT     H273512   7.093   9.526   3.740
24424WAT      O73513   3.233   7.026   3.358
24424WAT     H173514   3.232   7.084   3.439
24424WAT     H273515   3.324   7.029   3.316
24425WAT      O73516   4.141   2.188   1.575
24425WAT     H173517   4.173   2.242   1.653
24425WAT     H273518   4.110   2.098   1.607
24426WAT      O73519   2.183   7.799   7.847
24426WAT     H173520   2.216   7.796   7.941
24426WAT     H273521   2.232   7.871   7.797
24427WAT      O73522   5.944   0.979   6.250
24427WAT     H173523   5.861   0.962   6.301
24427WAT     H273524   5.993   0.893   6.235
24428WAT      O73525   8.437   5.639   5.435
24428WAT     H173526   8.449   5.719   5.493
24428WAT     H273527   8.385   5.569   5.484
24429WAT      O73528   4.086   7.167   2.191
24429WAT     H173529   4.013   7.188   2.256
24429WAT     H273530   4.097   7.068   2.184
24430WAT      O73531   0.268   2.819   1.467
24430WAT     H173532   0.318   2.789   1.386
24430WAT     H273533   0.170   2.822   1.446
24431WAT      O73534   0.739   0.603   9.051
24431WAT     H173535   0.777   0.692   9.076
24431WAT     H273536   0.642   0.599   9.077
24432WAT      O73537   6.893   0.498   4.162
24432WAT     H173538   6.957   0.571   4.184
24432WAT     H273539   6.939   0.427   4.109
24433WAT      O73540   7.764   7.245   5.418
24433WAT     H173541   7.734   7.185   5.493
24433WAT     H273542   7.689   7.306   5.393
24434WAT      O73543   8.456   4.498   0.660
24434WAT     H173544   8.552   4.490   0.633
24434WAT     H273545   8.441   4.585   0.708
24435WAT      O73546   9.277   3.414   5.293
24435WAT     H173547   9.250   3.341   5.356
24435WAT     H273548   9.225   3.405   5.208
24436WAT      O73549   1.758   0.766   2.366
24436WAT     H173550   1.673   0.740   2.320
24436WAT     H273551   1.807   0.833   2.310
24437WAT      O73552   9.654   2.029   1.761
24437WAT     H173553   9.609   1.973   1.691
24437WAT     H273554   9.618   2.122   1.758
24438WAT      O73555   0.036   7.243   0.610
24438WAT     H173556  -0.054   7.226   0.569
24438WAT     H273557   0.030   7.234   0.709
24439WAT      O73558   6.219   6.835   0.875
24439WAT     H173559   6.288   6.837   0.804
24439WAT     H273560   6.231   6.914   0.936
24440WAT      O73561   0.446   8.606   4.805
24440WAT     H173562   0.421   8.518   4.846
24440WAT     H273563   0.510   8.591   4.730
24441WAT      O73564   5.621   9.543   5.783
24441WAT     H173565   5.687   9.468   5.788
24441WAT     H273566   5.593   9.557   5.688
24442WAT      O73567   7.292   3.468   0.692
24442WAT     H173568   7.326   3.441   0.603
24442WAT     H273569   7.341   3.419   0.764
24443WAT      O73570   2.447   6.419   3.149
24443WAT     H173571   2.440   6.361   3.068
24443WAT     H273572   2.381   6.494   3.141
24444WAT      O73573   6.123   4.436   7.886
24444WAT     H173574   6.033   4.422   7.844
24444WAT     H273575   6.194   4.397   7.827
24445WAT      O73576   9.256   6.402   6.281
24445WAT     H173577   9.219   6.494   6.275
24445WAT     H273578   9.202   6.348   6.345
24446WAT      O73579   7.725   6.776   6.222
24446WAT     H173580   7.777   6.775   6.307
24446WAT     H273581   7.745   6.859   6.171
24447WAT      O73582   0.171   1.892   8.333
24447WAT     H173583   0.165   1.794   8.314
24447WAT     H273584   0.126   1.911   8.421
24448WAT      O73585   5.920   7.769   7.709
24448WAT     H173586   5.842   7.738   7.764
24448WAT     H273587   5.946   7.861   7.737
24449WAT      O73588   9.595   0.313   6.191
24449WAT     H173589   9.620   0.407   6.164
24449WAT     H273590   9.678   0.262   6.213
24450WAT      O73591   9.365   7.745   8.000
24450WAT     H173592   9.346   7.821   8.063
24450WAT     H273593   9.346   7.775   7.906
24451WAT      O73594   7.003   7.218   7.617
24451WAT     H173595   7.059   7.156   7.562
24451WAT     H273596   7.047   7.235   7.705
24452WAT      O73597   3.601   1.759   3.204
24452WAT     H173598   3.639   1.732   3.116
24452WAT     H273599   3.530   1.828   3.190
24453WAT      O73600   5.806   6.223   5.600
24453WAT     H173601   5.791   6.224   5.502
24453WAT     H273602   5.803   6.316   5.636
24454WAT      O73603   7.896   0.774   3.780
24454WAT     H173604   7.935   0.696   3.830
24454WAT     H273605   7.855   0.837   3.846
24455WAT      O73606   5.407   6.848   9.513
24455WAT     H173607   5.448   6.929   9.553
24455WAT     H273608   5.329   6.874   9.456
24456WAT      O73609   0.655   0.347   0.673
24456WAT     H173610   0.631   0.250   0.674
24456WAT     H273611   0.639   0.384   0.581
24457WAT      O73612   8.911   1.218   6.721
24457WAT     H173613   8.874   1.160   6.794
24457WAT     H273614   8.964   1.162   6.657
24458WAT      O73615   7.325   8.768   1.413
24458WAT     H173616   7.354   8.758   1.508
24458WAT     H273617   7.403   8.747   1.353
24459WAT      O73618   3.778   2.454   3.596
24459WAT     H173619   3.807   2.493   3.683
24459WAT     H273620   3.685   2.483   3.575
24460WAT      O73621   7.933   5.280   1.014
24460WAT     H173622   7.950   5.262   1.110
24460WAT     H273623   7.838   5.309   1.002
24461WAT      O73624   3.355   4.661   0.222
24461WAT     H173625   3.323   4.756   0.216
24461WAT     H273626   3.340   4.615   0.135
24462WAT      O73627   8.740   6.612   1.753
24462WAT     H173628   8.748   6.700   1.705
24462WAT     H273629   8.831   6.578   1.777
24463WAT      O73630   8.806   4.587   8.808
24463WAT     H173631   8.894   4.625   8.780
24463WAT     H273632   8.787   4.504   8.756
24464WAT      O73633   6.689   6.284   0.276
24464WAT     H173634   6.620   6.258   0.209
24464WAT     H273635   6.658   6.365   0.327
24465WAT      O73636   1.742   6.668   9.823
24465WAT     H173637   1.680   6.655   9.746
24465WAT     H273638   1.832   6.631   9.800
24466WAT      O73639   3.787   5.929   3.957
24466WAT     H173640   3.803   5.875   3.874
24466WAT     H273641   3.869   5.925   4.015
24467WAT      O73642   0.873   4.325   6.421
24467WAT     H173643   0.922   4.393   6.366
24467WAT     H273644   0.906   4.329   6.515
24468WAT      O73645   6.493   7.184   8.464
24468WAT     H173646   6.527   7.091   8.478
24468WAT     H273647   6.399   7.181   8.429
24469WAT      O73648   7.970   7.598   1.126
24469WAT     H173649   7.991   7.546   1.209
24469WAT     H273650   7.871   7.596   1.110
24470WAT      O73651   3.728   8.031   7.022
24470WAT     H173652   3.805   8.031   6.958
24470WAT     H273653   3.733   7.950   7.081
24471WAT      O73654   3.132   2.722   5.425
24471WAT     H173655   3.084   2.661   5.362
24471WAT     H273656   3.230   2.718   5.406
24472WAT      O73657   1.431   0.852   1.103
24472WAT     H173658   1.367   0.890   1.036
24472WAT     H273659   1.516   0.905   1.102
24473WAT      O73660   9.871   5.653   5.887
24473WAT     H173661   9.951   5.594   5.897
24473WAT     H273662   9.793   5.598   5.857
24474WAT      O73663   1.454   5.092   1.033
24474WAT     H173664   1.469   5.131   0.942
24474WAT     H273665   1.430   5.164   1.097
24475WAT      O73666   9.150   5.421   0.417
24475WAT     H173667   9.104   5.430   0.505
24475WAT     H273668   9.082   5.407   0.345
24476WAT      O73669   2.220   3.923   9.003
24476WAT     H173670   2.242   3.956   9.095
24476WAT     H273671   2.288   3.856   8.974
24477WAT      O73672   5.155   5.761   3.851
24477WAT     H173673   5.126   5.748   3.756
24477WAT     H273674   5.201   5.850   3.859
24478WAT      O73675   3.179   5.215   3.297
24478WAT     H173676   3.261   5.178   3.340
24478WAT     H273677   3.140   5.147   3.236
24479WAT      O73678   9.180   0.999   0.822
24479WAT     H173679   9.221   1.068   0.882
24479WAT     H273680   9.123   0.938   0.876
24480WAT      O73681   1.229   3.672   0.649
24480WAT     H173682   1.198   3.762   0.620
24480WAT     H273683   1.316   3.651   0.603
24481WAT      O73684   3.038   1.347   2.747
24481WAT     H173685   2.981   1.415   2.795
24481WAT     H273686   3.106   1.394   2.691
24482WAT      O73687   1.777   8.548   7.516
24482WAT     H173688   1.705   8.588   7.459
24482WAT     H273689   1.862   8.599   7.503
24483WAT      O73690   1.127   8.339   9.859
24483WAT     H173691   1.133   8.367   9.954
24483WAT     H273692   1.061   8.398   9.811
24484WAT      O73693   8.690   6.451   2.172
24484WAT     H173694   8.608   6.400   2.200
24484WAT     H273695   8.756   6.452   2.247
24485WAT      O73696   1.820   8.324   0.480
24485WAT     H173697   1.821   8.405   0.421
24485WAT     H273698   1.847   8.244   0.427
24486WAT      O73699   5.417   1.219   3.328
24486WAT     H173700   5.392   1.304   3.282
24486WAT     H273701   5.491   1.175   3.278
24487WAT      O73702   3.175   8.099   5.664
24487WAT     H173703   3.218   8.038   5.730
24487WAT     H273704   3.221   8.188   5.664
24488WAT      O73705   5.424   9.489   8.490
24488WAT     H173706   5.431   9.557   8.563
24488WAT     H273707   5.516   9.462   8.461
24489WAT      O73708   3.225   0.220   0.695
24489WAT     H173709   3.281   0.150   0.739
24489WAT     H273710   3.193   0.187   0.606
24490WAT      O73711   7.662   8.648   0.444
24490WAT     H173712   7.736   8.706   0.411
24490WAT     H273713   7.643   8.576   0.378
24491WAT      O73714   9.359   2.317   7.719
24491WAT     H173715   9.452   2.338   7.747
24491WAT     H273716   9.309   2.402   7.700
24492WAT      O73717   4.854   1.486   5.464
24492WAT     H173718   4.819   1.421   5.532
24492WAT     H273719   4.811   1.466   5.375
24493WAT      O73720   1.819   2.230   2.442
24493WAT     H173721   1.817   2.283   2.357
24493WAT     H273722   1.777   2.141   2.426
24494WAT      O73723   6.839   0.528   1.368
24494WAT     H173724   6.803   0.493   1.455
24494WAT     H273725   6.763   0.559   1.311
24495WAT      O73726   5.391   0.377   1.583
24495WAT     H173727   5.466   0.424   1.535
24495WAT     H273728   5.304   0.406   1.544
24496WAT      O73729   7.725   5.085   5.584
24496WAT     H173730   7.689   5.126   5.668
24496WAT     H273731   7.654   5.027   5.542
24497WAT      O73732   2.887   2.724   3.316
24497WAT     H173733   2.963   2.667   3.346
24497WAT     H273734   2.911   2.769   3.230
24498WAT      O73735   2.853   7.281   9.483
24498WAT     H173736   2.922   7.352   9.497
24498WAT     H273737   2.765   7.312   9.522
24499WAT      O73738   6.983   0.494   2.482
24499WAT     H173739   6.924   0.563   2.439
24499WAT     H273740   7.011   0.526   2.573
24500WAT      O73741   3.448   7.744   5.996
24500WAT     H173742   3.445   7.688   6.079
24500WAT     H273743   3.543   7.767   5.975
24501WAT      O73744   3.714   3.296   5.853
24501WAT     H173745   3.740   3.210   5.809
24501WAT     H273746   3.654   3.277   5.930
24502WAT      O73747   3.289   9.557   3.568
24502WAT     H173748   3.204   9.516   3.533
24502WAT     H273749   3.273   9.594   3.660
24503WAT      O73750   0.689   6.079   6.340
24503WAT     H173751   0.659   6.162   6.385
24503WAT     H273752   0.703   6.097   6.243
24504WAT      O73753   7.625   7.403   0.827
24504WAT     H173754   7.536   7.447   0.841
24504WAT     H273755   7.613   7.304   0.825
24505WAT      O73756   5.031   9.561   0.069
24505WAT     H173757   5.027   9.462   0.058
24505WAT     H273758   4.966   9.603   0.006
24506WAT      O73759   8.126   9.094   3.041
24506WAT     H173760   8.057   9.091   3.113
24506WAT     H273761   8.094   9.041   2.962
24507WAT      O73762   5.268   8.338   9.879
24507WAT     H173763   5.295   8.317   9.784
24507WAT     H273764   5.203   8.270   9.911
24508WAT      O73765   4.077   0.073   4.252
24508WAT     H173766   4.001   0.076   4.317
24508WAT     H273767   4.052   0.122   4.169
24509WAT      O73768   8.048   8.880   6.276
24509WAT     H173769   8.052   8.977   6.250
24509WAT     H273770   7.980   8.834   6.218
24510WAT      O73771   8.964   0.320   2.832
24510WAT     H173772   8.948   0.353   2.739
24510WAT     H273773   8.906   0.240   2.850
24511WAT      O73774   4.062   0.437   4.074
24511WAT     H173775   3.994   0.454   4.145
24511WAT     H273776   4.058   0.341   4.047
24512WAT      O73777   2.201   9.443   6.042
24512WAT     H173778   2.107   9.409   6.031
24512WAT     H273779   2.254   9.376   6.093
24513WAT      O73780   2.307   2.582   6.545
24513WAT     H173781   2.388   2.538   6.582
24513WAT     H273782   2.232   2.577   6.611
24514WAT      O73783   0.667   7.680   7.443
24514WAT     H173784   0.727   7.620   7.390
24514WAT     H273785   0.720   7.725   7.514
24515WAT      O73786   8.125   1.511   9.588
24515WAT     H173787   8.165   1.545   9.503
24515WAT     H273788   8.066   1.433   9.567
24516WAT      O73789   4.412   8.324   3.277
24516WAT     H173790   4.509   8.300   3.275
24516WAT     H273791   4.390   8.370   3.363
24517WAT      O73792   5.286   0.602   5.977
24517WAT     H173793   5.263   0.694   5.945
24517WAT     H273794   5.228   0.580   6.056
24518WAT      O73795   4.155   0.638   5.050
24518WAT     H173796   4.069   0.676   5.015
24518WAT     H273797   4.226   0.646   4.980
24519WAT      O73798   8.383   2.017   8.886
24519WAT     H173799   8.331   2.062   8.814
24519WAT     H273800   8.465   2.071   8.906
24520WAT      O73801   2.125   4.898   1.582
24520WAT     H173802   2.029   4.905   1.607
24520WAT     H273803   2.182   4.922   1.660
24521WAT      O73804   6.065   5.253   7.647
24521WAT     H173805   6.083   5.345   7.683
24521WAT     H273806   6.079   5.253   7.548
24522WAT      O73807   1.817   5.516   9.717
24522WAT     H173808   1.916   5.528   9.728
24522WAT     H273809   1.793   5.420   9.732
24523WAT      O73810   9.777   9.101   9.272
24523WAT     H173811   9.721   9.033   9.318
24523WAT     H273812   9.819   9.060   9.190
24524WAT      O73813   5.376   8.346   3.702
24524WAT     H173814   5.293   8.294   3.722
24524WAT     H273815   5.398   8.403   3.781
24525WAT      O73816   0.708   1.864   9.712
24525WAT     H173817   0.690   1.827   9.803
24525WAT     H273818   0.660   1.951   9.702
24526WAT      O73819   0.293   5.115   2.440
24526WAT     H173820   0.331   5.097   2.531
24526WAT     H273821   0.351   5.179   2.391
24527WAT      O73822   4.281   7.925   6.075
24527WAT     H173823   4.303   7.956   5.982
24527WAT     H273824   4.196   7.968   6.105
24528WAT      O73825   1.556   7.857   3.397
24528WAT     H173826   1.559   7.956   3.414
24528WAT     H273827   1.649   7.820   3.401
24529WAT      O73828   3.086   9.316   7.204
24529WAT     H173829   3.015   9.347   7.142
24529WAT     H273830   3.123   9.228   7.172
24530WAT      O73831   7.083   7.823   7.077
24530WAT     H173832   7.166   7.856   7.122
24530WAT     H273833   7.099   7.816   6.979
24531WAT      O73834   2.124   5.219   5.180
24531WAT     H173835   2.079   5.210   5.269
24531WAT     H273836   2.223   5.217   5.192
24532WAT      O73837   0.844   9.162   0.823
24532WAT     H173838   0.912   9.107   0.774
24532WAT     H273839   0.834   9.251   0.777
24533WAT      O73840   3.028   7.016   2.063
24533WAT     H173841   3.054   6.990   1.970
24533WAT     H273842   2.972   6.944   2.104
24534WAT      O73843   6.206   0.106   6.375
24534WAT     H173844   6.143   0.045   6.423
24534WAT     H273845   6.283   0.054   6.340
24535WAT      O73846   4.275   4.055   6.903
24535WAT     H173847   4.336   4.130   6.877
24535WAT     H273848   4.308   3.969   6.864
24536WAT      O73849   4.650   3.384   5.556
24536WAT     H173850   4.620   3.375   5.461
24536WAT     H273851   4.728   3.446   5.561
24537WAT      O73852   0.749   5.238   5.408
24537WAT     H173853   0.728   5.251   5.311
24537WAT     H273854   0.788   5.322   5.445
24538WAT      O73855   7.805   5.422   5.823
24538WAT     H173856   7.797   5.512   5.865
24538WAT     H273857   7.721   5.370   5.838
24539WAT      O73858   0.697   4.014   5.491
24539WAT     H173859   0.735   3.927   5.522
24539WAT     H273860   0.609   4.029   5.536
24540WAT      O73861   1.953   9.428   0.610
24540WAT     H173862   1.935   9.462   0.518
24540WAT     H273863   1.895   9.476   0.676
24541WAT      O73864   6.465   4.079   5.239
24541WAT     H173865   6.368   4.099   5.256
24541WAT     H273866   6.475   3.982   5.217
24542WAT      O73867   3.427   7.641   8.771
24542WAT     H173868   3.519   7.631   8.810
24542WAT     H273869   3.416   7.734   8.737
24543WAT      O73870   7.455   4.911   2.286
24543WAT     H173871   7.413   4.820   2.297
24543WAT     H273872   7.538   4.916   2.340
24544WAT      O73873   9.426   8.908   8.510
24544WAT     H173874   9.345   8.956   8.545
24544WAT     H273875   9.437   8.929   8.412
24545WAT      O73876   1.954   1.582   0.587
24545WAT     H173877   1.922   1.604   0.679
24545WAT     H273878   2.043   1.623   0.571
24546WAT      O73879   5.159   8.395   0.850
24546WAT     H173880   5.127   8.306   0.883
24546WAT     H273881   5.236   8.382   0.789
24547WAT      O73882   9.866   5.705   7.265
24547WAT     H173883   9.776   5.734   7.296
24547WAT     H273884   9.898   5.629   7.322
24548WAT      O73885   4.958   2.596   4.721
24548WAT     H173886   4.865   2.563   4.711
24548WAT     H273887   5.005   2.592   4.632
24549WAT      O73888   8.162   5.806   5.528
24549WAT     H173889   8.259   5.788   5.547
24549WAT     H273890   8.109   5.789   5.611
24550WAT      O73891   6.139   9.539   3.793
24550WAT     H173892   6.135   9.540   3.893
24550WAT     H273893   6.196   9.464   3.763
24551WAT      O73894   8.415   5.407   1.932
24551WAT     H173895   8.353   5.437   2.004
24551WAT     H273896   8.481   5.479   1.911
24552WAT      O73897   7.022   3.559   8.011
24552WAT     H173898   7.115   3.543   8.046
24552WAT     H273899   6.992   3.480   7.957
24553WAT      O73900   9.124   7.237   9.084
24553WAT     H173901   9.046   7.283   9.041
24553WAT     H273902   9.089   7.171   9.151
24554WAT      O73903   6.741   2.329   9.612
24554WAT     H173904   6.770   2.267   9.685
24554WAT     H273905   6.757   2.424   9.641
24555WAT      O73906   3.590   2.398   2.171
24555WAT     H173907   3.549   2.363   2.087
24555WAT     H273908   3.611   2.495   2.160
24556WAT      O73909   4.035   8.183   4.792
24556WAT     H173910   4.074   8.189   4.884
24556WAT     H273911   4.047   8.271   4.745
24557WAT      O73912   3.327   6.359   4.814
24557WAT     H173913   3.265   6.327   4.742
24557WAT     H273914   3.420   6.329   4.794
24558WAT      O73915   6.548   5.864   3.685
24558WAT     H173916   6.624   5.861   3.620
24558WAT     H273917   6.583   5.864   3.778
24559WAT      O73918   7.544   4.622   7.172
24559WAT     H173919   7.511   4.537   7.213
24559WAT     H273920   7.610   4.600   7.100
24560WAT      O73921   0.230   4.598   7.524
24560WAT     H173922   0.172   4.516   7.524
24560WAT     H273923   0.274   4.607   7.614
24561WAT      O73924   5.892   6.991   7.151
24561WAT     H173925   5.921   6.903   7.113
24561WAT     H273926   5.834   6.976   7.231
24562WAT      O73927   5.145   3.791   5.105
24562WAT     H173928   5.156   3.723   5.033
24562WAT     H273929   5.228   3.847   5.110
24563WAT      O73930   8.158   1.428   4.715
24563WAT     H173931   8.086   1.497   4.705
24563WAT     H273932   8.117   1.342   4.748
24564WAT      O73933   7.608   2.689   1.740
24564WAT     H173934   7.577   2.598   1.712
24564WAT     H273935   7.701   2.704   1.707
24565WAT      O73936   8.843   7.857   2.822
24565WAT     H173937   8.882   7.798   2.892
24565WAT     H273938   8.874   7.951   2.836
24566WAT      O73939   0.390   8.445   4.534
24566WAT     H173940   0.395   8.348   4.511
24566WAT     H273941   0.298   8.466   4.567
24567WAT      O73942   9.096   7.251   9.456
24567WAT     H173943   9.045   7.337   9.463
24567WAT     H273944   9.075   7.207   9.369
24568WAT      O73945   4.063   6.145   9.464
24568WAT     H173946   4.014   6.069   9.507
24568WAT     H273947   4.058   6.226   9.523
24569WAT      O73948   3.403   5.586   9.213
24569WAT     H173949   3.433   5.495   9.239
24569WAT     H273950   3.474   5.629   9.157
24570WAT      O73951   2.179   9.037   3.857
24570WAT     H173952   2.183   9.100   3.779
24570WAT     H273953   2.211   8.947   3.827
24571WAT      O73954   7.266   6.760   7.032
24571WAT     H173955   7.223   6.826   7.094
24571WAT     H273956   7.264   6.796   6.939
24572WAT      O73957   5.815   2.811   8.837
24572WAT     H173958   5.784   2.735   8.894
24572WAT     H273959   5.803   2.787   8.740
24573WAT      O73960   4.235   1.153   3.213
24573WAT     H173961   4.315   1.180   3.267
24573WAT     H273962   4.264   1.130   3.120
24574WAT      O73963   5.844   5.247   1.375
24574WAT     H173964   5.914   5.182   1.346
24574WAT     H273965   5.864   5.279   1.467
24575WAT      O73966   2.509   5.765   3.061
24575WAT     H173967   2.537   5.681   3.016
24575WAT     H273968   2.512   5.841   2.995
24576WAT      O73969   9.122   5.726   8.651
24576WAT     H173970   9.220   5.744   8.656
24576WAT     H273971   9.103   5.634   8.686
24577WAT      O73972   1.817   7.984   8.028
24577WAT     H173973   1.841   7.923   8.104
24577WAT     H273974   1.857   7.949   7.943
24578WAT      O73975   3.678   5.956   2.616
24578WAT     H173976   3.579   5.970   2.616
24578WAT     H273977   3.723   6.039   2.649
24579WAT      O73978   7.889   0.396   5.150
24579WAT     H173979   7.909   0.299   5.158
24579WAT     H273980   7.874   0.435   5.241
24580WAT      O73981   7.255   7.045   9.493
24580WAT     H173982   7.319   7.095   9.435
24580WAT     H273983   7.213   7.108   9.558
24581WAT      O73984   5.786   3.925   0.108
24581WAT     H173985   5.773   3.831   0.077
24581WAT     H273986   5.821   3.924   0.202
24582WAT      O73987   4.161   1.028   9.127
24582WAT     H173988   4.188   0.933   9.110
24582WAT     H273989   4.179   1.084   9.046
24583WAT      O73990   6.241   1.532   3.962
24583WAT     H173991   6.297   1.535   3.879
24583WAT     H273992   6.192   1.618   3.973
24584WAT      O73993   6.083   6.112   6.537
24584WAT     H173994   6.022   6.183   6.502
24584WAT     H273995   6.045   6.074   6.622
24585WAT      O73996   4.490   8.247   6.447
24585WAT     H173997   4.586   8.262   6.473
24585WAT     H273998   4.487   8.188   6.367
24586WAT      O73999   6.758   0.869   6.183
24586WAT     H174000   6.797   0.810   6.253
24586WAT     H274001   6.824   0.942   6.161
24587WAT      O74002   1.555   4.849   1.771
24587WAT     H174003   1.519   4.923   1.829
24587WAT     H274004   1.632   4.805   1.817
24588WAT      O74005   8.896   8.137   4.489
24588WAT     H174006   8.939   8.221   4.523
24588WAT     H274007   8.832   8.160   4.416
24589WAT      O74008   3.719   0.594   1.856
24589WAT     H174009   3.808   0.593   1.811
24589WAT     H274010   3.731   0.591   1.955
24590WAT      O74011   5.592   8.332   4.072
24590WAT     H174012   5.564   8.347   4.167
24590WAT     H274013   5.511   8.336   4.012
24591WAT      O74014   8.567   0.684   7.557
24591WAT     H174015   8.533   0.651   7.645
24591WAT     H274016   8.611   0.773   7.569
24592WAT      O74017   8.329   3.411   4.085
24592WAT     H174018   8.284   3.487   4.131
24592WAT     H274019   8.423   3.402   4.117
24593WAT      O74020   3.299   9.247   2.106
24593WAT     H174021   3.246   9.332   2.101
24593WAT     H274022   3.392   9.267   2.135
24594WAT      O74023   1.878   1.745   2.534
24594WAT     H174024   1.818   1.691   2.592
24594WAT     H274025   1.973   1.717   2.549
24595WAT      O74026   4.716   7.566   1.556
24595WAT     H174027   4.634   7.527   1.597
24595WAT     H274028   4.786   7.579   1.627
24596WAT      O74029   3.631   9.758   9.815
24596WAT     H174030   3.544   9.738   9.771
24596WAT     H274031   3.654   9.854   9.800
24597WAT      O74032   3.669   8.528   0.170
24597WAT     H174033   3.694   8.501   0.262
24597WAT     H274034   3.655   8.446   0.113
24598WAT      O74035   0.390   5.790   7.631
24598WAT     H174036   0.371   5.866   7.694
24598WAT     H274037   0.387   5.703   7.682
24599WAT      O74038   8.096   5.142   1.903
24599WAT     H174039   8.130   5.127   1.810
24599WAT     H274040   7.999   5.166   1.900
24600WAT      O74041   0.584   5.300   0.378
24600WAT     H174042   0.586   5.200   0.380
24600WAT     H274043   0.613   5.332   0.288
24601WAT      O74044   6.504   3.644   0.150
24601WAT     H174045   6.473   3.648   0.245
24601WAT     H274046   6.604   3.654   0.147
24602WAT      O74047   9.026   2.717   7.469
24602WAT     H174048   9.046   2.800   7.521
24602WAT     H274049   9.090   2.709   7.392
24603WAT      O74050   1.996   2.840   2.773
24603WAT     H174051   1.955   2.931   2.762
24603WAT     H274052   1.970   2.801   2.861
24604WAT      O74053   2.281   1.991   9.840
24604WAT     H174054   2.341   1.940   9.901
24604WAT     H274055   2.188   1.954   9.846
24605WAT      O74056   1.566   2.416   9.326
24605WAT     H174057   1.500   2.380   9.392
24605WAT     H274058   1.659   2.399   9.360
24606WAT      O74059   0.761   0.919   0.907
24606WAT     H174060   0.736   0.879   0.819
24606WAT     H274061   0.814   1.003   0.892
24607WAT      O74062   4.782   9.584   5.216
24607WAT     H174063   4.822   9.593   5.307
24607WAT     H274064   4.683   9.594   5.222
24608WAT      O74065   3.384   4.604   3.848
24608WAT     H174066   3.389   4.702   3.864
24608WAT     H274067   3.459   4.576   3.788
24609WAT      O74068   5.748   9.317   1.536
24609WAT     H174069   5.662   9.320   1.486
24609WAT     H274070   5.791   9.228   1.523
24610WAT      O74071   4.332   9.147   8.399
24610WAT     H174072   4.235   9.167   8.408
24610WAT     H274073   4.346   9.048   8.399
24611WAT      O74074   7.825   2.148   0.700
24611WAT     H174075   7.877   2.124   0.618
24611WAT     H274076   7.727   2.148   0.680
24612WAT      O74077   8.240   8.675   2.683
24612WAT     H174078   8.234   8.575   2.683
24612WAT     H274079   8.311   8.704   2.618
24613WAT      O74080   7.101   8.499   4.839
24613WAT     H174081   7.099   8.508   4.939
24613WAT     H274082   7.195   8.506   4.807
24614WAT      O74083   8.099   1.970   2.125
24614WAT     H174084   8.008   1.949   2.160
24614WAT     H274085   8.121   1.908   2.050
24615WAT      O74086   9.284   8.570   3.185
24615WAT     H174087   9.318   8.657   3.148
24615WAT     H274088   9.190   8.555   3.153
24616WAT      O74089   4.702   5.835   9.208
24616WAT     H174090   4.685   5.931   9.233
24616WAT     H274091   4.623   5.799   9.157
24617WAT      O74092   4.808   8.844   5.476
24617WAT     H174093   4.736   8.911   5.460
24617WAT     H274094   4.888   8.868   5.421
24618WAT      O74095   5.600   2.300   3.571
24618WAT     H174096   5.651   2.294   3.484
24618WAT     H274097   5.503   2.285   3.553
24619WAT      O74098   3.184   1.708   2.023
24619WAT     H174099   3.129   1.791   2.024
24619WAT     H274100   3.249   1.713   1.947
24620WAT      O74101   0.562   9.364   0.779
24620WAT     H174102   0.641   9.344   0.721
24620WAT     H274103   0.577   9.329   0.871
24621WAT      O74104   8.880   7.659   6.229
24621WAT     H174105   8.906   7.640   6.324
24621WAT     H274106   8.906   7.753   6.206
24622WAT      O74107   3.907   7.318   4.224
24622WAT     H174108   3.909   7.235   4.280
24622WAT     H274109   3.864   7.298   4.136
24623WAT      O74110   8.456   6.640   0.778
24623WAT     H174111   8.398   6.577   0.831
24623WAT     H274112   8.471   6.723   0.831
24624WAT      O74113   5.098   1.728   3.257
24624WAT     H174114   5.139   1.690   3.174
24624WAT     H274115   5.008   1.686   3.272
24625WAT      O74116   8.380   7.915   8.949
24625WAT     H174117   8.416   7.984   9.013
24625WAT     H274118   8.294   7.947   8.910
24626WAT      O74119   8.100   2.464   1.520
24626WAT     H174120   8.160   2.500   1.591
24626WAT     H274121   8.142   2.383   1.479
24627WAT      O74122   1.161   1.171   7.309
24627WAT     H174123   1.103   1.096   7.278
24627WAT     H274124   1.212   1.143   7.390
24628WAT      O74125   3.491   0.090   7.376
24628WAT     H174126   3.417   0.155   7.397
24628WAT     H274127   3.571   0.141   7.343
24629WAT      O74128   3.683   1.903   8.058
24629WAT     H174129   3.686   1.924   7.961
24629WAT     H274130   3.714   1.982   8.111
24630WAT      O74131   3.071   1.362   4.968
24630WAT     H174132   3.108   1.332   5.057
24630WAT     H274133   2.973   1.346   4.966
24631WAT      O74134   0.132   2.983   2.394
24631WAT     H174135   0.107   3.078   2.415
24631WAT     H274136   0.052   2.924   2.407
24632WAT      O74137   7.405   0.757   9.601
24632WAT     H174138   7.399   0.747   9.502
24632WAT     H274139   7.315   0.739   9.642
24633WAT      O74140   5.532   6.634   1.751
24633WAT     H174141   5.599   6.679   1.691
24633WAT     H274142   5.579   6.568   1.809
24634WAT      O74143   8.188   0.446   7.094
24634WAT     H174144   8.154   0.422   7.003
24634WAT     H274145   8.251   0.523   7.087
24635WAT      O74146   0.026   5.672   9.004
24635WAT     H174147   0.047   5.754   8.951
24635WAT     H274148   0.110   5.637   9.045
24636WAT      O74149   1.431   4.327   8.753
24636WAT     H174150   1.424   4.230   8.730
24636WAT     H274151   1.342   4.371   8.743
24637WAT      O74152   2.695   5.232   3.220
24637WAT     H174153   2.764   5.265   3.284
24637WAT     H274154   2.702   5.133   3.211
24638WAT      O74155   7.155   8.150   3.321
24638WAT     H174156   7.163   8.250   3.320
24638WAT     H274157   7.062   8.125   3.349
24639WAT      O74158   1.878   5.508   9.272
24639WAT     H174159   1.899   5.440   9.342
24639WAT     H274160   1.883   5.600   9.313
24640WAT      O74161   3.737   8.532   6.755
24640WAT     H174162   3.678   8.568   6.682
24640WAT     H274163   3.751   8.434   6.741
24641WAT      O74164   8.525   0.123   3.417
24641WAT     H174165   8.490   0.187   3.349
24641WAT     H274166   8.460   0.048   3.429
24642WAT      O74167   6.536   0.542   3.588
24642WAT     H174168   6.591   0.603   3.531
24642WAT     H274169   6.441   0.570   3.585
24643WAT      O74170   4.589   7.315   2.902
24643WAT     H174171   4.555   7.222   2.918
24643WAT     H274172   4.520   7.369   2.854
24644WAT      O74173   0.679   3.239   7.077
24644WAT     H174174   0.754   3.197   7.026
24644WAT     H274175   0.709   3.326   7.115
24645WAT      O74176   0.467   8.010   7.564
24645WAT     H174177   0.371   8.037   7.564
24645WAT     H274178   0.489   7.964   7.478
24646WAT      O74179   1.345   4.478   0.928
24646WAT     H174180   1.411   4.441   0.993
24646WAT     H274181   1.300   4.403   0.880
24647WAT      O74182   7.740   8.356   2.348
24647WAT     H174183   7.655   8.394   2.312
24647WAT     H274184   7.769   8.280   2.290
24648WAT      O74185   0.036   4.330   1.467
24648WAT     H174186  -0.018   4.400   1.514
24648WAT     H274187   0.128   4.365   1.450
24649WAT      O74188   1.844   3.531   6.149
24649WAT     H174189   1.915   3.492   6.208
24649WAT     H274190   1.765   3.469   6.147
24650WAT      O74191   1.774   5.454   7.794
24650WAT     H174192   1.761   5.512   7.714
24650WAT     H274193   1.871   5.445   7.814
24651WAT      O74194   3.295   9.154   1.311
24651WAT     H174195   3.343   9.206   1.240
24651WAT     H274196   3.359   9.128   1.383
24652WAT      O74197   7.482   7.782   6.859
24652WAT     H174198   7.431   7.701   6.889
24652WAT     H274199   7.580   7.764   6.866
24653WAT      O74200   9.491   5.954   9.744
24653WAT     H174201   9.429   6.021   9.703
24653WAT     H274202   9.584   5.991   9.747
24654WAT      O74203   0.532   5.753   6.702
24654WAT     H174204   0.571   5.804   6.625
24654WAT     H274205   0.534   5.810   6.784
24655WAT      O74206   5.708   7.057   1.893
24655WAT     H174207   5.639   7.094   1.831
24655WAT     H274208   5.796   7.102   1.877
24656WAT      O74209   2.347   0.911   5.943
24656WAT     H174210   2.336   0.816   5.974
24656WAT     H274211   2.302   0.972   6.008
24657WAT      O74212   5.973   1.828   5.771
24657WAT     H174213   5.922   1.775   5.839
24657WAT     H274214   6.071   1.823   5.790
24658WAT      O74215   2.558   0.089   6.166
24658WAT     H174216   2.564   0.003   6.115
24658WAT     H274217   2.463   0.108   6.188
24659WAT      O74218   2.200   1.870   8.026
24659WAT     H174219   2.138   1.819   8.084
24659WAT     H274220   2.248   1.939   8.081
24660WAT      O74221   3.676   5.183   9.022
24660WAT     H174222   3.716   5.265   8.982
24660WAT     H274223   3.577   5.195   9.032
24661WAT      O74224   7.861   3.621   5.793
24661WAT     H174225   7.789   3.647   5.728
24661WAT     H274226   7.898   3.532   5.768
24662WAT      O74227   8.502   1.535   6.880
24662WAT     H174228   8.578   1.478   6.849
24662WAT     H274229   8.467   1.589   6.803
24663WAT      O74230   5.699   2.028   1.939
24663WAT     H174231   5.608   1.986   1.932
24663WAT     H274232   5.700   2.113   1.888
24664WAT      O74233   0.734   2.503   5.678
24664WAT     H174234   0.720   2.472   5.772
24664WAT     H274235   0.650   2.544   5.643
24665WAT      O74236   2.602   5.499   8.338
24665WAT     H174237   2.599   5.445   8.254
24665WAT     H274238   2.511   5.534   8.359
24666WAT      O74239   9.266   5.957   2.945
24666WAT     H174240   9.295   5.896   2.871
24666WAT     H274241   9.166   5.962   2.947
24667WAT      O74242   4.142   2.583   9.543
24667WAT     H174243   4.240   2.599   9.545
24667WAT     H274244   4.093   2.665   9.572
24668WAT      O74245   6.989   7.076   8.345
24668WAT     H174246   7.035   7.005   8.398
24668WAT     H274247   7.003   7.165   8.389
24669WAT      O74248   8.507   2.474   5.574
24669WAT     H174249   8.426   2.425   5.541
24669WAT     H274250   8.506   2.475   5.674
24670WAT      O74251   1.822   9.155   6.171
24670WAT     H174252   1.833   9.072   6.117
24670WAT     H274253   1.740   9.205   6.140
24671WAT      O74254   4.087   3.397   7.048
24671WAT     H174255   4.182   3.386   7.020
24671WAT     H274256   4.060   3.493   7.035
24672WAT      O74257   7.718   4.970   9.462
24672WAT     H174258   7.638   5.012   9.419
24672WAT     H274259   7.737   5.016   9.548
24673WAT      O74260   3.357   1.649   3.902
24673WAT     H174261   3.294   1.594   3.957
24673WAT     H274262   3.320   1.659   3.809
24674WAT      O74263   9.399   3.483   2.817
24674WAT     H174264   9.430   3.467   2.723
24674WAT     H274265   9.464   3.440   2.881
24675WAT      O74266   0.942   5.676   7.085
24675WAT     H174267   0.949   5.679   7.185
24675WAT     H274268   0.981   5.760   7.046
24676WAT      O74269   2.823   7.350   2.269
24676WAT     H174270   2.849   7.366   2.173
24676WAT     H274271   2.867   7.418   2.327
24677WAT      O74272   3.160   0.758   1.808
24677WAT     H174273   3.171   0.776   1.710
24677WAT     H274274   3.095   0.683   1.821
24678WAT      O74275   9.091   7.588   4.065
24678WAT     H174276   9.067   7.681   4.094
24678WAT     H274277   9.009   7.531   4.061
24679WAT      O74278   0.696   6.212   2.050
24679WAT     H174279   0.650   6.132   2.087
24679WAT     H274280   0.659   6.295   2.093
24680WAT      O74281   6.952   1.432   8.624
24680WAT     H174282   7.014   1.354   8.632
24680WAT     H274283   6.898   1.424   8.540
24681WAT      O74284   0.790   7.779   9.328
24681WAT     H174285   0.739   7.714   9.385
24681WAT     H274286   0.727   7.822   9.263
24682WAT      O74287   1.301   0.724   1.332
24682WAT     H174288   1.317   0.804   1.390
24682WAT     H274289   1.363   0.727   1.254
24683WAT      O74290   0.650   8.046   6.574
24683WAT     H174291   0.692   8.103   6.644
24683WAT     H274292   0.699   8.056   6.488
24684WAT      O74293   8.594   3.879   8.350
24684WAT     H174294   8.616   3.864   8.447
24684WAT     H274295   8.669   3.844   8.294
24685WAT      O74296   1.453   5.829   9.291
24685WAT     H174297   1.455   5.881   9.206
24685WAT     H274298   1.503   5.879   9.362
24686WAT      O74299   0.046   7.464   4.853
24686WAT     H174300  -0.043   7.485   4.893
24686WAT     H274301   0.049   7.497   4.758
24687WAT      O74302   4.771   8.570   8.815
24687WAT     H174303   4.785   8.668   8.798
24687WAT     H274304   4.847   8.518   8.775
24688WAT      O74305   5.522   6.467   2.674
24688WAT     H174306   5.450   6.536   2.661
24688WAT     H274307   5.558   6.473   2.767
24689WAT      O74308   5.865   3.058   8.342
24689WAT     H174309   5.816   3.135   8.301
24689WAT     H274310   5.963   3.071   8.331
24690WAT      O74311   4.044   8.647   7.089
24690WAT     H174312   4.013   8.585   7.161
24690WAT     H274313   3.966   8.676   7.034
24691WAT      O74314   1.662   9.267   2.788
24691WAT     H174315   1.680   9.205   2.865
24691WAT     H274316   1.563   9.282   2.780
24692WAT      O74317   9.063   9.395   1.502
24692WAT     H174318   9.036   9.479   1.453
24692WAT     H274319   9.064   9.319   1.437
24693WAT      O74320   5.275   9.495   3.926
24693WAT     H174321   5.282   9.460   3.832
24693WAT     H274322   5.241   9.422   3.986
24694WAT      O74323   7.745   6.573   5.514
24694WAT     H174324   7.679   6.591   5.442
24694WAT     H274325   7.710   6.501   5.574
24695WAT      O74326   5.222   1.820   2.484
24695WAT     H174327   5.139   1.875   2.478
24695WAT     H274328   5.298   1.868   2.440
24696WAT      O74329   4.546   4.091   4.758
24696WAT     H174330   4.630   4.081   4.705
24696WAT     H274331   4.474   4.034   4.717
24697WAT      O74332   6.128   5.574   0.010
24697WAT     H174333   6.073   5.542  -0.067
24697WAT     H274334   6.077   5.561   0.095
24698WAT      O74335   3.795   7.265   1.143
24698WAT     H174336   3.820   7.251   1.239
24698WAT     H274337   3.846   7.343   1.107
24699WAT      O74338   3.263   7.669   0.917
24699WAT     H174339   3.325   7.639   0.845
24699WAT     H274340   3.239   7.765   0.902
24700WAT      O74341   1.528   5.906   9.769
24700WAT     H174342   1.482   5.825   9.806
24700WAT     H274343   1.587   5.945   9.840
24701WAT      O74344   9.694   8.596   8.045
24701WAT     H174345   9.723   8.546   8.127
24701WAT     H274346   9.759   8.669   8.025
24702WAT      O74347   4.340   1.295   3.872
24702WAT     H174348   4.284   1.265   3.950
24702WAT     H274349   4.337   1.394   3.864
24703WAT      O74350   2.911   4.624   6.000
24703WAT     H174351   2.857   4.694   6.047
24703WAT     H274352   2.976   4.583   6.065
24704WAT      O74353   3.895   2.584   3.859
24704WAT     H174354   3.865   2.675   3.831
24704WAT     H274355   3.987   2.567   3.822
24705WAT      O74356   2.867   8.548   1.808
24705WAT     H174357   2.781   8.513   1.770
24705WAT     H274358   2.912   8.475   1.860
24706WAT      O74359   6.366   6.514   3.467
24706WAT     H174360   6.395   6.458   3.544
24706WAT     H274361   6.400   6.607   3.479
24707WAT      O74362   7.788   0.198   1.893
24707WAT     H174363   7.794   0.114   1.947
24707WAT     H274364   7.715   0.256   1.928
24708WAT      O74365   6.046   6.320   1.522
24708WAT     H174366   6.039   6.238   1.465
24708WAT     H274367   6.060   6.400   1.463
24709WAT      O74368   2.632   8.504   3.336
24709WAT     H174369   2.592   8.565   3.267
24709WAT     H274370   2.731   8.510   3.332
24710WAT      O74371   0.676   0.065   8.635
24710WAT     H174372   0.615   0.033   8.562
24710WAT     H274373   0.627   0.067   8.721
24711WAT      O74374   9.308   4.244   1.170
24711WAT     H174375   9.356   4.309   1.111
24711WAT     H274376   9.222   4.284   1.200
24712WAT      O74377   2.108   6.299   1.435
24712WAT     H174378   2.180   6.238   1.403
24712WAT     H274379   2.034   6.244   1.475
24713WAT      O74380   7.439   7.373   9.714
24713WAT     H174381   7.444   7.384   9.615
24713WAT     H274382   7.403   7.456   9.755
24714WAT      O74383   5.920   7.950   1.958
24714WAT     H174384   5.935   7.998   1.871
24714WAT     H274385   5.869   7.865   1.941
24715WAT      O74386   4.131   8.620   3.078
24715WAT     H174387   4.177   8.700   3.038
24715WAT     H274388   4.147   8.540   3.020
24716WAT      O74389   8.385   4.994   7.637
24716WAT     H174390   8.428   5.061   7.697
24716WAT     H274391   8.299   4.964   7.677
24717WAT      O74392   9.693   9.534   1.308
24717WAT     H174393   9.734   9.461   1.363
24717WAT     H274394   9.594   9.520   1.305
24718WAT      O74395   7.882   7.697   6.056
24718WAT     H174396   7.885   7.598   6.041
24718WAT     H274397   7.955   7.740   6.003
24719WAT      O74398   1.418   8.701   4.276
24719WAT     H174399   1.424   8.800   4.262
24719WAT     H274400   1.373   8.659   4.197
24720WAT      O74401   7.529   4.917   5.547
24720WAT     H174402   7.470   4.964   5.613
24720WAT     H274403   7.487   4.831   5.520
24721WAT      O74404   8.403   8.379   3.198
24721WAT     H174405   8.360   8.435   3.127
24721WAT     H274406   8.352   8.295   3.210
24722WAT      O74407   1.637   4.546   7.994
24722WAT     H174408   1.717   4.553   8.053
24722WAT     H274409   1.633   4.455   7.953
24723WAT      O74410   3.294   3.704   0.319
24723WAT     H174411   3.240   3.627   0.353
24723WAT     H274412   3.380   3.710   0.370
24724WAT      O74413   8.181   0.393   2.773
24724WAT     H174414   8.239   0.313   2.755
24724WAT     H274415   8.157   0.395   2.871
24725WAT      O74416   5.807   7.744   4.997
24725WAT     H174417   5.900   7.715   5.018
24725WAT     H274418   5.784   7.826   5.049
24726WAT      O74419   1.302   4.218   7.405
24726WAT     H174420   1.385   4.260   7.368
24726WAT     H274421   1.308   4.217   7.505
24727WAT      O74422   2.108   1.111   2.029
24727WAT     H174423   2.074   1.021   2.000
24727WAT     H274424   2.161   1.101   2.113
24728WAT      O74425   8.764   2.628   7.160
24728WAT     H174426   8.670   2.634   7.125
24728WAT     H274427   8.802   2.720   7.168
24729WAT      O74428   1.921   3.992   3.531
24729WAT     H174429   1.890   3.899   3.552
24729WAT     H274430   1.943   3.999   3.434
24730WAT      O74431   2.836   2.906   9.481
24730WAT     H174432   2.737   2.924   9.486
24730WAT     H274433   2.866   2.908   9.386
24731WAT      O74434   8.801   5.973   1.709
24731WAT     H174435   8.723   5.929   1.665
24731WAT     H274436   8.884   5.921   1.690
24732WAT      O74437   9.338   0.254   2.579
24732WAT     H174438   9.305   0.296   2.663
24732WAT     H274439   9.436   0.271   2.569
24733WAT      O74440   8.283   6.208   7.001
24733WAT     H174441   8.263   6.128   6.944
24733WAT     H274442   8.302   6.177   7.094
24734WAT      O74443   4.302   3.003   6.195
24734WAT     H174444   4.373   3.065   6.229
24734WAT     H274445   4.336   2.954   6.115
24735WAT      O74446   9.739   3.547   7.553
24735WAT     H174447   9.669   3.609   7.517
24735WAT     H274448   9.825   3.596   7.561
24736WAT      O74449   7.420   2.733   7.175
24736WAT     H174450   7.441   2.831   7.173
24736WAT     H274451   7.333   2.717   7.129
24737WAT      O74452   3.011   0.494   7.343
24737WAT     H174453   2.983   0.417   7.401
24737WAT     H274454   3.027   0.462   7.250
24738WAT      O74455   4.985   6.981   0.347
24738WAT     H174456   5.060   6.959   0.285
24738WAT     H274457   4.964   6.902   0.404
24739WAT      O74458   2.434   5.001   9.712
24739WAT     H174459   2.469   4.922   9.761
24739WAT     H274460   2.486   5.014   9.627
24740WAT      O74461   0.171   0.960   3.639
24740WAT     H174462   0.107   1.019   3.688
24740WAT     H274463   0.212   1.010   3.563
24741WAT      O74464   8.929   0.727   4.166
24741WAT     H174465   8.841   0.732   4.212
24741WAT     H274466   9.001   0.703   4.232
24742WAT      O74467   4.067   4.356   5.313
24742WAT     H174468   4.033   4.437   5.264
24742WAT     H274469   4.047   4.274   5.260
24743WAT      O74470   3.028   0.560   1.427
24743WAT     H174471   2.973   0.600   1.355
24743WAT     H274472   3.120   0.600   1.425
24744WAT      O74473   6.903   6.522   8.032
24744WAT     H174474   6.956   6.438   8.032
24744WAT     H274475   6.859   6.534   8.121
24745WAT      O74476   4.617   2.663   7.946
24745WAT     H174477   4.547   2.603   7.907
24745WAT     H274478   4.583   2.757   7.946
24746WAT      O74479   6.373   7.185   3.812
24746WAT     H174480   6.462   7.206   3.852
24746WAT     H274481   6.336   7.103   3.855
24747WAT      O74482   8.891   0.584   0.425
24747WAT     H174483   8.797   0.616   0.436
24747WAT     H274484   8.918   0.593   0.330
24748WAT      O74485   8.588   5.958   4.613
24748WAT     H174486   8.675   5.928   4.653
24748WAT     H274487   8.538   5.879   4.578
24749WAT      O74488   5.274   8.515   3.190
24749WAT     H174489   5.185   8.469   3.184
24749WAT     H274490   5.263   8.612   3.166
24750WAT      O74491   4.612   1.536   0.112
24750WAT     H174492   4.613   1.439   0.138
24750WAT     H274493   4.537   1.583   0.158
24751WAT      O74494   7.092   3.248   5.857
24751WAT     H174495   7.170   3.239   5.795
24751WAT     H274496   7.013   3.282   5.806
24752WAT      O74497   9.332   4.052   8.305
24752WAT     H174498   9.360   3.959   8.328
24752WAT     H274499   9.405   4.097   8.253
24753WAT      O74500   3.970   6.179   8.996
24753WAT     H174501   3.942   6.133   9.080
24753WAT     H274502   3.936   6.273   8.996
24754WAT      O74503   9.097   0.498   6.692
24754WAT     H174504   9.008   0.453   6.683
24754WAT     H274505   9.149   0.486   6.608
24755WAT      O74506   9.232   5.926   1.903
24755WAT     H174507   9.235   5.914   2.002
24755WAT     H274508   9.209   6.021   1.882
24756WAT      O74509   5.923   1.733   5.139
24756WAT     H174510   6.012   1.748   5.182
24756WAT     H274511   5.893   1.816   5.092
24757WAT      O74512   8.939   3.269   6.142
24757WAT     H174513   8.870   3.246   6.211
24757WAT     H274514   9.008   3.196   6.138
24758WAT      O74515   4.105   8.704   3.342
24758WAT     H174516   4.202   8.708   3.365
24758WAT     H274517   4.094   8.671   3.248
24759WAT      O74518   5.286   7.031   6.227
24759WAT     H174519   5.191   7.056   6.243
24759WAT     H274520   5.294   6.989   6.136
24760WAT      O74521   4.025   4.566   5.766
24760WAT     H174522   4.015   4.496   5.696
24760WAT     H274523   3.949   4.630   5.760
24761WAT      O74524   4.579   8.157   1.776
24761WAT     H174525   4.559   8.061   1.759
24761WAT     H274526   4.656   8.186   1.719
24762WAT      O74527   5.099   8.806   0.072
24762WAT     H174528   5.149   8.863   0.138
24762WAT     H274529   5.130   8.712   0.079
24763WAT      O74530   2.521   7.397   3.572
24763WAT     H174531   2.475   7.373   3.486
24763WAT     H274532   2.613   7.358   3.572
24764WAT      O74533   0.462   4.817   6.508
24764WAT     H174534   0.550   4.837   6.465
24764WAT     H274535   0.417   4.742   6.459
24765WAT      O74536   8.484   1.639   9.473
24765WAT     H174537   8.425   1.584   9.414
24765WAT     H274538   8.516   1.719   9.423
24766WAT      O74539   4.467   2.861   9.561
24766WAT     H174540   4.425   2.888   9.648
24766WAT     H274541   4.396   2.858   9.490
24767WAT      O74542   3.863   3.101   1.309
24767WAT     H174543   3.862   3.161   1.229
24767WAT     H274544   3.914   3.018   1.288
24768WAT      O74545   9.458   9.200   5.376
24768WAT     H174546   9.472   9.215   5.473
24768WAT     H274547   9.365   9.229   5.351
24769WAT      O74548   1.788   6.943   6.392
24769WAT     H174549   1.789   6.850   6.427
24769WAT     H274550   1.882   6.977   6.385
24770WAT      O74551   9.640   8.317   0.345
24770WAT     H174552   9.606   8.302   0.438
24770WAT     H274553   9.636   8.414   0.323
24771WAT      O74554   4.163   0.025   8.328
24771WAT     H174555   4.236   0.017   8.260
24771WAT     H274556   4.118   0.113   8.318
24772WAT      O74557   8.095   5.599   4.931
24772WAT     H174558   8.065   5.540   4.857
24772WAT     H274559   8.163   5.551   4.987
24773WAT      O74560   6.607   7.923   6.617
24773WAT     H174561   6.510   7.945   6.631
24773WAT     H274562   6.629   7.931   6.520
24774WAT      O74563   8.617   8.420   1.688
24774WAT     H174564   8.645   8.324   1.695
24774WAT     H274565   8.693   8.479   1.717
24775WAT      O74566   1.668   8.837   9.507
24775WAT     H174567   1.681   8.793   9.419
24775WAT     H274568   1.623   8.926   9.494
24776WAT      O74569   8.169   2.585   3.096
24776WAT     H174570   8.089   2.572   3.155
24776WAT     H274571   8.172   2.680   3.065
24777WAT      O74572   1.031   3.641   8.241
24777WAT     H174573   0.945   3.654   8.289
24777WAT     H274574   1.098   3.598   8.302
24778WAT      O74575   3.510   2.804   8.744
24778WAT     H174576   3.452   2.759   8.812
24778WAT     H274577   3.454   2.869   8.691
24779WAT      O74578   5.992   2.526   4.830
24779WAT     H174579   6.030   2.435   4.814
24779WAT     H274580   6.045   2.594   4.779
24780WAT      O74581   9.170   8.862   9.413
24780WAT     H174582   9.099   8.823   9.353
24780WAT     H274583   9.139   8.858   9.508
24781WAT      O74584   1.720   0.206   1.809
24781WAT     H174585   1.662   0.279   1.774
24781WAT     H274586   1.730   0.215   1.908
24782WAT      O74587   6.453   6.982   2.484
24782WAT     H174588   6.495   7.066   2.517
24782WAT     H274589   6.503   6.903   2.521
24783WAT      O74590   8.942   0.031   6.940
24783WAT     H174591   8.859   0.063   6.893
24783WAT     H274592   9.023   0.059   6.887
24784WAT      O74593   4.643   5.661   1.172
24784WAT     H174594   4.626   5.571   1.132
24784WAT     H274595   4.738   5.687   1.158
24785WAT      O74596   9.085   3.677   5.614
24785WAT     H174597   9.083   3.777   5.620
24785WAT     H274598   9.010   3.646   5.555
24786WAT      O74599   5.556   1.290   2.761
24786WAT     H174600   5.499   1.255   2.686
24786WAT     H274601   5.611   1.216   2.799
24787WAT      O74602   1.770   2.930   0.560
24787WAT     H174603   1.671   2.929   0.575
24787WAT     H274604   1.810   2.846   0.597
24788WAT      O74605   7.518   3.604   3.846
24788WAT     H174606   7.595   3.543   3.829
24788WAT     H274607   7.440   3.550   3.879
24789WAT      O74608   5.888   9.557   7.646
24789WAT     H174609   5.929   9.604   7.568
24789WAT     H274610   5.810   9.610   7.679
24790WAT      O74611   6.538   3.949   0.249
24790WAT     H174612   6.536   3.935   0.348
24790WAT     H274613   6.446   3.938   0.212
24791WAT      O74614   6.438   1.953   4.507
24791WAT     H174615   6.427   1.888   4.582
24791WAT     H274616   6.535   1.963   4.485
24792WAT      O74617   0.394   1.584   2.667
24792WAT     H174618   0.363   1.608   2.576
24792WAT     H274619   0.320   1.538   2.717
24793WAT      O74620   1.828   9.487   2.492
24793WAT     H174621   1.869   9.407   2.536
24793WAT     H274622   1.777   9.458   2.411
24794WAT      O74623   3.405   6.562   7.120
24794WAT     H174624   3.377   6.658   7.122
24794WAT     H274625   3.500   6.556   7.090
24795WAT      O74626   1.118   8.904   7.251
24795WAT     H174627   1.075   8.859   7.173
24795WAT     H274628   1.134   9.000   7.230
24796WAT      O74629   0.474   5.747   8.771
24796WAT     H174630   0.516   5.738   8.680
24796WAT     H274631   0.498   5.668   8.827
24797WAT      O74632   1.148   1.459   4.563
24797WAT     H174633   1.245   1.471   4.584
24797WAT     H274634   1.106   1.401   4.634
24798WAT      O74635   4.264   8.106   0.245
24798WAT     H174636   4.314   8.174   0.192
24798WAT     H274637   4.166   8.117   0.230
24799WAT      O74638   1.557   8.338   0.934
24799WAT     H174639   1.479   8.389   0.898
24799WAT     H274640   1.524   8.260   0.988
24800WAT      O74641   4.336   0.829   8.422
24800WAT     H174642   4.307   0.763   8.491
24800WAT     H274643   4.350   0.783   8.335
24801WAT      O74644   3.788   2.343   8.107
24801WAT     H174645   3.732   2.357   8.026
24801WAT     H274646   3.751   2.396   8.183
24802WAT      O74647   1.817   5.886   2.820
24802WAT     H174648   1.738   5.834   2.853
24802WAT     H274649   1.894   5.872   2.882
24803WAT      O74650   7.063   6.159   9.046
24803WAT     H174651   7.019   6.201   8.967
24803WAT     H274652   7.083   6.063   9.026
24804WAT      O74653   9.562   9.082   8.926
24804WAT     H174654   9.660   9.063   8.926
24804WAT     H274655   9.540   9.141   9.004
24805WAT      O74656   8.677   2.608   0.405
24805WAT     H174657   8.657   2.665   0.325
24805WAT     H274658   8.711   2.666   0.479
24806WAT      O74659   3.241   2.954   9.381
24806WAT     H174660   3.262   3.049   9.404
24806WAT     H274661   3.231   2.901   9.465
24807WAT      O74662   8.130   3.734   2.029
24807WAT     H174663   8.093   3.815   2.074
24807WAT     H274664   8.155   3.756   1.935
24808WAT      O74665   5.610   3.731   8.007
24808WAT     H174666   5.517   3.711   7.976
24808WAT     H274667   5.661   3.776   7.933
24809WAT      O74668   7.438   1.844   3.400
24809WAT     H174669   7.407   1.920   3.457
24809WAT     H274670   7.508   1.791   3.449
24810WAT      O74671   0.538   2.205   1.610
24810WAT     H174672   0.527   2.275   1.681
24810WAT     H274673   0.558   2.248   1.523
24811WAT      O74674   2.904   9.400   1.661
24811WAT     H174675   2.842   9.443   1.595
24811WAT     H274676   2.853   9.332   1.714
24812WAT      O74677   6.587   9.522   3.781
24812WAT     H174678   6.669   9.465   3.789
24812WAT     H274679   6.531   9.512   3.863
24813WAT      O74680   0.760   3.625   8.789
24813WAT     H174681   0.786   3.586   8.701
24813WAT     H274682   0.827   3.598   8.858
24814WAT      O74683   1.344   3.928   2.832
24814WAT     H174684   1.288   3.969   2.903
24814WAT     H274685   1.354   3.830   2.850
24815WAT      O74686   3.869   9.642   9.613
24815WAT     H174687   3.928   9.677   9.540
24815WAT     H274688   3.785   9.696   9.616
24816WAT      O74689   4.602   7.679   0.406
24816WAT     H174690   4.577   7.757   0.348
24816WAT     H274691   4.520   7.644   0.452
24817WAT      O74692   4.527   3.188   4.104
24817WAT     H174693   4.543   3.248   4.182
24817WAT     H274694   4.543   3.093   4.132
24818WAT      O74695   8.101   9.048   0.654
24818WAT     H174696   8.008   9.010   0.646
24818WAT     H274697   8.151   9.032   0.569
24819WAT      O74698   1.817   9.392   8.612
24819WAT     H174699   1.779   9.345   8.533
24819WAT     H274700   1.846   9.325   8.680
24820WAT      O74701   4.253   3.960   8.549
24820WAT     H174702   4.158   3.992   8.548
24820WAT     H274703   4.256   3.862   8.529
24821WAT      O74704   6.165   9.139   3.761
24821WAT     H174705   6.208   9.217   3.716
24821WAT     H274706   6.147   9.161   3.857
24822WAT      O74707   3.218   6.672   6.338
24822WAT     H174708   3.162   6.715   6.267
24822WAT     H274709   3.304   6.723   6.347
24823WAT      O74710   2.659   8.313   7.177
24823WAT     H174711   2.620   8.406   7.177
24823WAT     H274712   2.619   8.260   7.251
24824WAT      O74713   0.712   4.627   9.846
24824WAT     H174714   0.691   4.545   9.793
24824WAT     H274715   0.750   4.697   9.786
24825WAT      O74716   6.848   0.250   2.548
24825WAT     H174717   6.910   0.172   2.540
24825WAT     H274718   6.891   0.332   2.510
24826WAT      O74719   0.675   1.965   3.414
24826WAT     H174720   0.670   1.948   3.513
24826WAT     H274721   0.685   1.878   3.366
24827WAT      O74722   3.270   8.837   4.379
24827WAT     H174723   3.369   8.836   4.389
24827WAT     H274724   3.240   8.926   4.345
24828WAT      O74725   5.865   0.271   9.317
24828WAT     H174726   5.769   0.286   9.292
24828WAT     H274727   5.914   0.358   9.313
24829WAT      O74728   5.050   6.123   0.485
24829WAT     H174729   5.043   6.222   0.495
24829WAT     H274730   4.964   6.080   0.514
24830WAT      O74731   0.633   0.464   3.893
24830WAT     H174732   0.702   0.536   3.892
24830WAT     H274733   0.589   0.462   3.983
24831WAT      O74734   3.065   7.510   8.054
24831WAT     H174735   3.107   7.420   8.065
24831WAT     H274736   3.079   7.563   8.138
24832WAT      O74737   3.972   0.123   2.860
24832WAT     H174738   3.951   0.125   2.958
24832WAT     H274739   3.938   0.038   2.820
24833WAT      O74740   9.103   4.210   6.682
24833WAT     H174741   9.109   4.279   6.755
24833WAT     H274742   9.067   4.125   6.720
24834WAT      O74743   8.570   0.543   3.241
24834WAT     H174744   8.606   0.451   3.229
24834WAT     H274745   8.549   0.559   3.338
24835WAT      O74746   9.864   1.655   4.932
24835WAT     H174747   9.890   1.725   4.998
24835WAT     H274748   9.776   1.615   4.958
24836WAT      O74749   1.464   5.152   3.337
24836WAT     H174750   1.445   5.158   3.435
24836WAT     H274751   1.558   5.122   3.324
24837WAT      O74752   5.196   2.154   1.328
24837WAT     H174753   5.202   2.058   1.302
24837WAT     H274754   5.104   2.173   1.363
24838WAT      O74755   9.352   8.451   6.801
24838WAT     H174756   9.435   8.425   6.752
24838WAT     H274757   9.286   8.490   6.737
24839WAT      O74758   8.001   8.691   2.573
24839WAT     H174759   8.093   8.722   2.597
24839WAT     H274760   7.967   8.744   2.496
24840WAT      O74761   4.790   0.137   0.749
24840WAT     H174762   4.793   0.086   0.835
24840WAT     H274763   4.733   0.088   0.683
24841WAT      O74764   4.136   8.860   5.523
24841WAT     H174765   4.185   8.792   5.578
24841WAT     H274766   4.043   8.869   5.557
24842WAT      O74767   1.115   1.075   8.403
24842WAT     H174768   1.081   0.989   8.440
24842WAT     H274769   1.160   1.127   8.475
24843WAT      O74770   4.144   2.969   4.332
24843WAT     H174771   4.119   2.893   4.392
24843WAT     H274772   4.150   2.936   4.238
24844WAT      O74773   6.574   2.541   3.139
24844WAT     H174774   6.536   2.452   3.164
24844WAT     H274775   6.572   2.602   3.218
24845WAT      O74776   3.842   4.756   4.669
24845WAT     H174777   3.809   4.665   4.644
24845WAT     H274778   3.846   4.813   4.587
24846WAT      O74779   3.066   5.595   2.027
24846WAT     H174780   3.017   5.680   2.044
24846WAT     H274781   3.116   5.602   1.941
24847WAT      O74782   7.708   7.382   4.310
24847WAT     H174783   7.752   7.443   4.244
24847WAT     H274784   7.776   7.318   4.346
24848WAT      O74785   3.693   1.520   3.422
24848WAT     H174786   3.673   1.502   3.518
24848WAT     H274787   3.649   1.605   3.393
24849WAT      O74788   6.313   9.370   4.211
24849WAT     H174789   6.220   9.394   4.184
24849WAT     H274790   6.330   9.274   4.190
24850WAT      O74791   4.046   2.163   9.220
24850WAT     H174792   3.948   2.156   9.235
24850WAT     H274793   4.066   2.156   9.123
24851WAT      O74794   0.592   6.003   2.529
24851WAT     H174795   0.524   6.070   2.558
24851WAT     H274796   0.546   5.917   2.506
24852WAT      O74797   6.091   1.896   6.939
24852WAT     H174798   6.114   1.943   7.024
24852WAT     H274799   6.172   1.889   6.882
24853WAT      O74800   1.010   7.839   2.459
24853WAT     H174801   1.032   7.745   2.431
24853WAT     H274802   1.070   7.866   2.534
24854WAT      O74803   8.051   4.349   7.504
24854WAT     H174804   7.981   4.283   7.532
24854WAT     H274805   8.098   4.384   7.585
24855WAT      O74806   7.521   3.944   3.898
24855WAT     H174807   7.475   3.950   3.987
24855WAT     H274808   7.499   3.856   3.856
24856WAT      O74809   0.202   0.140   9.218
24856WAT     H174810   0.262   0.096   9.285
24856WAT     H274811   0.250   0.216   9.175
24857WAT      O74812   0.043   3.646   5.865
24857WAT     H174813  -0.034   3.609   5.917
24857WAT     H274814   0.028   3.744   5.849
24858WAT      O74815   0.402   5.811   4.704
24858WAT     H174816   0.305   5.792   4.722
24858WAT     H274817   0.413   5.842   4.610
24859WAT      O74818   8.022   0.025   4.939
24859WAT     H174819   7.988  -0.064   4.908
24859WAT     H274820   7.994   0.096   4.874
24860WAT      O74821   9.711   7.186   7.292
24860WAT     H174822   9.768   7.108   7.318
24860WAT     H274823   9.664   7.165   7.205
24861WAT      O74824   5.521   0.456   5.932
24861WAT     H174825   5.490   0.420   5.844
24861WAT     H274826   5.456   0.526   5.963
24862WAT      O74827   2.254   4.972   3.308
24862WAT     H174828   2.164   4.991   3.347
24862WAT     H274829   2.257   4.879   3.272
24863WAT      O74830   1.668   4.725   5.894
24863WAT     H174831   1.628   4.634   5.888
24863WAT     H274832   1.736   4.727   5.967
24864WAT      O74833   1.681   5.741   3.933
24864WAT     H174834   1.625   5.694   4.001
24864WAT     H274835   1.640   5.830   3.911
24865WAT      O74836   4.089   6.661   3.542
24865WAT     H174837   4.174   6.696   3.580
24865WAT     H274838   4.090   6.673   3.443
24866WAT      O74839   4.324   3.989   4.602
24866WAT     H174840   4.301   3.896   4.629
24866WAT     H274841   4.331   3.994   4.502
24867WAT      O74842   4.682   5.213   4.785
24867WAT     H174843   4.748   5.214   4.710
24867WAT     H274844   4.729   5.234   4.871
24868WAT      O74845   4.038   4.874   1.878
24868WAT     H174846   3.950   4.852   1.920
24868WAT     H274847   4.092   4.930   1.942
24869WAT      O74848   7.982   3.362   1.078
24869WAT     H174849   8.040   3.314   1.012
24869WAT     H274850   7.922   3.425   1.029
24870WAT      O74851   4.924   8.785   0.305
24870WAT     H174852   4.917   8.884   0.318
24870WAT     H274853   5.020   8.761   0.288
24871WAT      O74854   8.373   2.567   1.951
24871WAT     H174855   8.273   2.568   1.948
24871WAT     H274856   8.407   2.494   1.891
24872WAT      O74857   6.283   5.273   3.478
24872WAT     H174858   6.306   5.282   3.381
24872WAT     H274859   6.254   5.180   3.497
24873WAT      O74860   0.419   3.114   5.376
24873WAT     H174861   0.439   3.178   5.450
24873WAT     H274862   0.322   3.118   5.353
24874WAT      O74863   7.938   5.683   9.716
24874WAT     H174864   7.971   5.649   9.628
24874WAT     H274865   7.838   5.675   9.719
24875WAT      O74866   1.418   7.927   8.023
24875WAT     H174867   1.507   7.883   8.037
24875WAT     H274868   1.431   8.019   7.987
24876WAT      O74869   6.339   0.435   0.860
24876WAT     H174870   6.319   0.474   0.949
24876WAT     H274871   6.401   0.357   0.871
24877WAT      O74872   9.744   8.314   7.995
24877WAT     H174873   9.660   8.260   7.995
24877WAT     H274874   9.723   8.409   7.974
24878WAT      O74875   8.431   2.836   1.445
24878WAT     H174876   8.341   2.827   1.401
24878WAT     H274877   8.498   2.866   1.377
24879WAT      O74878   4.111   9.632   1.653
24879WAT     H174879   4.138   9.720   1.614
24879WAT     H274880   4.189   9.593   1.703
24880WAT      O74881   2.711   4.033   8.243
24880WAT     H174882   2.675   3.993   8.159
24880WAT     H274883   2.729   4.131   8.228
24881WAT      O74884   4.781   3.351   6.593
24881WAT     H174885   4.795   3.373   6.496
24881WAT     H274886   4.707   3.284   6.601
24882WAT      O74887   8.034   7.330   7.187
24882WAT     H174888   8.076   7.390   7.119
24882WAT     H274889   7.938   7.356   7.198
24883WAT      O74890   8.335   2.307   8.297
24883WAT     H174891   8.339   2.395   8.346
24883WAT     H274892   8.426   2.282   8.266
24884WAT      O74893   9.141   0.785   6.513
24884WAT     H174894   9.081   0.854   6.553
24884WAT     H274895   9.087   0.711   6.473
24885WAT      O74896   2.429   1.342   4.078
24885WAT     H174897   2.501   1.315   4.015
24885WAT     H274898   2.422   1.442   4.080
24886WAT      O74899   1.309   9.555   6.559
24886WAT     H174900   1.277   9.637   6.606
24886WAT     H274901   1.261   9.475   6.596
24887WAT      O74902   7.185   8.152   7.348
24887WAT     H174903   7.194   8.195   7.438
24887WAT     H274904   7.128   8.209   7.289
24888WAT      O74905   7.115   2.843   3.769
24888WAT     H174906   7.141   2.930   3.812
24888WAT     H274907   7.044   2.799   3.824
24889WAT      O74908   9.279   6.833   4.426
24889WAT     H174909   9.235   6.897   4.362
24889WAT     H274910   9.378   6.834   4.411
24890WAT      O74911   0.276   0.616   6.282
24890WAT     H174912   0.322   0.530   6.262
24890WAT     H274913   0.305   0.649   6.372
24891WAT      O74914   2.890   3.308   6.839
24891WAT     H174915   2.827   3.230   6.832
24891WAT     H274916   2.844   3.390   6.805
24892WAT      O74917   7.040   6.030   6.583
24892WAT     H174918   7.077   5.941   6.556
24892WAT     H274919   7.054   6.044   6.681
24893WAT      O74920   0.997   5.941   7.635
24893WAT     H174921   0.929   5.880   7.676
24893WAT     H274922   1.013   5.914   7.541
24894WAT      O74923   6.402   4.156   1.859
24894WAT     H174924   6.473   4.179   1.926
24894WAT     H274925   6.324   4.217   1.870
24895WAT      O74926   2.266   9.282   8.321
24895WAT     H174927   2.357   9.263   8.358
24895WAT     H274928   2.233   9.370   8.357
24896WAT      O74929   9.631   2.082   1.443
24896WAT     H174930   9.638   2.182   1.453
24896WAT     H274931   9.723   2.043   1.433
24897WAT      O74932   0.267   8.539   8.924
24897WAT     H174933   0.309   8.528   9.014
24897WAT     H274934   0.277   8.454   8.871
24898WAT      O74935   9.278   0.302   3.575
24898WAT     H174936   9.193   0.305   3.628
24898WAT     H274937   9.258   0.264   3.485
24899WAT      O74938   3.988   4.388   0.487
24899WAT     H174939   3.939   4.328   0.423
24899WAT     H274940   4.023   4.334   0.563
24900WAT      O74941   5.853   2.976   1.376
24900WAT     H174942   5.889   2.944   1.288
24900WAT     H274943   5.875   3.073   1.387
24901WAT      O74944   0.612   5.029   0.331
24901WAT     H174945   0.633   5.037   0.428
24901WAT     H274946   0.621   4.933   0.302
24902WAT      O74947   9.287   3.049   5.056
24902WAT     H174948   9.346   3.125   5.030
24902WAT     H274949   9.303   3.027   5.153
24903WAT      O74950   8.416   5.852   5.630
24903WAT     H174951   8.435   5.949   5.644
24903WAT     H274952   8.422   5.804   5.718
24904WAT      O74953   3.315   3.660   0.056
24904WAT     H174954   3.393   3.701   0.008
24904WAT     H274955   3.316   3.688   0.152
24905WAT      O74956   2.972   9.428   4.308
24905WAT     H174957   2.888   9.479   4.323
24905WAT     H274958   3.050   9.491   4.316
24906WAT      O74959   3.651   5.929   4.823
24906WAT     H174960   3.651   5.928   4.723
24906WAT     H274961   3.562   5.960   4.855
24907WAT      O74962   7.087   0.351   6.676
24907WAT     H174963   7.164   0.314   6.727
24907WAT     H274964   7.119   0.427   6.619
24908WAT      O74965   7.000   3.507   0.863
24908WAT     H174966   7.083   3.532   0.913
24908WAT     H274967   6.926   3.570   0.887
24909WAT      O74968   9.885   7.498   8.267
24909WAT     H174969   9.955   7.561   8.235
24909WAT     H274970   9.794   7.539   8.253
24910WAT      O74971   1.316   2.967   0.878
24910WAT     H174972   1.310   2.890   0.814
24910WAT     H274973   1.397   2.955   0.936
24911WAT      O74974   0.661   2.258   7.264
24911WAT     H174975   0.718   2.334   7.296
24911WAT     H274976   0.628   2.278   7.172
24912WAT      O74977   8.374   5.966   9.802
24912WAT     H174978   8.276   5.948   9.810
24912WAT     H274979   8.415   5.965   9.894
24913WAT      O74980   4.043   3.868   2.803
24913WAT     H174981   4.068   3.818   2.720
24913WAT     H274982   4.125   3.887   2.856
24914WAT      O74983   5.402   4.943   7.024
24914WAT     H174984   5.453   4.999   6.959
24914WAT     H274985   5.309   4.978   7.031
24915WAT      O74986   7.978   6.290   4.665
24915WAT     H174987   7.935   6.338   4.741
24915WAT     H274988   7.944   6.326   4.579
24916WAT      O74989   6.075   5.168   1.005
24916WAT     H174990   5.989   5.171   0.954
24916WAT     H274991   6.098   5.072   1.025
24917WAT      O74992   5.182   3.490   3.132
24917WAT     H174993   5.172   3.581   3.172
24917WAT     H274994   5.278   3.473   3.109
24918WAT      O74995   8.749   9.113   7.669
24918WAT     H174996   8.746   9.022   7.629
24918WAT     H274997   8.686   9.173   7.619
24919WAT      O74998   7.751   2.390   1.859
24919WAT     H174999   7.722   2.307   1.907
24919WAT     H275000   7.729   2.382   1.762
24920WAT      O75001   9.518   2.822   1.482
24920WAT     H175002   9.573   2.768   1.418
24920WAT     H275003   9.480   2.902   1.435
24921WAT      O75004   1.375   5.862   4.297
24921WAT     H175005   1.296   5.912   4.331
24921WAT     H275006   1.457   5.919   4.304
24922WAT      O75007   0.440   9.786   1.018
24922WAT     H175008   0.510   9.780   1.089
24922WAT     H275009   0.349   9.774   1.060
24923WAT      O75010   5.541   7.287   2.379
24923WAT     H175011   5.541   7.287   2.279
24923WAT     H275012   5.633   7.264   2.412
24924WAT      O75013   8.539   4.266   7.931
24924WAT     H175014   8.554   4.312   8.018
24924WAT     H275015   8.526   4.168   7.946
24925WAT      O75016   4.846   1.868   1.843
24925WAT     H175017   4.863   1.827   1.753
24925WAT     H275018   4.748   1.862   1.863
24926WAT      O75019   8.947   3.727   6.033
24926WAT     H175020   8.905   3.640   6.059
24926WAT     H275021   9.037   3.710   5.993
24927WAT      O75022   6.808   5.968   3.111
24927WAT     H175023   6.722   5.977   3.162
24927WAT     H275024   6.834   6.057   3.074
24928WAT      O75025   2.857   6.458   4.344
24928WAT     H175026   2.916   6.447   4.263
24928WAT     H275027   2.812   6.371   4.364
24929WAT      O75028   4.979   5.689   4.643
24929WAT     H175029   4.931   5.614   4.688
24929WAT     H275030   5.074   5.692   4.674
24930WAT      O75031   8.402   2.231   3.436
24930WAT     H175032   8.394   2.207   3.533
24930WAT     H275033   8.312   2.238   3.395
24931WAT      O75034   9.317   9.430   8.852
24931WAT     H175035   9.406   9.476   8.847
24931WAT     H275036   9.258   9.463   8.779
24932WAT      O75037   9.300   4.307   8.395
24932WAT     H175038   9.297   4.215   8.356
24932WAT     H275039   9.264   4.373   8.328
24933WAT      O75040   2.688   4.443   4.905
24933WAT     H175041   2.683   4.541   4.888
24933WAT     H275042   2.607   4.398   4.866
24934WAT      O75043   3.743   6.366   2.410
24934WAT     H175044   3.739   6.268   2.388
24934WAT     H275045   3.806   6.381   2.486
24935WAT      O75046   2.886   2.986   7.184
24935WAT     H175047   2.956   3.005   7.115
24935WAT     H275048   2.823   3.064   7.190
24936WAT      O75049   5.638   8.251   2.889
24936WAT     H175050   5.581   8.219   2.813
24936WAT     H275051   5.580   8.282   2.964
24937WAT      O75052   7.950   4.873   6.054
24937WAT     H175053   8.040   4.831   6.067
24937WAT     H275054   7.947   4.915   5.963
24938WAT      O75055   7.042   7.402   3.145
24938WAT     H175056   7.135   7.371   3.161
24938WAT     H275057   6.987   7.387   3.227
24939WAT      O75058   6.356   5.037   4.452
24939WAT     H175059   6.424   5.072   4.388
24939WAT     H275060   6.274   5.093   4.448
24940WAT      O75061   8.946   8.073   6.217
24940WAT     H175062   9.007   8.140   6.175
24940WAT     H275063   8.993   8.026   6.292
24941WAT      O75064   2.005   6.860   3.069
24941WAT     H175065   2.041   6.912   2.992
24941WAT     H275066   1.959   6.777   3.034
24942WAT      O75067   0.132   1.703   4.539
24942WAT     H175068   0.097   1.784   4.587
24942WAT     H275069   0.160   1.634   4.606
24943WAT      O75070   0.570   0.733   4.111
24943WAT     H175071   0.508   0.800   4.071
24943WAT     H275072   0.522   0.646   4.122
24944WAT      O75073   1.867   9.611   9.553
24944WAT     H175074   1.825   9.572   9.471
24944WAT     H275075   1.898   9.538   9.613
24945WAT      O75076   8.284   6.427   9.860
24945WAT     H175077   8.378   6.419   9.894
24945WAT     H275078   8.284   6.472   9.771
24946WAT      O75079   7.833   5.400   0.130
24946WAT     H175080   7.899   5.363   0.066
24946WAT     H275081   7.877   5.472   0.185
24947WAT      O75082   5.882   1.223   7.713
24947WAT     H175083   5.811   1.263   7.655
24947WAT     H275084   5.967   1.213   7.660
24948WAT      O75085   7.849   2.112   5.061
24948WAT     H175086   7.804   2.133   5.149
24948WAT     H275087   7.902   2.028   5.070
24949WAT      O75088   6.380   4.455   1.192
24949WAT     H175089   6.285   4.487   1.191
24949WAT     H275090   6.412   4.445   1.098
24950WAT      O75091   7.436   7.200   5.411
24950WAT     H175092   7.458   7.297   5.398
24950WAT     H275093   7.406   7.186   5.505
24951WAT      O75094   5.411   9.094   2.538
24951WAT     H175095   5.469   9.044   2.602
24951WAT     H275096   5.465   9.122   2.459
24952WAT      O75097   9.479   5.064   5.421
24952WAT     H175098   9.420   5.144   5.409
24952WAT     H275099   9.426   4.990   5.462
24953WAT      O75100   0.075   8.437   3.638
24953WAT     H175101   0.142   8.511   3.644
24953WAT     H275102   0.102   8.363   3.699
24954WAT      O75103   9.851   7.863   8.331
24954WAT     H175104   9.819   7.837   8.422
24954WAT     H275105   9.936   7.915   8.339
24955WAT      O75106   5.599   4.454   9.590
24955WAT     H175107   5.590   4.362   9.550
24955WAT     H275108   5.537   4.462   9.668
24956WAT      O75109   2.576   4.239   2.096
24956WAT     H175110   2.505   4.190   2.046
24956WAT     H275111   2.657   4.181   2.105
24957WAT      O75112   3.614   0.126   6.439
24957WAT     H175113   3.589   0.176   6.356
24957WAT     H275114   3.664   0.187   6.501
24958WAT      O75115   1.405   5.682   8.749
24958WAT     H175116   1.375   5.681   8.654
24958WAT     H275117   1.456   5.767   8.767
24959WAT      O75118   5.833   6.635   5.300
24959WAT     H175119   5.823   6.682   5.387
24959WAT     H275120   5.744   6.624   5.257
24960WAT      O75121   9.534   4.130   2.205
24960WAT     H175122   9.570   4.194   2.273
24960WAT     H275123   9.538   4.037   2.240
24961WAT      O75124   5.762   1.691   4.421
24961WAT     H175125   5.785   1.682   4.517
24961WAT     H275126   5.748   1.787   4.399
24962WAT      O75127   8.274   8.548   2.998
24962WAT     H175128   8.195   8.592   2.955
24962WAT     H275129   8.350   8.613   3.002
24963WAT      O75130   5.612   4.228   2.921
24963WAT     H175131   5.607   4.183   3.010
24963WAT     H275132   5.693   4.286   2.917
24964WAT      O75133   0.959   6.560   2.152
24964WAT     H175134   0.949   6.616   2.070
24964WAT     H275135   1.008   6.612   2.222
24965WAT      O75136   7.697   8.856   6.571
24965WAT     H175137   7.664   8.950   6.560
24965WAT     H275138   7.637   8.794   6.521
24966WAT      O75139   7.291   5.485   2.031
24966WAT     H175140   7.267   5.582   2.028
24966WAT     H275141   7.332   5.458   1.944
24967WAT      O75142   8.689   8.802   0.233
24967WAT     H175143   8.763   8.771   0.173
24967WAT     H275144   8.608   8.746   0.218
24968WAT      O75145   7.314   6.860   3.813
24968WAT     H175146   7.305   6.769   3.773
24968WAT     H275147   7.223   6.898   3.830
24969WAT      O75148   2.054   2.444   4.515
24969WAT     H175149   2.069   2.363   4.459
24969WAT     H275150   2.112   2.440   4.596
24970WAT      O75151   3.554   4.994   2.029
24970WAT     H175152   3.654   5.002   2.032
24970WAT     H275153   3.517   5.063   1.967
24971WAT      O75154   1.038   2.586   4.205
24971WAT     H175155   1.046   2.648   4.284
24971WAT     H275156   0.983   2.507   4.231
24972WAT      O75157   6.774   0.234   1.003
24972WAT     H175158   6.798   0.315   1.056
24972WAT     H275159   6.826   0.234   0.917
24973WAT      O75160   8.788   6.963   6.179
24973WAT     H175161   8.714   7.020   6.215
24973WAT     H275162   8.804   6.886   6.240
24974WAT      O75163   9.039   1.349   5.637
24974WAT     H175164   8.998   1.381   5.723
24974WAT     H275165   9.128   1.308   5.656
24975WAT      O75166   6.600   8.335   4.149
24975WAT     H175167   6.633   8.345   4.242
24975WAT     H275168   6.647   8.399   4.089
24976WAT      O75169   4.516   0.016   8.758
24976WAT     H175170   4.446  -0.033   8.706
24976WAT     H275171   4.510  -0.009   8.855
24977WAT      O75172   0.623   3.280   1.878
24977WAT     H175173   0.623   3.292   1.778
24977WAT     H275174   0.536   3.240   1.907
24978WAT      O75175   7.664   3.616   5.394
24978WAT     H175176   7.704   3.680   5.328
24978WAT     H275177   7.643   3.665   5.478
24979WAT      O75178   5.519   8.884   7.314
24979WAT     H175179   5.444   8.872   7.249
24979WAT     H275180   5.589   8.814   7.297
24980WAT      O75181   8.952   0.766   6.806
24980WAT     H175182   9.016   0.695   6.776
24980WAT     H275183   9.004   0.843   6.844
24981WAT      O75184   8.259   2.906   8.745
24981WAT     H175185   8.192   2.923   8.673
24981WAT     H275186   8.351   2.910   8.707
24982WAT      O75187   5.977   4.491   8.977
24982WAT     H175188   5.951   4.585   8.999
24982WAT     H275189   5.923   4.459   8.899
24983WAT      O75190   9.586   8.308   7.116
24983WAT     H175191   9.552   8.400   7.097
24983WAT     H275192   9.617   8.266   7.030
24984WAT      O75193   7.372   5.046   9.762
24984WAT     H175194   7.468   5.028   9.741
24984WAT     H275195   7.341   5.127   9.713
24985WAT      O75196   3.225   3.287   8.515
24985WAT     H175197   3.218   3.188   8.502
24985WAT     H275198   3.282   3.326   8.443
24986WAT      O75199   0.568   3.580   9.483
24986WAT     H175200   0.508   3.502   9.470
24986WAT     H275201   0.541   3.654   9.421
24987WAT      O75202   5.252   2.577   8.746
24987WAT     H175203   5.311   2.581   8.827
24987WAT     H275204   5.174   2.638   8.759
24988WAT      O75205   0.911   2.875   9.459
24988WAT     H175206   1.009   2.858   9.449
24988WAT     H275207   0.861   2.823   9.390
24989WAT      O75208   7.294   7.331   1.086
24989WAT     H175209   7.197   7.314   1.067
24989WAT     H275210   7.342   7.244   1.094
24990WAT      O75211   0.957   8.166   3.393
24990WAT     H175212   0.880   8.104   3.379
24990WAT     H275213   0.923   8.253   3.429
24991WAT      O75214   1.246   9.084   0.801
24991WAT     H175215   1.186   9.154   0.839
24991WAT     H275216   1.309   9.052   0.872
24992WAT      O75217   5.694   8.444   1.659
24992WAT     H175218   5.769   8.503   1.629
24992WAT     H275219   5.632   8.428   1.582
24993WAT      O75220   0.881   5.735   6.629
24993WAT     H175221   0.952   5.785   6.678
24993WAT     H275222   0.809   5.798   6.600
24994WAT      O75223   4.830   0.555   1.650
24994WAT     H175224   4.796   0.534   1.742
24994WAT     H275225   4.839   0.654   1.639
24995WAT      O75226   2.067   8.487   2.942
24995WAT     H175227   2.131   8.455   3.011
24995WAT     H275228   2.117   8.528   2.866
24996WAT      O75229   0.430   6.462   8.724
24996WAT     H175230   0.506   6.399   8.709
24996WAT     H275231   0.391   6.447   8.815
24997WAT      O75232   7.041   5.782   5.927
24997WAT     H175233   6.956   5.784   5.978
24997WAT     H275234   7.022   5.792   5.829
24998WAT      O75235   5.127   0.040   2.285
24998WAT     H175236   5.102   0.095   2.206
24998WAT     H275237   5.060   0.052   2.358
24999WAT      O75238   3.006   0.465   6.227
24999WAT     H175239   3.073   0.401   6.266
24999WAT     H275240   2.947   0.416   6.164
25000WAT      O75241   6.207   8.616   4.684
25000WAT     H175242   6.259   8.689   4.640
25000WAT     H275243   6.129   8.655   4.732
25001WAT      O75244   5.570   7.804   5.258
25001WAT     H175245   5.598   7.709   5.249
25001WAT     H275246   5.651   7.863   5.260
25002WAT      O75247   8.411   1.265   2.837
25002WAT     H175248   8.333   1.207   2.856
25002WAT     H275249   8.381   1.347   2.789
25003WAT      O75250   1.515   4.881   1.197
25003WAT     H175251   1.481   4.944   1.127
25003WAT     H275252   1.603   4.915   1.232
25004WAT      O75253   2.385   5.234   5.224
25004WAT     H175254   2.390   5.192   5.315
25004WAT     H275255   2.415   5.329   5.229
25005WAT      O75256   2.794   2.390   6.552
25005WAT     H175257   2.820   2.303   6.594
25005WAT     H275258   2.876   2.435   6.515
25006WAT      O75259   0.791   0.248   2.855
25006WAT     H175260   0.723   0.242   2.782
25006WAT     H275261   0.833   0.158   2.868
25007WAT      O75262   5.983   8.474   0.053
25007WAT     H175263   6.038   8.547   0.092
25007WAT     H275264   5.949   8.502  -0.037
25008WAT      O75265   6.357   8.066   8.410
25008WAT     H175266   6.380   8.115   8.494
25008WAT     H275267   6.338   7.970   8.431
25009WAT      O75268   0.324   2.034   0.453
25009WAT     H175269   0.399   1.968   0.456
25009WAT     H275270   0.332   2.091   0.371
25010WAT      O75271   3.525   2.815   4.814
25010WAT     H175272   3.531   2.831   4.716
25010WAT     H275273   3.438   2.851   4.848
25011WAT      O75274   2.440   2.168   8.665
25011WAT     H175275   2.491   2.092   8.706
25011WAT     H275276   2.417   2.234   8.737
25012WAT      O75277   7.961   8.803   8.680
25012WAT     H175278   8.013   8.720   8.700
25012WAT     H275279   7.896   8.785   8.606
25013WAT      O75280   5.827   7.179   3.002
25013WAT     H175281   5.832   7.184   2.902
25013WAT     H275282   5.916   7.151   3.038
25014WAT      O75283   0.592   5.748   4.971
25014WAT     H175284   0.538   5.809   4.914
25014WAT     H275285   0.541   5.663   4.986
25015WAT      O75286   5.639   5.579   2.866
25015WAT     H175287   5.658   5.481   2.874
25015WAT     H275288   5.697   5.619   2.795
25016WAT      O75289   1.158   0.649   4.908
25016WAT     H175290   1.153   0.583   4.833
25016WAT     H275291   1.103   0.617   4.984
25017WAT      O75292   4.508   9.039   2.125
25017WAT     H175293   4.606   9.051   2.144
25017WAT     H275294   4.468   8.981   2.195
25018WAT      O75295   5.915   6.890   3.109
25018WAT     H175296   5.990   6.825   3.113
25018WAT     H275297   5.916   6.948   3.190
25019WAT      O75298   1.033   6.672   1.893
25019WAT     H175299   1.079   6.731   1.826
25019WAT     H275300   1.097   6.603   1.926
25020WAT      O75301   3.366   0.517   7.001
25020WAT     H175302   3.329   0.453   6.933
25020WAT     H275303   3.398   0.599   6.955
25021WAT      O75304   8.705   7.715   3.902
25021WAT     H175305   8.619   7.688   3.946
25021WAT     H275306   8.736   7.640   3.843
25022WAT      O75307   6.075   1.735   0.931
25022WAT     H175308   6.005   1.798   0.964
25022WAT     H275309   6.131   1.704   1.008
25023WAT      O75310   6.267   0.675   8.444
25023WAT     H175311   6.228   0.597   8.492
25023WAT     H275312   6.226   0.683   8.353
25024WAT      O75313   7.757   0.839   0.167
25024WAT     H175314   7.716   0.851   0.258
25024WAT     H275315   7.728   0.915   0.108
25025WAT      O75316   5.643   4.981   0.821
25025WAT     H175317   5.609   4.977   0.727
25025WAT     H275318   5.566   4.975   0.885
25026WAT      O75319   7.033   1.345   3.167
25026WAT     H175320   6.963   1.409   3.198
25026WAT     H275321   7.121   1.369   3.209
25027WAT      O75322   1.790   2.064   4.290
25027WAT     H175323   1.815   2.084   4.385
25027WAT     H275324   1.830   2.133   4.230
25028WAT      O75325   0.352   4.302   0.996
25028WAT     H175326   0.309   4.348   0.919
25028WAT     H275327   0.439   4.347   1.018
25029WAT      O75328   9.459   8.539   8.356
25029WAT     H175329   9.466   8.631   8.317
25029WAT     H275330   9.416   8.477   8.290
25030WAT      O75331   5.136   0.241   5.028
25030WAT     H175332   5.163   0.293   4.947
25030WAT     H275333   5.081   0.162   5.000
25031WAT      O75334   5.600   2.777   4.664
25031WAT     H175335   5.644   2.864   4.683
25031WAT     H275336   5.539   2.787   4.585
25032WAT      O75337   0.458   6.894   9.151
25032WAT     H175338   0.398   6.815   9.162
25032WAT     H275339   0.407   6.969   9.110
25033WAT      O75340   3.721   1.139   3.096
25033WAT     H175341   3.710   1.233   3.130
25033WAT     H275342   3.813   1.129   3.057
25034WAT      O75343   0.840   3.168   8.845
25034WAT     H175344   0.888   3.202   8.925
25034WAT     H275345   0.904   3.119   8.786
25035WAT      O75346   5.900   8.945   7.286
25035WAT     H175347   5.841   8.864   7.282
25035WAT     H275348   5.852   9.018   7.335
25036WAT      O75349   1.882   8.631   3.461
25036WAT     H175350   1.946   8.592   3.394
25036WAT     H275351   1.790   8.630   3.424
25037WAT      O75352   5.882   1.883   1.063
25037WAT     H175353   5.791   1.842   1.061
25037WAT     H275354   5.884   1.965   1.007
25038WAT      O75355   5.464   6.738   0.912
25038WAT     H175356   5.551   6.786   0.919
25038WAT     H275357   5.439   6.727   0.816
25039WAT      O75358   3.029   2.882   2.305
25039WAT     H175359   2.995   2.797   2.265
25039WAT     H275360   3.073   2.862   2.393
25040WAT      O75361   7.262   4.067   2.355
25040WAT     H175362   7.339   4.055   2.293
25040WAT     H275363   7.201   4.138   2.319
25041WAT      O75364   9.113   8.562   2.915
25041WAT     H175365   9.206   8.534   2.893
25041WAT     H275366   9.115   8.653   2.957
25042WAT      O75367   6.321   2.506   6.736
25042WAT     H175368   6.227   2.540   6.736
25042WAT     H275369   6.326   2.423   6.680
25043WAT      O75370   1.505   0.137   9.436
25043WAT     H175371   1.427   0.187   9.474
25043WAT     H275372   1.570   0.117   9.509
25044WAT      O75373   6.002   9.359   7.021
25044WAT     H175374   6.056   9.275   7.027
25044WAT     H275375   6.040   9.428   7.082
25045WAT      O75376   0.072   4.215   8.296
25045WAT     H175377   0.071   4.118   8.270
25045WAT     H275378   0.167   4.247   8.302
25046WAT      O75379   7.171   8.577   8.395
25046WAT     H175380   7.239   8.507   8.376
25046WAT     H275381   7.191   8.621   8.483
25047WAT      O75382   4.097   7.067   2.861
25047WAT     H175383   4.043   7.143   2.896
25047WAT     H275384   4.101   7.072   2.761
25048WAT      O75385   1.133   4.706   7.995
25048WAT     H175386   1.053   4.705   7.934
25048WAT     H275387   1.103   4.688   8.089
25049WAT      O75388   0.731   1.370   9.190
25049WAT     H175389   0.829   1.363   9.169
25049WAT     H275390   0.706   1.466   9.201
25050WAT      O75391   0.109   4.577   5.100
25050WAT     H175392   0.021   4.533   5.088
25050WAT     H275393   0.164   4.567   5.017
25051WAT      O75394   5.824   0.692   4.028
25051WAT     H175395   5.730   0.663   4.044
25051WAT     H275396   5.838   0.709   3.931
25052WAT      O75397   6.340   6.835   9.481
25052WAT     H175398   6.309   6.928   9.504
25052WAT     H275399   6.369   6.833   9.386
25053WAT      O75400   9.665   9.677   2.145
25053WAT     H175401   9.624   9.618   2.214
25053WAT     H275402   9.643   9.773   2.165
25054WAT      O75403   5.656   5.766   4.089
25054WAT     H175404   5.747   5.734   4.115
25054WAT     H275405   5.603   5.689   4.053
25055WAT      O75406   4.247   1.077   4.836
25055WAT     H175407   4.283   1.133   4.761
25055WAT     H275408   4.298   1.097   4.920
25056WAT      O75409   4.132   0.722   5.956
25056WAT     H175410   4.089   0.724   6.046
25056WAT     H275411   4.192   0.802   5.945
25057WAT      O75412   4.594   2.074   0.542
25057WAT     H175413   4.634   1.984   0.526
25057WAT     H275414   4.594   2.094   0.640
25058WAT      O75415   8.032   5.591   5.962
25058WAT     H175416   8.023   5.636   6.051
25058WAT     H275417   8.015   5.493   5.972
25059WAT      O75418   7.915   6.336   3.811
25059WAT     H175419   7.930   6.404   3.739
25059WAT     H275420   7.928   6.379   3.900
25060WAT      O75421   4.578   6.041   2.896
25060WAT     H175422   4.572   6.108   2.970
25060WAT     H275423   4.487   6.018   2.863
25061WAT      O75424   5.157   3.092   3.586
25061WAT     H175425   5.239   3.145   3.605
25061WAT     H275426   5.108   3.134   3.510
25062WAT      O75427   9.858   9.345   2.974
25062WAT     H175428   9.859   9.258   3.023
25062WAT     H275429   9.789   9.342   2.902
25063WAT      O75430   1.707   0.675   0.062
25063WAT     H175431   1.740   0.757   0.015
25063WAT     H275432   1.752   0.669   0.152
25064WAT      O75433   8.723   5.762   0.617
25064WAT     H175434   8.748   5.801   0.528
25064WAT     H275435   8.624   5.753   0.622
25065WAT      O75436   7.973   9.509   1.127
25065WAT     H175437   7.938   9.428   1.175
25065WAT     H275438   7.968   9.494   1.028
25066WAT      O75439   2.712   2.934   1.103
25066WAT     H175440   2.759   3.009   1.058
25066WAT     H275441   2.628   2.968   1.145
25067WAT      O75442   8.253   2.004   9.121
25067WAT     H175443   8.290   2.070   9.186
25067WAT     H275444   8.304   2.010   9.035
25068WAT      O75445   5.008   5.512   9.156
25068WAT     H175446   5.012   5.485   9.253
25068WAT     H275447   4.965   5.438   9.104
25069WAT      O75448   9.129   1.999   2.935
25069WAT     H175449   9.070   1.919   2.922
25069WAT     H275450   9.207   1.994   2.873
25070WAT      O75451   4.812   1.960   1.315
25070WAT     H175452   4.885   1.899   1.285
25070WAT     H275453   4.760   1.917   1.388
25071WAT      O75454   8.530   9.087   3.802
25071WAT     H175455   8.510   8.991   3.783
25071WAT     H275456   8.458   9.145   3.764
25072WAT      O75457   3.508   7.849   2.408
25072WAT     H175458   3.542   7.876   2.318
25072WAT     H275459   3.499   7.750   2.412
25073WAT      O75460   3.422   0.441   4.755
25073WAT     H175461   3.359   0.480   4.688
25073WAT     H275462   3.516   0.468   4.731
25074WAT      O75463   5.862   2.404   4.477
25074WAT     H175464   5.939   2.344   4.455
25074WAT     H275465   5.893   2.499   4.476
25075WAT      O75466   0.732   9.742   6.311
25075WAT     H175467   0.697   9.667   6.367
25075WAT     H275468   0.829   9.755   6.329
25076WAT      O75469   5.533   5.638   8.281
25076WAT     H175470   5.558   5.555   8.230
25076WAT     H275471   5.522   5.616   8.377
25077WAT      O75472   5.945   4.692   8.346
25077WAT     H175473   6.028   4.691   8.402
25077WAT     H275474   5.894   4.776   8.364
25078WAT      O75475   7.998   2.347   1.759
25078WAT     H175476   8.003   2.364   1.661
25078WAT     H275477   7.912   2.384   1.795
25079WAT      O75478   8.008   3.916   3.843
25079WAT     H175479   8.094   3.953   3.808
25079WAT     H275480   7.933   3.978   3.820
25080WAT      O75481   4.454   6.550   8.186
25080WAT     H175482   4.487   6.543   8.280
25080WAT     H275483   4.403   6.636   8.175
25081WAT      O75484   5.067   7.515   7.595
25081WAT     H175485   4.968   7.501   7.599
25081WAT     H275486   5.114   7.430   7.615
25082WAT      O75487   6.554   2.228   6.528
25082WAT     H175488   6.625   2.299   6.526
25082WAT     H275489   6.464   2.271   6.513
25083WAT      O75490   6.366   8.399   0.345
25083WAT     H175491   6.385   8.374   0.250
25083WAT     H275492   6.424   8.476   0.371
25084WAT      O75493   1.064   3.885   9.178
25084WAT     H175494   1.079   3.927   9.268
25084WAT     H275495   0.987   3.821   9.184
25085WAT      O75496   4.374   3.302   2.434
25085WAT     H175497   4.373   3.277   2.531
25085WAT     H275498   4.414   3.227   2.381
25086WAT      O75499   1.609   2.116   6.736
25086WAT     H175500   1.569   2.036   6.780
25086WAT     H275501   1.546   2.150   6.666
25087WAT      O75502   6.751   2.390   5.568
25087WAT     H175503   6.680   2.328   5.602
25087WAT     H275504   6.840   2.361   5.604
25088WAT      O75505   3.066   9.276   6.632
25088WAT     H175506   3.045   9.275   6.730
25088WAT     H275507   3.003   9.337   6.585
25089WAT      O75508   0.122   6.989   7.528
25089WAT     H175509   0.070   7.066   7.564
25089WAT     H275510   0.220   7.006   7.542
25090WAT      O75511   0.603   6.263   8.636
25090WAT     H175512   0.642   6.188   8.690
25090WAT     H275513   0.619   6.246   8.539
25091WAT      O75514   0.973   8.826   1.425
25091WAT     H175515   0.958   8.754   1.358
25091WAT     H275516   0.922   8.908   1.398
25092WAT      O75517   2.035   0.949   5.003
25092WAT     H175518   2.025   0.971   4.906
25092WAT     H275519   2.027   1.033   5.057
25093WAT      O75520   1.741   6.143   9.670
25093WAT     H175521   1.717   6.118   9.764
25093WAT     H275522   1.719   6.239   9.655
25094WAT      O75523   5.148   4.345   5.135
25094WAT     H175524   5.131   4.272   5.069
25094WAT     H275525   5.246   4.348   5.156
25095WAT      O75526   0.614   7.150   2.160
25095WAT     H175527   0.556   7.224   2.194
25095WAT     H275528   0.576   7.115   2.074
25096WAT      O75529   7.096   2.525   7.305
25096WAT     H175530   7.060   2.446   7.255
25096WAT     H275531   7.090   2.508   7.403
25097WAT      O75532   8.733   1.043   4.736
25097WAT     H175533   8.730   1.015   4.640
25097WAT     H275534   8.704   0.967   4.794
25098WAT      O75535   1.607   4.743   9.736
25098WAT     H175536   1.552   4.661   9.718
25098WAT     H275537   1.673   4.755   9.662
25099WAT      O75538   6.403   7.691   8.986
25099WAT     H175539   6.495   7.730   8.976
25099WAT     H275540   6.411   7.601   9.029
25100WAT      O75541   3.779   6.169   2.704
25100WAT     H175542   3.723   6.199   2.781
25100WAT     H275543   3.836   6.244   2.672
25101WAT      O75544   1.617   6.698   5.026
25101WAT     H175545   1.636   6.731   5.118
25101WAT     H275546   1.555   6.760   4.980
25102WAT      O75547   7.715   2.996   0.340
25102WAT     H175548   7.651   3.069   0.317
25102WAT     H275549   7.674   2.935   0.407
25103WAT      O75550   5.021   2.435   4.452
25103WAT     H175551   4.967   2.352   4.463
25103WAT     H275552   5.099   2.434   4.515
25104WAT      O75553   4.387   0.760   9.348
25104WAT     H175554   4.409   0.709   9.432
25104WAT     H275555   4.467   0.815   9.322
25105WAT      O75556   1.517   7.396   4.857
25105WAT     H175557   1.531   7.376   4.760
25105WAT     H275558   1.542   7.316   4.912
25106WAT      O75559   6.549   8.558   7.270
25106WAT     H175560   6.628   8.565   7.330
25106WAT     H275561   6.570   8.601   7.182
25107WAT      O75562   7.563   6.813   7.033
25107WAT     H175563   7.577   6.911   7.051
25107WAT     H275564   7.465   6.795   7.025
25108WAT      O75565   6.194   5.459   2.505
25108WAT     H175566   6.181   5.497   2.414
25108WAT     H275567   6.277   5.403   2.506
25109WAT      O75568   5.676   2.526   1.822
25109WAT     H175569   5.708   2.567   1.736
25109WAT     H275570   5.668   2.427   1.810
25110WAT      O75571   2.942   6.821   7.781
25110WAT     H175572   2.982   6.824   7.873
25110WAT     H275573   3.014   6.824   7.712
25111WAT      O75574   7.756   5.010   1.006
25111WAT     H175575   7.706   4.924   1.009
25111WAT     H275576   7.737   5.064   1.088
25112WAT      O75577   0.482   3.008   7.986
25112WAT     H175578   0.500   2.953   7.904
25112WAT     H275579   0.439   3.094   7.959
25113WAT      O75580   5.843   3.326   9.012
25113WAT     H175581   5.788   3.357   8.935
25113WAT     H275582   5.816   3.376   9.095
25114WAT      O75583   4.929   1.951   5.203
25114WAT     H175584   4.965   2.044   5.212
25114WAT     H275585   4.830   1.953   5.212
25115WAT      O75586   6.678   6.017   7.781
25115WAT     H175587   6.709   6.108   7.808
25115WAT     H275588   6.703   6.000   7.686
25116WAT      O75589   2.397   9.357   8.904
25116WAT     H175590   2.481   9.410   8.901
25116WAT     H275591   2.394   9.295   8.825
25117WAT      O75592   7.537   0.793   4.674
25117WAT     H175593   7.465   0.725   4.681
25117WAT     H275594   7.593   0.792   4.756
25118WAT      O75595   1.816   6.857   3.265
25118WAT     H175596   1.759   6.792   3.213
25118WAT     H275597   1.885   6.896   3.204
25119WAT      O75598   0.773   8.787   3.022
25119WAT     H175599   0.701   8.838   3.069
25119WAT     H275600   0.751   8.690   3.023
25120WAT      O75601   4.321   2.307   1.288
25120WAT     H175602   4.290   2.232   1.230
25120WAT     H275603   4.244   2.343   1.341
25121WAT      O75604   4.429   2.767   9.115
25121WAT     H175605   4.421   2.862   9.085
25121WAT     H275606   4.518   2.731   9.088
25122WAT      O75607   2.650   3.511   7.161
25122WAT     H175608   2.625   3.542   7.069
25122WAT     H275609   2.619   3.578   7.228
25123WAT      O75610   7.691   5.734   4.149
25123WAT     H175611   7.692   5.829   4.118
25123WAT     H275612   7.783   5.696   4.146
25124WAT      O75613   8.704   8.656   3.655
25124WAT     H175614   8.738   8.630   3.746
25124WAT     H275615   8.623   8.602   3.633
25125WAT      O75616   5.155   9.754   0.244
25125WAT     H175617   5.241   9.777   0.200
25125WAT     H275618   5.103   9.693   0.184
25126WAT      O75619   0.242   5.958   1.580
25126WAT     H175620   0.309   5.934   1.510
25126WAT     H275621   0.245   5.890   1.654
25127WAT      O75622   6.313   5.892   1.722
25127WAT     H175623   6.386   5.959   1.720
25127WAT     H275624   6.339   5.815   1.781
25128WAT      O75625   8.787   5.455   9.183
25128WAT     H175626   8.818   5.513   9.258
25128WAT     H275627   8.830   5.365   9.190
25129WAT      O75628   9.866   8.516   0.056
25129WAT     H175629   9.845   8.424   0.089
25129WAT     H275630   9.965   8.526   0.045
25130WAT      O75631   7.939   8.797   3.163
25130WAT     H175632   7.938   8.894   3.183
25130WAT     H275633   8.002   8.750   3.226
25131WAT      O75634   3.044   7.491   7.041
25131WAT     H175635   3.030   7.531   7.132
25131WAT     H275636   3.085   7.401   7.050
25132WAT      O75637   2.243   5.255   1.754
25132WAT     H175638   2.199   5.318   1.818
25132WAT     H275639   2.246   5.164   1.794
25133WAT      O75640   4.345   1.278   5.462
25133WAT     H175641   4.346   1.319   5.554
25133WAT     H275642   4.251   1.256   5.436
25134WAT      O75643   4.013   3.838   5.358
25134WAT     H175644   3.951   3.909   5.393
25134WAT     H275645   3.971   3.748   5.371
25135WAT      O75646   8.610   7.987   5.164
25135WAT     H175647   8.590   8.041   5.082
25135WAT     H275648   8.525   7.950   5.201
25136WAT      O75649   3.531   4.161   7.493
25136WAT     H175650   3.474   4.193   7.569
25136WAT     H275651   3.594   4.090   7.525
25137WAT      O75652   0.183   2.015   6.371
25137WAT     H175653   0.265   2.041   6.320
25137WAT     H275654   0.102   2.031   6.315
25138WAT      O75655   5.161   6.258   7.292
25138WAT     H175656   5.211   6.172   7.275
25138WAT     H275657   5.180   6.289   7.385
25139WAT      O75658   8.742   2.630   9.704
25139WAT     H175659   8.646   2.615   9.727
25139WAT     H275660   8.766   2.573   9.625
25140WAT      O75661   1.756   9.266   6.431
25140WAT     H175662   1.735   9.355   6.472
25140WAT     H275663   1.810   9.280   6.348
25141WAT      O75664   1.841   8.566   0.328
25141WAT     H175665   1.840   8.664   0.350
25141WAT     H275666   1.864   8.554   0.232
25142WAT      O75667   9.604   8.091   0.753
25142WAT     H175668   9.698   8.115   0.779
25142WAT     H275669   9.580   8.002   0.791
25143WAT      O75670   9.772   3.687   0.786
25143WAT     H175671   9.806   3.650   0.873
25143WAT     H275672   9.678   3.658   0.771
25144WAT      O75673   7.762   2.926   5.837
25144WAT     H175674   7.681   2.923   5.778
25144WAT     H275675   7.836   2.872   5.796
25145WAT      O75676   5.830   1.273   2.018
25145WAT     H175677   5.908   1.212   2.030
25145WAT     H275678   5.831   1.342   2.090
25146WAT      O75679   9.164   8.484   6.208
25146WAT     H175680   9.078   8.534   6.215
25146WAT     H275681   9.208   8.505   6.121
25147WAT      O75682   9.060   1.276   6.441
25147WAT     H175683   9.069   1.371   6.413
25147WAT     H275684   9.126   1.256   6.514
25148WAT      O75685   9.068   8.329   3.136
25148WAT     H175686   9.152   8.331   3.081
25148WAT     H275687   9.074   8.255   3.203
25149WAT      O75688   1.998   0.233   0.247
25149WAT     H175689   1.910   0.243   0.200
25149WAT     H275690   1.996   0.287   0.331
25150WAT      O75691   9.579   0.739   1.590
25150WAT     H175692   9.526   0.690   1.521
25150WAT     H275693   9.615   0.673   1.657
25151WAT      O75694   3.573   9.664   3.580
25151WAT     H175695   3.611   9.592   3.639
25151WAT     H275696   3.480   9.640   3.554
25152WAT      O75697   3.665   8.996   1.288
25152WAT     H175698   3.696   8.971   1.196
25152WAT     H275699   3.712   9.079   1.318
25153WAT      O75700   3.187   1.218   5.978
25153WAT     H175701   3.200   1.296   5.917
25153WAT     H275702   3.271   1.163   5.979
25154WAT      O75703   9.532   6.586   9.527
25154WAT     H175704   9.558   6.491   9.510
25154WAT     H275705   9.439   6.601   9.492
25155WAT      O75706   0.541   5.652   1.199
25155WAT     H175707   0.498   5.668   1.110
25155WAT     H275708   0.523   5.731   1.258
25156WAT      O75709   2.800   4.171   3.673
25156WAT     H175710   2.707   4.170   3.638
25156WAT     H275711   2.802   4.221   3.760
25157WAT      O75712   1.889   5.801   2.551
25157WAT     H175713   1.870   5.786   2.648
25157WAT     H275714   1.981   5.841   2.541
25158WAT      O75715   2.162   0.879   0.592
25158WAT     H175716   2.181   0.873   0.690
25158WAT     H275717   2.071   0.839   0.574
25159WAT      O75718   6.117   0.103   3.472
25159WAT     H175719   6.064   0.124   3.390
25159WAT     H275720   6.086   0.161   3.548
25160WAT      O75721   2.737   0.185   4.759
25160WAT     H175722   2.675   0.165   4.836
25160WAT     H275723   2.764   0.100   4.715
25161WAT      O75724   0.417   4.787   2.063
25161WAT     H175725   0.433   4.693   2.035
25161WAT     H275726   0.413   4.792   2.163
25162WAT      O75727   0.884   0.987   5.115
25162WAT     H175728   0.887   1.071   5.170
25162WAT     H275729   0.895   1.009   5.019
25163WAT      O75730   2.099   4.691   8.133
25163WAT     H175731   2.185   4.685   8.183
25163WAT     H275732   2.069   4.598   8.108
25164WAT      O75733   2.241   5.524   2.086
25164WAT     H175734   2.205   5.447   2.033
25164WAT     H275735   2.221   5.610   2.038
25165WAT      O75736   9.012   4.238   8.650
25165WAT     H175737   8.941   4.221   8.719
25165WAT     H275738   8.971   4.283   8.571
25166WAT      O75739   2.289   1.660   4.247
25166WAT     H175740   2.312   1.583   4.307
25166WAT     H275741   2.190   1.661   4.232
25167WAT      O75742   7.436   1.304   5.837
25167WAT     H175743   7.525   1.277   5.874
25167WAT     H275744   7.400   1.230   5.780
25168WAT      O75745   5.017   5.941   2.070
25168WAT     H175746   5.018   5.900   1.979
25168WAT     H275747   4.946   6.011   2.074
25169WAT      O75748   7.700   3.163   3.406
25169WAT     H175749   7.746   3.222   3.339
25169WAT     H275750   7.769   3.120   3.464
25170WAT      O75751   8.211   8.398   6.039
25170WAT     H175752   8.157   8.472   6.000
25170WAT     H275753   8.229   8.417   6.136
25171WAT      O75754   4.819   3.997   8.823
25171WAT     H175755   4.880   3.988   8.901
25171WAT     H275756   4.838   4.084   8.776
25172WAT      O75757   8.979   3.111   1.499
25172WAT     H175758   8.940   3.202   1.487
25172WAT     H275759   9.049   3.114   1.571
25173WAT      O75760   0.252   8.989   0.741
25173WAT     H175761   0.221   8.919   0.805
25173WAT     H275762   0.326   9.042   0.783
25174WAT      O75763   5.030   3.041   9.697
25174WAT     H175764   5.037   3.102   9.618
25174WAT     H275765   5.063   3.089   9.779
25175WAT      O75766   2.303   5.570   2.374
25175WAT     H175767   2.283   5.568   2.276
25175WAT     H275768   2.338   5.660   2.399
25176WAT      O75769   2.047   5.634   5.223
25176WAT     H175770   2.074   5.635   5.127
25176WAT     H275771   2.107   5.695   5.275
25177WAT      O75772   0.317   2.189   0.220
25177WAT     H175773   0.250   2.139   0.165
25177WAT     H275774   0.299   2.287   0.213
25178WAT      O75775   0.914   4.018   6.609
25178WAT     H175776   0.854   4.002   6.531
25178WAT     H275777   0.985   4.084   6.584
25179WAT      O75778   2.980   4.773   1.213
25179WAT     H175779   3.040   4.729   1.280
25179WAT     H275780   2.887   4.738   1.223
25180WAT      O75781   1.103   1.168   2.075
25180WAT     H175782   1.094   1.236   2.147
25180WAT     H275783   1.146   1.085   2.112
25181WAT      O75784   9.875   4.445   3.425
25181WAT     H175785   9.841   4.356   3.395
25181WAT     H275786   9.821   4.517   3.382
25182WAT      O75787   1.222   6.553   3.209
25182WAT     H175788   1.243   6.621   3.139
25182WAT     H275789   1.123   6.549   3.222
25183WAT      O75790   3.642   5.318   3.998
25183WAT     H175791   3.681   5.241   4.049
25183WAT     H275792   3.691   5.402   4.022
25184WAT      O75793   5.626   9.567   4.306
25184WAT     H175794   5.602   9.618   4.223
25184WAT     H275795   5.711   9.516   4.289
25185WAT      O75796   0.488   6.929   1.422
25185WAT     H175797   0.530   6.869   1.354
25185WAT     H275798   0.451   6.875   1.497
25186WAT      O75799   3.136   3.375   0.894
25186WAT     H175800   3.047   3.412   0.922
25186WAT     H275801   3.127   3.278   0.874
25187WAT      O75802   5.823   7.819   3.726
25187WAT     H175803   5.739   7.766   3.739
25187WAT     H275804   5.893   7.788   3.790
25188WAT      O75805   4.761   7.976   3.104
25188WAT     H175806   4.751   8.051   3.039
25188WAT     H275807   4.819   7.905   3.065
25189WAT      O75808   3.299   2.067   2.597
25189WAT     H175809   3.258   2.145   2.645
25189WAT     H275810   3.397   2.065   2.617
25190WAT      O75811   1.743   7.447   8.515
25190WAT     H175812   1.822   7.475   8.570
25190WAT     H275813   1.660   7.456   8.570
25191WAT      O75814   7.651   7.980   1.543
25191WAT     H175815   7.589   7.992   1.621
25191WAT     H275816   7.745   7.989   1.574
25192WAT      O75817   1.267   9.784   1.795
25192WAT     H175818   1.209   9.709   1.825
25192WAT     H275819   1.227   9.871   1.824
25193WAT      O75820   4.264   6.965   6.097
25193WAT     H175821   4.271   7.056   6.139
25193WAT     H275822   4.294   6.896   6.162
25194WAT      O75823   7.518   2.268   0.305
25194WAT     H175824   7.481   2.238   0.393
25194WAT     H275825   7.591   2.206   0.277
25195WAT      O75826   3.822   3.818   0.595
25195WAT     H175827   3.814   3.816   0.495
25195WAT     H275828   3.770   3.895   0.631
25196WAT      O75829   1.108   9.052   0.145
25196WAT     H175830   1.110   9.042   0.046
25196WAT     H275831   1.069   8.969   0.186
25197WAT      O75832   5.832   5.937   3.498
25197WAT     H175833   5.913   5.995   3.488
25197WAT     H275834   5.756   5.992   3.533
25198WAT      O75835   3.135   7.895   3.099
25198WAT     H175836   3.093   7.985   3.109
25198WAT     H275837   3.234   7.904   3.111
25199WAT      O75838   1.544   7.595   5.095
25199WAT     H175839   1.487   7.579   5.176
25199WAT     H275840   1.509   7.542   5.018
25200WAT      O75841   6.247   2.973   5.611
25200WAT     H175842   6.194   2.930   5.685
25200WAT     H275843   6.255   2.910   5.534
25201WAT      O75844   1.365   8.581   2.018
25201WAT     H175845   1.360   8.482   2.013
25201WAT     H275846   1.429   8.608   2.090
25202WAT      O75847   3.357   4.531   5.540
25202WAT     H175848   3.439   4.506   5.593
25202WAT     H275849   3.276   4.497   5.587
25203WAT      O75850   8.808   4.343   8.140
25203WAT     H175851   8.793   4.442   8.144
25203WAT     H275852   8.825   4.315   8.046
25204WAT      O75853   8.705   3.355   6.560
25204WAT     H175854   8.704   3.443   6.608
25204WAT     H275855   8.724   3.282   6.625
25205WAT      O75856   4.066   8.824   0.315
25205WAT     H175857   4.007   8.830   0.234
25205WAT     H275858   4.110   8.734   0.317
25206WAT      O75859   6.446   0.330   1.319
25206WAT     H175860   6.409   0.263   1.255
25206WAT     H275861   6.372   0.364   1.377
25207WAT      O75862   0.776   1.848   8.492
25207WAT     H175863   0.820   1.760   8.477
25207WAT     H275864   0.712   1.867   8.417
25208WAT      O75865   2.880   6.215   0.758
25208WAT     H175866   2.926   6.202   0.671
25208WAT     H275867   2.794   6.265   0.743
25209WAT      O75868   6.401   9.663   8.645
25209WAT     H175869   6.435   9.587   8.701
25209WAT     H275870   6.313   9.637   8.604
25210WAT      O75871   0.165   7.852   0.725
25210WAT     H175872   0.088   7.863   0.663
25210WAT     H275873   0.177   7.755   0.746
25211WAT      O75874   4.851   2.890   1.655
25211WAT     H175875   4.927   2.946   1.688
25211WAT     H275876   4.766   2.943   1.661
25212WAT      O75877   8.376   3.642   2.490
25212WAT     H175878   8.311   3.710   2.523
25212WAT     H275879   8.411   3.589   2.567
25213WAT      O75880   0.692   3.247   3.525
25213WAT     H175881   0.604   3.289   3.504
25213WAT     H275882   0.706   3.246   3.624
25214WAT      O75883   1.685   6.853   5.242
25214WAT     H175884   1.592   6.890   5.232
25214WAT     H275885   1.713   6.860   5.338
25215WAT      O75886   8.955   2.813   8.806
25215WAT     H175887   8.973   2.772   8.895
25215WAT     H275888   9.041   2.818   8.754
25216WAT      O75889   2.414   4.147   7.245
25216WAT     H175890   2.454   4.099   7.323
25216WAT     H275891   2.424   4.246   7.259
25217WAT      O75892   2.137   1.646   2.624
25217WAT     H175893   2.143   1.555   2.582
25217WAT     H275894   2.157   1.639   2.722
25218WAT      O75895   0.107   1.183   6.341
25218WAT     H175896   0.045   1.119   6.386
25218WAT     H275897   0.054   1.259   6.303
25219WAT      O75898   5.743   6.670   4.752
25219WAT     H175899   5.742   6.641   4.656
25219WAT     H275900   5.823   6.727   4.769
25220WAT      O75901   0.142   8.774   2.439
25220WAT     H175902   0.050   8.805   2.464
25220WAT     H275903   0.201   8.774   2.519
25221WAT      O75904   0.671   6.004   1.207
25221WAT     H175905   0.619   6.008   1.122
25221WAT     H275906   0.768   6.023   1.188
25222WAT      O75907   2.465   6.088   4.904
25222WAT     H175908   2.509   6.111   4.991
25222WAT     H275909   2.448   6.171   4.852
25223WAT      O75910   1.023   1.847   4.742
25223WAT     H175911   1.082   1.923   4.768
25223WAT     H275912   0.936   1.855   4.790
25224WAT      O75913   7.321   2.804   5.379
25224WAT     H175914   7.240   2.798   5.321
25224WAT     H275915   7.347   2.712   5.409
25225WAT      O75916   6.922   5.165   8.780
25225WAT     H175917   7.007   5.141   8.734
25225WAT     H275918   6.922   5.262   8.802
25226WAT      O75919   5.393   2.349   0.945
25226WAT     H175920   5.351   2.380   0.860
25226WAT     H275921   5.328   2.293   0.996
25227WAT      O75922   5.357   1.561   8.433
25227WAT     H175923   5.454   1.576   8.453
25227WAT     H275924   5.348   1.491   8.362
25228WAT      O75925   6.582   8.538   8.227
25228WAT     H175926   6.588   8.588   8.314
25228WAT     H275927   6.497   8.562   8.180
25229WAT      O75928   7.606   0.612   3.774
25229WAT     H175929   7.576   0.605   3.679
25229WAT     H275930   7.703   0.590   3.780
25230WAT      O75931   3.116   2.651   2.972
25230WAT     H175932   3.209   2.668   2.939
25230WAT     H275933   3.071   2.584   2.914
25231WAT      O75934   3.426   9.777   4.981
25231WAT     H175935   3.505   9.771   5.043
25231WAT     H275936   3.451   9.831   4.901
25232WAT      O75937   6.012   5.573   0.539
25232WAT     H175938   6.098   5.541   0.578
25232WAT     H275939   5.936   5.523   0.580
25233WAT      O75940   7.650   2.377   8.819
25233WAT     H175941   7.683   2.301   8.763
25233WAT     H275942   7.719   2.400   8.888
25234WAT      O75943   3.192   8.938   0.532
25234WAT     H175944   3.136   8.939   0.450
25234WAT     H275945   3.169   9.017   0.589
25235WAT      O75946   6.066   8.462   5.691
25235WAT     H175947   6.050   8.504   5.780
25235WAT     H275948   6.112   8.528   5.631
25236WAT      O75949   7.980   3.696   1.713
25236WAT     H175950   7.976   3.604   1.750
25236WAT     H275951   7.931   3.759   1.773
25237WAT      O75952   3.616   9.016   6.036
25237WAT     H175953   3.686   8.945   6.038
25237WAT     H275954   3.556   9.005   6.116
25238WAT      O75955   9.007   8.703   9.703
25238WAT     H175956   9.020   8.612   9.740
25238WAT     H275957   8.930   8.703   9.639
25239WAT      O75958   0.746   7.330   0.729
25239WAT     H175959   0.756   7.405   0.663
25239WAT     H275960   0.786   7.247   0.691
25240WAT      O75961   9.835   7.666   0.565
25240WAT     H175962   9.771   7.730   0.524
25240WAT     H275963   9.866   7.601   0.496
25241WAT      O75964   1.777   6.407   1.229
25241WAT     H175965   1.828   6.346   1.168
25241WAT     H275966   1.836   6.481   1.260
25242WAT      O75967   3.010   0.409   8.842
25242WAT     H175968   3.098   0.454   8.856
25242WAT     H275969   3.023   0.310   8.837
25243WAT      O75970   0.994   9.297   9.722
25243WAT     H175971   1.053   9.326   9.647
25243WAT     H275972   1.032   9.331   9.809
25244WAT      O75973   5.386   6.273   2.528
25244WAT     H175974   5.438   6.326   2.594
25244WAT     H275975   5.447   6.208   2.481
25245WAT      O75976   9.436   5.835   4.702
25245WAT     H175977   9.521   5.814   4.654
25245WAT     H275978   9.439   5.797   4.794
25246WAT      O75979   5.964   2.134   2.630
25246WAT     H175980   6.026   2.116   2.707
25246WAT     H275981   5.870   2.128   2.661
25247WAT      O75982   3.679   2.157   3.698
25247WAT     H175983   3.740   2.235   3.684
25247WAT     H275984   3.606   2.159   3.628
25248WAT      O75985   7.543   8.704   1.282
25248WAT     H175986   7.566   8.630   1.219
25248WAT     H275987   7.625   8.759   1.300
25249WAT      O75988   4.192   9.246   4.336
25249WAT     H175989   4.114   9.259   4.397
25249WAT     H275990   4.168   9.277   4.244
25250WAT      O75991   0.027   2.168   8.116
25250WAT     H175992   0.011   2.215   8.203
25250WAT     H275993   0.116   2.124   8.118
25251WAT      O75994   3.766   9.410   6.011
25251WAT     H175995   3.736   9.397   6.105
25251WAT     H275996   3.866   9.411   6.007
25252WAT      O75997   6.748   6.680   5.737
25252WAT     H175998   6.769   6.756   5.675
25252WAT     H275999   6.686   6.712   5.808
25253WAT      O76000   3.998   4.172   8.137
25253WAT     H176001   4.032   4.242   8.199
25253WAT     H276002   4.053   4.171   8.054
25254WAT      O76003   8.068   1.115   2.260
25254WAT     H176004   8.127   1.094   2.337
25254WAT     H276005   8.078   1.045   2.189
25255WAT      O76006   3.463   9.427   6.754
25255WAT     H176007   3.514   9.418   6.839
25255WAT     H276008   3.502   9.366   6.685
25256WAT      O76009   7.123   2.177   8.769
25256WAT     H176010   7.032   2.136   8.759
25256WAT     H276011   7.115   2.276   8.768
25257WAT      O76012   1.970   6.656   4.438
25257WAT     H176013   2.061   6.633   4.404
25257WAT     H276014   1.913   6.689   4.363
25258WAT      O76015   1.172   0.507   5.908
25258WAT     H176016   1.223   0.548   5.832
25258WAT     H276017   1.116   0.431   5.874
25259WAT      O76018   2.972   4.118   9.830
25259WAT     H176019   3.000   4.207   9.793
25259WAT     H276020   2.881   4.126   9.870
25260WAT      O76021   9.784   8.917   1.430
25260WAT     H176022   9.867   8.959   1.467
25260WAT     H276023   9.731   8.877   1.504
25261WAT      O76024   9.091   9.195   6.758
25261WAT     H176025   8.996   9.222   6.743
25261WAT     H276026   9.095   9.096   6.773
25262WAT      O76027   0.597   2.163   3.249
25262WAT     H176028   0.620   2.097   3.321
25262WAT     H276029   0.505   2.142   3.214
25263WAT      O76030   6.531   7.068   0.923
25263WAT     H176031   6.594   7.141   0.898
25263WAT     H276032   6.582   6.985   0.943
25264WAT      O76033   3.493   5.228   8.573
25264WAT     H176034   3.466   5.297   8.507
25264WAT     H276035   3.575   5.180   8.541
25265WAT      O76036   6.136   2.947   1.142
25265WAT     H176037   6.204   2.945   1.068
25265WAT     H276038   6.084   2.862   1.142
25266WAT      O76039   2.654   4.539   1.661
25266WAT     H176040   2.724   4.495   1.604
25266WAT     H276041   2.630   4.479   1.737
25267WAT      O76042   5.751   8.558   3.944
25267WAT     H176043   5.702   8.485   3.992
25267WAT     H276044   5.717   8.647   3.977
25268WAT      O76045   7.701   8.558   6.246
25268WAT     H176046   7.633   8.619   6.287
25268WAT     H276047   7.655   8.477   6.211
25269WAT      O76048   6.559   8.090   2.974
25269WAT     H176049   6.518   8.033   3.045
25269WAT     H276050   6.538   8.186   2.992
25270WAT      O76051   6.740   3.301   6.078
25270WAT     H176052   6.692   3.286   6.165
25270WAT     H276053   6.814   3.367   6.093
25271WAT      O76054   6.770   2.726   2.360
25271WAT     H176055   6.812   2.776   2.284
25271WAT     H276056   6.716   2.650   2.325
25272WAT      O76057   4.478   6.687   4.272
25272WAT     H176058   4.548   6.658   4.337
25272WAT     H276059   4.429   6.606   4.238
25273WAT      O76060   9.743   8.798   1.765
25273WAT     H176061   9.838   8.768   1.757
25273WAT     H276062   9.701   8.753   1.845
25274WAT      O76063   1.397   0.341   5.929
25274WAT     H176064   1.317   0.402   5.923
25274WAT     H276065   1.380   0.259   5.875
25275WAT      O76066   4.513   0.773   6.144
25275WAT     H176067   4.433   0.717   6.165
25275WAT     H276068   4.552   0.744   6.057
25276WAT      O76069   9.586   6.588   6.541
25276WAT     H176070   9.660   6.652   6.521
25276WAT     H276071   9.552   6.548   6.456
25277WAT      O76072   0.104   5.206   4.119
25277WAT     H176073   0.150   5.120   4.140
25277WAT     H276074   0.059   5.241   4.201
25278WAT      O76075   2.453   0.629   8.169
25278WAT     H176076   2.442   0.718   8.213
25278WAT     H276077   2.365   0.581   8.168
25279WAT      O76078   1.805   7.764   3.381
25279WAT     H176079   1.887   7.761   3.323
25279WAT     H276080   1.820   7.707   3.462
25280WAT      O76081   6.298   8.041   4.628
25280WAT     H176082   6.299   8.055   4.529
25280WAT     H276083   6.204   8.027   4.660
25281WAT      O76084   3.289   0.157   3.503
25281WAT     H176085   3.289   0.166   3.403
25281WAT     H276086   3.373   0.111   3.533
25282WAT      O76087   6.862   4.428   6.622
25282WAT     H176088   6.893   4.478   6.542
25282WAT     H276089   6.862   4.330   6.603
25283WAT      O76090   2.913   5.897   7.774
25283WAT     H176091   2.888   5.862   7.865
25283WAT     H276092   2.988   5.843   7.738
25284WAT      O76093   1.080   5.292   5.924
25284WAT     H176094   0.992   5.264   5.887
25284WAT     H276095   1.099   5.239   6.008
25285WAT      O76096   0.851   4.460   9.011
25285WAT     H176097   0.863   4.364   9.036
25285WAT     H276098   0.810   4.509   9.087
25286WAT      O76099   2.396   7.091   0.645
25286WAT     H176100   2.368   7.127   0.556
25286WAT     H276101   2.417   6.994   0.637
25287WAT      O76102   1.199   7.854   3.863
25287WAT     H176103   1.164   7.791   3.793
25287WAT     H276104   1.270   7.911   3.824
25288WAT      O76105   4.847   8.681   1.035
25288WAT     H176106   4.919   8.682   0.966
25288WAT     H276107   4.879   8.632   1.117
25289WAT      O76108   9.521   8.583   3.635
25289WAT     H176109   9.500   8.511   3.701
25289WAT     H276110   9.610   8.564   3.593
25290WAT      O76111   7.492   5.176   2.191
25290WAT     H176112   7.462   5.084   2.216
25290WAT     H276113   7.508   5.180   2.092
25291WAT      O76114   3.107   6.987   3.121
25291WAT     H176115   3.125   7.066   3.061
25291WAT     H276116   3.142   7.007   3.212
25292WAT      O76117   7.807   2.209   0.149
25292WAT     H176118   7.786   2.127   0.201
25292WAT     H276119   7.900   2.204   0.114
25293WAT      O76120   3.528   3.901   9.167
25293WAT     H176121   3.457   3.941   9.108
25293WAT     H276122   3.566   3.973   9.225
25294WAT      O76123   3.097   2.315   7.619
25294WAT     H176124   3.148   2.271   7.546
25294WAT     H276125   3.002   2.328   7.590
25295WAT      O76126   4.270   2.797   8.287
25295WAT     H176127   4.353   2.806   8.232
25295WAT     H276128   4.289   2.823   8.381
25296WAT      O76129   3.657   0.825   5.497
25296WAT     H176130   3.632   0.878   5.416
25296WAT     H276131   3.698   0.886   5.565
25297WAT      O76132   3.427   9.744   7.163
25297WAT     H176133   3.457   9.771   7.254
25297WAT     H276134   3.371   9.662   7.168
25298WAT      O76135   1.316   6.854   3.507
25298WAT     H176136   1.353   6.942   3.477
25298WAT     H276137   1.275   6.865   3.598
25299WAT      O76138   0.086   1.523   9.882
25299WAT     H176139   0.137   1.467   9.817
25299WAT     H276140   0.150   1.569   9.943
25300WAT      O76141   1.203   8.841   6.569
25300WAT     H176142   1.248   8.752   6.568
25300WAT     H276143   1.273   8.913   6.570
25301WAT      O76144   5.139   7.481   9.388
25301WAT     H176145   5.123   7.568   9.435
25301WAT     H276146   5.196   7.497   9.307
25302WAT      O76147   5.132   6.371   4.244
25302WAT     H176148   5.148   6.398   4.148
25302WAT     H276149   5.193   6.295   4.267
25303WAT      O76150   8.246   4.078   1.026
25303WAT     H176151   8.315   4.145   1.052
25303WAT     H276152   8.249   4.063   0.927
25304WAT      O76153   4.529   4.118   0.480
25304WAT     H176154   4.538   4.019   0.494
25304WAT     H276155   4.558   4.142   0.388
25305WAT      O76156   9.360   1.308   3.939
25305WAT     H176157   9.368   1.312   4.038
25305WAT     H276158   9.420   1.377   3.898
25306WAT      O76159   0.565   9.296   1.377
25306WAT     H176160   0.620   9.369   1.335
25306WAT     H276161   0.625   9.240   1.434
25307WAT      O76162   0.324   4.021   5.872
25307WAT     H176163   0.358   3.956   5.803
25307WAT     H276164   0.249   3.979   5.923
25308WAT      O76165   6.988   7.131   2.806
25308WAT     H176166   6.923   7.099   2.737
25308WAT     H276167   6.986   7.231   2.809
25309WAT      O76168   4.156   8.166   0.914
25309WAT     H176169   4.114   8.108   0.984
25309WAT     H276170   4.233   8.119   0.873
25310WAT      O76171   5.202   4.903   0.626
25310WAT     H176172   5.239   4.829   0.570
25310WAT     H276173   5.102   4.896   0.629
25311WAT      O76174   4.988   7.109   2.883
25311WAT     H176175   5.067   7.101   2.823
25311WAT     H276176   4.920   7.040   2.858
25312WAT      O76177   0.691   5.362   7.326
25312WAT     H176178   0.608   5.416   7.313
25312WAT     H276179   0.697   5.292   7.255
25313WAT      O76180   8.169   0.254   4.810
25313WAT     H176181   8.086   0.292   4.850
25313WAT     H276182   8.226   0.328   4.775
25314WAT      O76183   1.124   6.903   8.044
25314WAT     H176184   1.037   6.946   8.067
25314WAT     H276185   1.122   6.807   8.072
25315WAT      O76186   0.048   9.220   1.747
25315WAT     H176187   0.031   9.230   1.845
25315WAT     H276188  -0.038   9.234   1.697
25316WAT      O76189   2.013   0.294   8.937
25316WAT     H176190   2.104   0.336   8.932
25316WAT     H276191   1.972   0.314   9.026
25317WAT      O76192   4.836   5.189   7.196
25317WAT     H176193   4.802   5.149   7.111
25317WAT     H276194   4.900   5.125   7.239
25318WAT      O76195   8.887   4.111   5.948
25318WAT     H176196   8.986   4.128   5.945
25318WAT     H276197   8.866   4.046   6.021
25319WAT      O76198   9.285   3.710   2.827
25319WAT     H176199   9.345   3.630   2.825
25319WAT     H276200   9.203   3.689   2.880
25320WAT      O76201   8.752   2.094   2.739
25320WAT     H176202   8.768   2.099   2.838
25320WAT     H276203   8.736   2.186   2.704
25321WAT      O76204   3.395   1.718   0.728
25321WAT     H176205   3.425   1.740   0.821
25321WAT     H276206   3.458   1.759   0.663
25322WAT      O76207   1.110   0.672   8.897
25322WAT     H176208   1.146   0.745   8.838
25322WAT     H276209   1.016   0.651   8.870
25323WAT      O76210   0.053   0.439   7.807
25323WAT     H176211   0.035   0.385   7.724
25323WAT     H276212   0.104   0.384   7.872
25324WAT      O76213   1.199   8.063   7.394
25324WAT     H176214   1.143   8.131   7.442
25324WAT     H276215   1.249   8.108   7.320
25325WAT      O76216   3.279   8.699   6.102
25325WAT     H176217   3.335   8.753   6.164
25325WAT     H276218   3.217   8.641   6.155
25326WAT      O76219   5.698   1.836   5.917
25326WAT     H176220   5.683   1.845   5.818
25326WAT     H276221   5.612   1.815   5.962
25327WAT      O76222   0.662   8.651   2.669
25327WAT     H176223   0.619   8.734   2.707
25327WAT     H276224   0.686   8.589   2.744
25328WAT      O76225   2.137   5.410   0.677
25328WAT     H176226   2.064   5.343   0.665
25328WAT     H276227   2.163   5.414   0.774
25329WAT      O76228   2.475   3.815   8.917
25329WAT     H176229   2.562   3.840   8.959
25329WAT     H276230   2.444   3.727   8.952
25330WAT      O76231   0.731   0.961   8.117
25330WAT     H176232   0.769   0.873   8.089
25330WAT     H276233   0.666   0.947   8.192
25331WAT      O76234   0.398   9.641   0.090
25331WAT     H176235   0.457   9.710   0.131
25331WAT     H276236   0.304   9.652   0.123
25332WAT      O76237   7.100   3.978   2.007
25332WAT     H176238   7.111   4.075   1.983
25332WAT     H276239   7.149   3.922   1.941
25333WAT      O76240   0.585   1.928   6.703
25333WAT     H176241   0.640   1.852   6.668
25333WAT     H276242   0.644   2.008   6.717
25334WAT      O76243   8.868   3.190   4.211
25334WAT     H176244   8.822   3.103   4.192
25334WAT     H276245   8.841   3.223   4.302
25335WAT      O76246   2.515   7.528   5.829
25335WAT     H176247   2.433   7.517   5.773
25335WAT     H276248   2.565   7.610   5.801
25336WAT      O76249   6.394   0.197   8.451
25336WAT     H176250   6.344   0.261   8.391
25336WAT     H276251   6.464   0.150   8.398
25337WAT      O76252   9.492   7.359   0.584
25337WAT     H176253   9.528   7.375   0.492
25337WAT     H276254   9.462   7.264   0.592
25338WAT      O76255   4.255   7.827   6.992
25338WAT     H176256   4.242   7.754   7.059
25338WAT     H276257   4.335   7.808   6.936
25339WAT      O76258   7.955   6.908   5.488
25339WAT     H176259   7.968   6.810   5.474
25339WAT     H276260   7.881   6.923   5.554
25340WAT      O76261   4.357   4.446   5.653
25340WAT     H176262   4.328   4.473   5.745
25340WAT     H276263   4.381   4.528   5.601
25341WAT      O76264   4.262   5.643   7.924
25341WAT     H176265   4.219   5.662   8.012
25341WAT     H276266   4.272   5.544   7.913
25342WAT      O76267   7.480   9.718   4.593
25342WAT     H176268   7.560   9.663   4.569
25342WAT     H276269   7.494   9.812   4.562
25343WAT      O76270   5.773   1.354   3.554
25343WAT     H176271   5.815   1.427   3.607
25343WAT     H276272   5.789   1.370   3.456
25344WAT      O76273   6.870   3.594   0.330
25344WAT     H176274   6.816   3.598   0.414
25344WAT     H276275   6.859   3.681   0.280
25345WAT      O76276   1.812   7.960   5.640
25345WAT     H176277   1.909   7.936   5.631
25345WAT     H276278   1.758   7.907   5.575
25346WAT      O76279   4.476   8.844   5.801
25346WAT     H176280   4.574   8.832   5.781
25346WAT     H276281   4.447   8.775   5.867
25347WAT      O76282   2.663   8.675   4.564
25347WAT     H176283   2.578   8.639   4.601
25347WAT     H276284   2.669   8.653   4.466
25348WAT      O76285   5.286   6.181   1.332
25348WAT     H176286   5.331   6.235   1.403
25348WAT     H276287   5.214   6.236   1.288
25349WAT      O76288   8.377   4.217   4.443
25349WAT     H176289   8.444   4.253   4.508
25349WAT     H276290   8.332   4.293   4.395
25350WAT      O76291   9.869   8.521   2.060
25350WAT     H176292   9.807   8.592   2.026
25350WAT     H276293   9.816   8.452   2.109
25351WAT      O76294   2.028   1.247   3.170
25351WAT     H176295   2.010   1.345   3.165
25351WAT     H276296   1.948   1.201   3.208
25352WAT      O76297   8.239   3.854   7.865
25352WAT     H176298   8.257   3.948   7.836
25352WAT     H276299   8.242   3.850   7.965
25353WAT      O76300   7.789   4.745   9.081
25353WAT     H176301   7.786   4.681   9.005
25353WAT     H276302   7.842   4.705   9.156
25354WAT      O76303   0.812   6.998   6.092
25354WAT     H176304   0.844   7.063   6.161
25354WAT     H276305   0.874   7.000   6.013
25355WAT      O76306   2.132   6.641   6.007
25355WAT     H176307   2.048   6.613   6.055
25355WAT     H276308   2.186   6.699   6.068
25356WAT      O76309   1.940   0.140   7.580
25356WAT     H176310   1.910   0.125   7.486
25356WAT     H276311   2.028   0.095   7.595
25357WAT      O76312   5.987   5.611   4.961
25357WAT     H176313   5.958   5.553   5.037
25357WAT     H276314   5.912   5.671   4.934
25358WAT      O76315   6.344   3.060   9.853
25358WAT     H176316   6.335   3.026   9.946
25358WAT     H276317   6.258   3.046   9.803
25359WAT      O76318   5.107   1.555   9.157
25359WAT     H176319   5.022   1.577   9.109
25359WAT     H276320   5.115   1.455   9.165
25360WAT      O76321   6.013   0.853   3.183
25360WAT     H176322   6.026   0.870   3.085
25360WAT     H276323   5.933   0.903   3.215
25361WAT      O76324   3.632   1.076   8.034
25361WAT     H176325   3.726   1.096   8.063
25361WAT     H276326   3.583   1.031   8.108
25362WAT      O76327   7.334   2.485   1.666
25362WAT     H176328   7.250   2.431   1.676
25362WAT     H276329   7.317   2.580   1.692
25363WAT      O76330   8.704   0.610   9.102
25363WAT     H176331   8.662   0.527   9.138
25363WAT     H276332   8.650   0.690   9.130
25364WAT      O76333   9.406   6.745   0.418
25364WAT     H176334   9.445   6.795   0.341
25364WAT     H276335   9.337   6.802   0.463
25365WAT      O76336   5.725   6.195   8.145
25365WAT     H176337   5.711   6.252   8.226
25365WAT     H276338   5.814   6.151   8.150
25366WAT      O76339   1.095   2.767   7.501
25366WAT     H176340   1.075   2.675   7.469
25366WAT     H276341   1.012   2.822   7.498
25367WAT      O76342   1.106   4.426   5.676
25367WAT     H176343   1.182   4.389   5.622
25367WAT     H276344   1.054   4.350   5.716
25368WAT      O76345   9.471   4.415   0.387
25368WAT     H176346   9.443   4.399   0.293
25368WAT     H276347   9.483   4.513   0.402
25369WAT      O76348   4.936   0.306   1.030
25369WAT     H176349   4.844   0.267   1.038
25369WAT     H276350   4.987   0.258   0.959
25370WAT      O76351   7.917   6.222   3.033
25370WAT     H176352   7.896   6.145   3.094
25370WAT     H276353   8.011   6.253   3.050
25371WAT      O76354   0.059   6.617   3.292
25371WAT     H176355   0.138   6.678   3.280
25371WAT     H276356   0.025   6.588   3.203
25372WAT      O76357   2.918   4.869   2.661
25372WAT     H176358   2.984   4.890   2.588
25372WAT     H276359   2.967   4.834   2.741
25373WAT      O76360   2.335   4.678   4.510
25373WAT     H176361   2.407   4.642   4.450
25373WAT     H276362   2.248   4.635   4.487
25374WAT      O76363   1.657   1.507   6.466
25374WAT     H176364   1.748   1.526   6.428
25374WAT     H276365   1.649   1.547   6.557
25375WAT      O76366   8.051   4.518   2.488
25375WAT     H176367   8.101   4.435   2.464
25375WAT     H276368   7.955   4.496   2.503
25376WAT      O76369   1.480   8.705   2.711
25376WAT     H176370   1.430   8.725   2.796
25376WAT     H276371   1.539   8.782   2.688
25377WAT      O76372   0.465   6.636   8.279
25377WAT     H176373   0.534   6.564   8.266
25377WAT     H276374   0.435   6.636   8.374
25378WAT      O76375   6.111   1.324   6.762
25378WAT     H176376   6.158   1.296   6.846
25378WAT     H276377   6.108   1.424   6.757
25379WAT      O76378   9.660   4.719   4.858
25379WAT     H176379   9.644   4.718   4.957
25379WAT     H276380   9.600   4.653   4.814
25380WAT      O76381   0.558   9.457   8.068
25380WAT     H176382   0.600   9.522   8.131
25380WAT     H276383   0.462   9.444   8.093
25381WAT      O76384   9.185   9.312   7.264
25381WAT     H176385   9.114   9.305   7.334
25381WAT     H276386   9.141   9.314   7.174
25382WAT      O76387   5.205   9.456   0.268
25382WAT     H176388   5.294   9.458   0.314
25382WAT     H276389   5.200   9.531   0.202
25383WAT      O76390   0.967   3.470   6.583
25383WAT     H176391   0.990   3.377   6.612
25383WAT     H276392   1.021   3.493   6.502
25384WAT      O76393   6.124   0.136   5.328
25384WAT     H176394   6.060   0.162   5.399
25384WAT     H276395   6.216   0.127   5.367
25385WAT      O76396   9.711   7.462   7.611
25385WAT     H176397   9.716   7.477   7.709
25385WAT     H276398   9.692   7.549   7.565
25386WAT      O76399   1.889   4.015   9.286
25386WAT     H176400   1.874   4.093   9.226
25386WAT     H276401   1.815   3.948   9.273
25387WAT      O76402   8.717   1.910   3.606
25387WAT     H176403   8.627   1.937   3.571
25387WAT     H276404   8.728   1.811   3.594
25388WAT      O76405   9.870   4.052   5.081
25388WAT     H176406   9.773   4.051   5.105
25388WAT     H276407   9.904   3.958   5.078
25389WAT      O76408   3.789   6.227   4.144
25389WAT     H176409   3.736   6.261   4.222
25389WAT     H276410   3.739   6.154   4.098
25390WAT      O76411   1.182   8.313   8.804
25390WAT     H176412   1.207   8.377   8.732
25390WAT     H276413   1.204   8.219   8.775
25391WAT      O76414   8.522   7.642   1.861
25391WAT     H176415   8.465   7.628   1.781
25391WAT     H276416   8.471   7.694   1.930
25392WAT      O76417   7.791   2.553   6.000
25392WAT     H176418   7.869   2.608   6.029
25392WAT     H276419   7.761   2.496   6.077
25393WAT      O76420   9.474   0.735   6.233
25393WAT     H176421   9.417   0.755   6.153
25393WAT     H276422   9.543   0.667   6.209
25394WAT      O76423   0.934   3.108   7.382
25394WAT     H176424   1.008   3.094   7.316
25394WAT     H276425   0.959   3.181   7.445
25395WAT      O76426   7.718   5.245   9.222
25395WAT     H176427   7.629   5.219   9.261
25395WAT     H276428   7.716   5.235   9.123
25396WAT      O76429   4.772   5.360   0.212
25396WAT     H176430   4.872   5.356   0.208
25396WAT     H276431   4.737   5.400   0.127
25397WAT      O76432   1.891   5.922   1.728
25397WAT     H176433   1.849   5.861   1.661
25397WAT     H276434   1.894   5.876   1.817
25398WAT      O76435   1.127   6.717   0.345
25398WAT     H176436   1.158   6.628   0.311
25398WAT     H276437   1.199   6.785   0.328
25399WAT      O76438   2.318   8.397   0.847
25399WAT     H176439   2.271   8.354   0.771
25399WAT     H276440   2.348   8.327   0.912
25400WAT      O76441   7.244   4.120   7.567
25400WAT     H176442   7.187   4.063   7.626
25400WAT     H276443   7.301   4.179   7.624
25401WAT      O76444   7.381   6.401   6.467
25401WAT     H176445   7.412   6.441   6.553
25401WAT     H276446   7.290   6.361   6.479
25402WAT      O76447   3.934   8.357   2.012
25402WAT     H176448   4.018   8.320   2.053
25402WAT     H276449   3.953   8.448   1.975
25403WAT      O76450   5.311   5.055   0.826
25403WAT     H176451   5.284   4.993   0.752
25403WAT     H276452   5.338   5.002   0.906
25404WAT      O76453   9.776   1.595   9.225
25404WAT     H176454   9.734   1.530   9.161
25404WAT     H276455   9.837   1.546   9.286
25405WAT      O76456   6.216   7.818   3.245
25405WAT     H176457   6.120   7.802   3.269
25405WAT     H276458   6.227   7.810   3.146
25406WAT      O76459   7.011   6.469   7.718
25406WAT     H176460   7.102   6.437   7.693
25406WAT     H276461   7.011   6.502   7.812
25407WAT      O76462   6.501   3.907   9.689
25407WAT     H176463   6.597   3.885   9.708
25407WAT     H276464   6.443   3.855   9.751
25408WAT      O76465   4.305   0.230   2.094
25408WAT     H176466   4.331   0.262   2.185
25408WAT     H276467   4.317   0.131   2.088
25409WAT      O76468   1.317   7.777   0.988
25409WAT     H176469   1.315   7.749   0.892
25409WAT     H276470   1.398   7.834   1.003
25410WAT      O76471   1.032   9.369   4.976
25410WAT     H176472   1.100   9.332   4.914
25410WAT     H276473   1.006   9.299   5.043
25411WAT      O76474   1.494   3.333   2.467
25411WAT     H176475   1.532   3.376   2.385
25411WAT     H276476   1.567   3.323   2.536
25412WAT      O76477   7.504   5.110   0.464
25412WAT     H176478   7.424   5.054   0.443
25412WAT     H276479   7.555   5.127   0.380
25413WAT      O76480   8.519   4.850   5.608
25413WAT     H176481   8.449   4.778   5.618
25413WAT     H276482   8.606   4.808   5.584
25414WAT      O76483   0.251   0.795   0.366
25414WAT     H176484   0.163   0.818   0.406
25414WAT     H276485   0.241   0.717   0.305
25415WAT      O76486   1.515   1.697   6.992
25415WAT     H176487   1.503   1.763   6.918
25415WAT     H276488   1.570   1.738   7.065
25416WAT      O76489   7.685   3.503   4.102
25416WAT     H176490   7.585   3.505   4.111
25416WAT     H276491   7.717   3.590   4.066
25417WAT      O76492   5.309   0.350   7.838
25417WAT     H176493   5.333   0.447   7.845
25417WAT     H276494   5.366   0.307   7.768
25418WAT      O76495   9.647   4.388   4.223
25418WAT     H176496   9.642   4.374   4.322
25418WAT     H276497   9.669   4.302   4.178
25419WAT      O76498   8.696   1.097   2.672
25419WAT     H176499   8.746   1.027   2.723
25419WAT     H276500   8.706   1.185   2.717
25420WAT      O76501   6.568   3.643   8.962
25420WAT     H176502   6.651   3.678   9.006
25420WAT     H276503   6.531   3.714   8.901
25421WAT      O76504   8.439   9.701   7.716
25421WAT     H176505   8.385   9.692   7.800
25421WAT     H276506   8.531   9.734   7.739
25422WAT      O76507   8.200   6.986   9.492
25422WAT     H176508   8.109   6.973   9.454
25422WAT     H276509   8.203   7.070   9.546
25423WAT      O76510   6.741   1.456   4.784
25423WAT     H176511   6.741   1.411   4.873
25423WAT     H276512   6.816   1.421   4.728
25424WAT      O76513   6.442   9.157   6.316
25424WAT     H176514   6.536   9.160   6.350
25424WAT     H276515   6.423   9.240   6.264
25425WAT      O76516   7.182   8.543   3.109
25425WAT     H176517   7.210   8.560   3.015
25425WAT     H276518   7.101   8.599   3.131
25426WAT      O76519   2.692   7.814   2.895
25426WAT     H176520   2.682   7.834   2.798
25426WAT     H276521   2.790   7.810   2.918
25427WAT      O76522   0.482   4.809   4.240
25427WAT     H176523   0.429   4.758   4.307
25427WAT     H276524   0.563   4.757   4.215
25428WAT      O76525   1.817   6.877   1.646
25428WAT     H176526   1.805   6.803   1.712
25428WAT     H276527   1.765   6.957   1.676
25429WAT      O76528   5.877   3.468   4.903
25429WAT     H176529   5.798   3.527   4.920
25429WAT     H276530   5.888   3.455   4.804
25430WAT      O76531   5.827   8.594   6.841
25430WAT     H176532   5.889   8.598   6.920
25430WAT     H276533   5.871   8.635   6.762
25431WAT      O76534   1.945   5.156   3.788
25431WAT     H176535   2.026   5.165   3.845
25431WAT     H276536   1.935   5.060   3.760
25432WAT      O76537   7.824   9.787   4.225
25432WAT     H176538   7.911   9.769   4.180
25432WAT     H276539   7.784   9.871   4.190
25433WAT      O76540   9.377   9.359   8.366
25433WAT     H176541   9.412   9.372   8.459
25433WAT     H276542   9.277   9.363   8.367
25434WAT      O76543   3.039   7.549   7.330
25434WAT     H176544   2.979   7.476   7.363
25434WAT     H276545   3.128   7.542   7.374
25435WAT      O76546   6.339   6.819   5.598
25435WAT     H176547   6.395   6.866   5.529
25435WAT     H276548   6.269   6.765   5.552
25436WAT      O76549   1.802   2.662   5.283
25436WAT     H176550   1.853   2.675   5.198
25436WAT     H276551   1.814   2.743   5.341
25437WAT      O76552   2.564   4.580   6.822
25437WAT     H176553   2.487   4.602   6.763
25437WAT     H276554   2.630   4.655   6.821
25438WAT      O76555   8.448   4.732   0.804
25438WAT     H176556   8.351   4.750   0.792
25438WAT     H276557   8.500   4.816   0.790
25439WAT      O76558   2.885   7.397   5.685
25439WAT     H176559   2.942   7.317   5.667
25439WAT     H276560   2.828   7.379   5.765
25440WAT      O76561   3.224   2.471   8.244
25440WAT     H176562   3.141   2.527   8.240
25440WAT     H276563   3.297   2.522   8.289
25441WAT      O76564   5.806   6.240   2.817
25441WAT     H176565   5.753   6.324   2.804
25441WAT     H276566   5.812   6.219   2.914
25442WAT      O76567   5.967   0.790   2.611
25442WAT     H176568   5.914   0.867   2.577
25442WAT     H276569   6.042   0.823   2.668
25443WAT      O76570   2.386   5.908   4.360
25443WAT     H176571   2.300   5.866   4.333
25443WAT     H276572   2.384   5.927   4.458
25444WAT      O76573   3.918   0.775   5.004
25444WAT     H176574   3.827   0.764   4.966
25444WAT     H276575   3.913   0.779   5.104
25445WAT      O76576   8.367   8.744   3.338
25445WAT     H176577   8.301   8.678   3.300
25445WAT     H276578   8.351   8.834   3.298
25446WAT      O76579   7.963   6.488   4.036
25446WAT     H176580   8.046   6.529   3.999
25446WAT     H276581   7.895   6.560   4.053
25447WAT      O76582   1.691   1.233   5.189
25447WAT     H176583   1.790   1.239   5.191
25447WAT     H276584   1.652   1.322   5.162
25448WAT      O76585   3.988   5.593   3.659
25448WAT     H176586   4.076   5.575   3.703
25448WAT     H276587   4.003   5.620   3.564
25449WAT      O76588   2.477   1.738   5.236
25449WAT     H176589   2.379   1.756   5.244
25449WAT     H276590   2.503   1.670   5.305
25450WAT      O76591   1.666   0.712   2.854
25450WAT     H176592   1.648   0.810   2.858
25450WAT     H276593   1.580   0.662   2.847
25451WAT      O76594   8.828   8.410   3.032
25451WAT     H176595   8.915   8.377   3.069
25451WAT     H276596   8.820   8.508   3.051
25452WAT      O76597   5.796   2.115   9.721
25452WAT     H176598   5.823   2.063   9.801
25452WAT     H276599   5.856   2.092   9.644
25453WAT      O76600   2.479   7.250   4.367
25453WAT     H176601   2.426   7.334   4.366
25453WAT     H276602   2.567   7.266   4.412
25454WAT      O76603   0.980   0.364   4.731
25454WAT     H176604   1.046   0.344   4.804
25454WAT     H276605   1.020   0.429   4.667
25455WAT      O76606   3.094   5.464   4.797
25455WAT     H176607   3.142   5.545   4.830
25455WAT     H276608   3.153   5.412   4.735
25456WAT      O76609   4.009   8.773   8.421
25456WAT     H176610   3.921   8.821   8.430
25456WAT     H276611   4.075   8.814   8.484
25457WAT      O76612   3.687   8.940   5.525
25457WAT     H176613   3.726   8.853   5.493
25457WAT     H276614   3.628   8.978   5.454
25458WAT      O76615   6.303   6.425   5.232
25458WAT     H176616   6.304   6.353   5.161
25458WAT     H276617   6.220   6.479   5.223
25459WAT      O76618   1.375   4.527   8.091
25459WAT     H176619   1.312   4.602   8.074
25459WAT     H276620   1.465   4.551   8.053
25460WAT      O76621   5.169   2.967   5.569
25460WAT     H176622   5.163   3.008   5.478
25460WAT     H276623   5.100   3.009   5.629
25461WAT      O76624   7.677   3.306   4.298
25461WAT     H176625   7.687   3.370   4.374
25461WAT     H276626   7.654   3.357   4.214
25462WAT      O76627   5.295   3.938   8.175
25462WAT     H176628   5.197   3.924   8.193
25462WAT     H276629   5.306   3.972   8.082
25463WAT      O76630   4.652   5.579   0.830
25463WAT     H176631   4.668   5.516   0.753
25463WAT     H276632   4.612   5.528   0.906
25464WAT      O76633   6.870   0.097   5.014
25464WAT     H176634   6.966   0.124   4.999
25464WAT     H276635   6.830   0.157   5.084
25465WAT      O76636   5.536   9.465   6.399
25465WAT     H176637   5.493   9.411   6.327
25465WAT     H276638   5.493   9.443   6.487
25466WAT      O76639   2.894   5.728   5.905
25466WAT     H176640   2.878   5.662   5.978
25466WAT     H276641   2.950   5.686   5.833
25467WAT      O76642   3.357   8.990   5.848
25467WAT     H176643   3.427   8.927   5.812
25467WAT     H276644   3.398   9.049   5.917
25468WAT      O76645   4.574   6.448   3.580
25468WAT     H176646   4.485   6.455   3.625
25468WAT     H276647   4.626   6.374   3.621
25469WAT      O76648   3.695   8.444   1.410
25469WAT     H176649   3.650   8.427   1.497
25469WAT     H276650   3.792   8.462   1.426
25470WAT      O76651   3.128   2.157   5.903
25470WAT     H176652   3.039   2.180   5.864
25470WAT     H276653   3.189   2.124   5.831
25471WAT      O76654   1.871   8.852   4.381
25471WAT     H176655   1.809   8.918   4.340
25471WAT     H276656   1.925   8.808   4.308
25472WAT      O76657   2.422   8.202   8.578
25472WAT     H176658   2.484   8.128   8.550
25472WAT     H276659   2.432   8.279   8.516
25473WAT      O76660   8.849   1.752   4.500
25473WAT     H176661   8.817   1.808   4.423
25473WAT     H276662   8.773   1.736   4.563
25474WAT      O76663   1.353   7.059   2.402
25474WAT     H176664   1.452   7.069   2.413
25474WAT     H276665   1.307   7.114   2.471
25475WAT      O76666   8.334   0.624   8.311
25475WAT     H176667   8.250   0.676   8.329
25475WAT     H276668   8.406   0.688   8.282
25476WAT      O76669   4.810   0.724   8.290
25476WAT     H176670   4.867   0.657   8.244
25476WAT     H276671   4.837   0.730   8.386
25477WAT      O76672   7.335   8.898   8.716
25477WAT     H176673   7.394   8.941   8.784
25477WAT     H276674   7.364   8.926   8.624
25478WAT      O76675   9.761   2.505   0.336
25478WAT     H176676   9.709   2.495   0.421
25478WAT     H276677   9.703   2.549   0.267
25479WAT      O76678   6.131   7.958   0.971
25479WAT     H176679   6.144   7.879   1.031
25479WAT     H276680   6.085   7.929   0.887
25480WAT      O76681   4.949   6.931   8.725
25480WAT     H176682   4.939   6.831   8.732
25480WAT     H276683   5.045   6.955   8.735
25481WAT      O76684   7.568   6.469   4.124
25481WAT     H176685   7.555   6.453   4.222
25481WAT     H276686   7.557   6.566   4.104
25482WAT      O76687   0.467   6.503   7.709
25482WAT     H176688   0.532   6.577   7.724
25482WAT     H276689   0.423   6.478   7.795
25483WAT      O76690   6.293   9.271   9.437
25483WAT     H176691   6.383   9.312   9.423
25483WAT     H276692   6.236   9.288   9.356
25484WAT      O76693   2.495   5.575   1.548
25484WAT     H176694   2.482   5.476   1.545
25484WAT     H276695   2.445   5.612   1.626
25485WAT      O76696   3.394   4.719   8.746
25485WAT     H176697   3.313   4.753   8.698
25485WAT     H276698   3.451   4.796   8.773
25486WAT      O76699   6.714   0.308   9.246
25486WAT     H176700   6.632   0.253   9.227
25486WAT     H276701   6.791   0.247   9.264
25487WAT      O76702   4.945   5.813   1.789
25487WAT     H176703   4.962   5.735   1.850
25487WAT     H276704   5.014   5.814   1.717
25488WAT      O76705   8.456   0.840   6.607
25488WAT     H176706   8.550   0.807   6.597
25488WAT     H276707   8.394   0.761   6.614
25489WAT      O76708   5.847   4.535   6.635
25489WAT     H176709   5.817   4.629   6.622
25489WAT     H276710   5.909   4.530   6.714
25490WAT      O76711   4.798   4.643   5.357
25490WAT     H176712   4.867   4.689   5.301
25490WAT     H276713   4.828   4.641   5.452
25491WAT      O76714   6.163   3.282   0.103
25491WAT     H176715   6.204   3.275   0.012
25491WAT     H276716   6.233   3.270   0.173
25492WAT      O76717   5.274   0.774   8.030
25492WAT     H176718   5.186   0.792   8.073
25492WAT     H276719   5.336   0.851   8.046
25493WAT      O76720   8.060   9.738   4.094
25493WAT     H176721   8.119   9.673   4.047
25493WAT     H276722   8.116   9.810   4.136
25494WAT      O76723   7.134   7.249   7.870
25494WAT     H176724   7.227   7.286   7.876
25494WAT     H276725   7.120   7.182   7.943
25495WAT      O76726   9.359   5.951   3.950
25495WAT     H176727   9.425   5.948   3.875
25495WAT     H276728   9.270   5.979   3.915
25496WAT      O76729   8.824   3.452   8.760
25496WAT     H176730   8.921   3.432   8.777
25496WAT     H276731   8.809   3.471   8.663
25497WAT      O76732   1.650   2.124   9.851
25497WAT     H176733   1.698   2.133   9.939
25497WAT     H276734   1.567   2.070   9.865
25498WAT      O76735   9.742   4.871   4.431
25498WAT     H176736   9.723   4.774   4.440
25498WAT     H276737   9.669   4.916   4.379
25499WAT      O76738   3.014   2.233   9.138
25499WAT     H176739   3.109   2.245   9.165
25499WAT     H276740   2.956   2.291   9.196
25500WAT      O76741   1.331   5.990   1.327
25500WAT     H176742   1.277   5.977   1.410
25500WAT     H276743   1.315   5.914   1.264
25501WAT      O76744   9.878   6.359   7.154
25501WAT     H176745   9.943   6.285   7.172
25501WAT     H276746   9.804   6.355   7.221
25502WAT      O76747   2.064   3.919   0.969
25502WAT     H176748   2.066   3.859   0.889
25502WAT     H276749   1.977   3.968   0.971
25503WAT      O76750   8.214   1.444   0.968
25503WAT     H176751   8.282   1.387   0.923
25503WAT     H276752   8.215   1.425   1.067
25504WAT      O76753   3.736   5.133   2.692
25504WAT     H176754   3.747   5.207   2.758
25504WAT     H276755   3.804   5.143   2.619
25505WAT      O76756   8.461   5.529   2.920
25505WAT     H176757   8.541   5.528   2.980
25505WAT     H276758   8.483   5.483   2.834
25506WAT      O76759   4.625   1.524   2.091
25506WAT     H176760   4.541   1.473   2.071
25506WAT     H276761   4.643   1.522   2.190
25507WAT      O76762   2.676   4.108   2.834
25507WAT     H176763   2.634   4.176   2.895
25507WAT     H276764   2.605   4.047   2.799
25508WAT      O76765   7.191   6.795   9.595
25508WAT     H176766   7.228   6.725   9.534
25508WAT     H276767   7.212   6.886   9.558
25509WAT      O76768   6.875   7.865   0.719
25509WAT     H176769   6.941   7.926   0.676
25509WAT     H276770   6.815   7.918   0.779
25510WAT      O76771   2.509   4.858   6.233
25510WAT     H176772   2.600   4.899   6.225
25510WAT     H276773   2.471   4.843   6.142
25511WAT      O76774   5.120   5.211   7.994
25511WAT     H176775   5.212   5.173   8.005
25511WAT     H276776   5.122   5.310   8.006
25512WAT      O76777   9.849   5.766   0.109
25512WAT     H176778   9.845   5.687   0.047
25512WAT     H276779   9.757   5.802   0.123
25513WAT      O76780   0.890   0.299   0.032
25513WAT     H176781   0.981   0.319   0.069
25513WAT     H276782   0.882   0.337  -0.060
25514WAT      O76783   8.350   5.237   8.987
25514WAT     H176784   8.415   5.305   9.021
25514WAT     H276785   8.395   5.148   8.984
25515WAT      O76786   1.565   8.325   6.633
25515WAT     H176787   1.493   8.257   6.627
25515WAT     H276788   1.651   8.286   6.599
25516WAT      O76789   1.844   9.051   9.890
25516WAT     H176790   1.887   9.008   9.969
25516WAT     H276791   1.891   9.021   9.807
25517WAT      O76792   0.713   8.333   4.380
25517WAT     H176793   0.799   8.330   4.330
25517WAT     H276794   0.647   8.389   4.330
25518WAT      O76795   7.772   8.814   0.922
25518WAT     H176796   7.682   8.812   0.967
25518WAT     H276797   7.768   8.759   0.838
25519WAT      O76798   5.065   7.334   8.214
25519WAT     H176799   5.089   7.239   8.233
25519WAT     H276800   4.971   7.338   8.181
25520WAT      O76801   7.185   9.450   2.526
25520WAT     H176802   7.176   9.543   2.491
25520WAT     H276803   7.105   9.427   2.581
25521WAT      O76804   6.827   2.911   4.900
25521WAT     H176805   6.742   2.861   4.917
25521WAT     H276806   6.890   2.854   4.848
25522WAT      O76807   1.230   7.019   9.553
25522WAT     H176808   1.240   7.104   9.605
25522WAT     H276809   1.303   7.012   9.485
25523WAT      O76810   2.202   3.314   5.280
25523WAT     H176811   2.227   3.264   5.363
25523WAT     H276812   2.173   3.407   5.305
25524WAT      O76813   1.276   7.548   9.480
25524WAT     H176814   1.287   7.508   9.571
25524WAT     H276815   1.184   7.532   9.447
25525WAT      O76816   6.899   7.675   9.494
25525WAT     H176817   6.832   7.623   9.440
25525WAT     H276818   6.887   7.773   9.476
25526WAT      O76819   7.829   0.177   9.691
25526WAT     H176820   7.739   0.184   9.734
25526WAT     H276821   7.827   0.222   9.602
25527WAT      O76822   6.754   4.394   4.180
25527WAT     H176823   6.678   4.330   4.171
25527WAT     H276824   6.831   4.362   4.125
25528WAT      O76825   6.680   2.202   8.240
25528WAT     H176826   6.634   2.256   8.169
25528WAT     H276827   6.779   2.205   8.223
25529WAT      O76828   2.860   9.004   5.727
25529WAT     H176829   2.931   9.073   5.715
25529WAT     H276830   2.776   9.047   5.760
25530WAT      O76831   8.601   4.144   4.928
25530WAT     H176832   8.523   4.110   4.981
25530WAT     H276833   8.666   4.069   4.913
25531WAT      O76834   1.993   5.047   6.753
25531WAT     H176835   1.968   5.126   6.809
25531WAT     H276836   1.986   5.072   6.656
25532WAT      O76837   1.715   7.337   1.380
25532WAT     H176838   1.669   7.394   1.312
25532WAT     H276839   1.807   7.314   1.348
25533WAT      O76840   5.100   4.301   4.343
25533WAT     H176841   5.008   4.275   4.312
25533WAT     H276842   5.101   4.399   4.364
25534WAT      O76843   4.464   6.706   1.482
25534WAT     H176844   4.463   6.775   1.410
25534WAT     H276845   4.475   6.751   1.571
25535WAT      O76846   9.400   8.529   2.836
25535WAT     H176847   9.494   8.555   2.859
25535WAT     H276848   9.387   8.534   2.737
25536WAT      O76849   2.454   9.811   1.254
25536WAT     H176850   2.390   9.801   1.178
25536WAT     H276851   2.521   9.882   1.232
25537WAT      O76852   6.580   0.488   0.560
25537WAT     H176853   6.631   0.523   0.639
25537WAT     H276854   6.526   0.563   0.520
25538WAT      O76855   5.641   4.316   5.670
25538WAT     H176856   5.652   4.325   5.769
25538WAT     H276857   5.647   4.407   5.628
25539WAT      O76858   3.778   6.406   2.099
25539WAT     H176859   3.692   6.449   2.127
25539WAT     H276860   3.853   6.445   2.153
25540WAT      O76861   9.867   2.239   6.415
25540WAT     H176862   9.962   2.270   6.420
25540WAT     H276863   9.835   2.217   6.507
25541WAT      O76864   1.001   5.489   7.983
25541WAT     H176865   0.916   5.489   7.931
25541WAT     H276866   1.021   5.396   8.014
25542WAT      O76867   2.575   3.176   8.832
25542WAT     H176868   2.513   3.121   8.887
25542WAT     H276869   2.524   3.242   8.778
25543WAT      O76870   9.078   7.152   5.316
25543WAT     H176871   9.004   7.212   5.285
25543WAT     H276872   9.040   7.079   5.372
25544WAT      O76873   4.180   7.539   4.522
25544WAT     H176874   4.164   7.625   4.570
25544WAT     H276875   4.112   7.472   4.550
25545WAT      O76876   8.676   2.438   4.735
25545WAT     H176877   8.631   2.348   4.738
25545WAT     H276878   8.771   2.427   4.706
25546WAT      O76879   6.181   0.950   4.152
25546WAT     H176880   6.084   0.962   4.130
25546WAT     H276881   6.212   1.028   4.206
25547WAT      O76882   6.108   2.450   4.126
25547WAT     H176883   6.182   2.401   4.172
25547WAT     H276884   6.078   2.397   4.046
25548WAT      O76885   9.678   3.564   8.393
25548WAT     H176886   9.776   3.549   8.401
25548WAT     H276887   9.657   3.661   8.407
25549WAT      O76888   4.837   6.428   2.708
25549WAT     H176889   4.811   6.335   2.680
25549WAT     H276890   4.925   6.452   2.666
25550WAT      O76891   1.308   3.617   4.379
25550WAT     H176892   1.370   3.643   4.305
25550WAT     H276893   1.319   3.680   4.456
25551WAT      O76894   4.679   3.593   3.166
25551WAT     H176895   4.655   3.523   3.233
25551WAT     H276896   4.692   3.680   3.212
25552WAT      O76897   2.401   7.354   3.338
25552WAT     H176898   2.473   7.387   3.277
25552WAT     H276899   2.313   7.359   3.291
25553WAT      O76900   3.430   1.901   8.776
25553WAT     H176901   3.383   1.945   8.699
25553WAT     H276902   3.396   1.938   8.862
25554WAT      O76903   7.113   3.741   9.236
25554WAT     H176904   7.190   3.733   9.299
25554WAT     H276905   7.133   3.810   9.167
25555WAT      O76906   4.668   0.901   4.300
25555WAT     H176907   4.593   0.852   4.256
25555WAT     H276908   4.755   0.860   4.273
25556WAT      O76909   4.468   4.796   1.665
25556WAT     H176910   4.476   4.779   1.764
25556WAT     H276911   4.373   4.822   1.644
25557WAT      O76912   9.788   1.002   1.093
25557WAT     H176913   9.750   0.969   1.007
25557WAT     H276914   9.876   0.959   1.109
25558WAT      O76915   6.514   2.782   4.609
25558WAT     H176916   6.577   2.706   4.593
25558WAT     H276917   6.556   2.867   4.576
25559WAT      O76918   0.607   2.861   3.476
25559WAT     H176919   0.572   2.783   3.424
25559WAT     H276920   0.580   2.851   3.572
25560WAT      O76921   2.356   2.538   8.175
25560WAT     H176922   2.440   2.495   8.142
25560WAT     H276923   2.376   2.632   8.204
25561WAT      O76924   5.817   0.055   5.139
25561WAT     H176925   5.834   0.052   5.238
25561WAT     H276926   5.895   0.015   5.091
25562WAT      O76927   2.253   8.404   3.106
25562WAT     H176928   2.267   8.306   3.124
25562WAT     H276929   2.338   8.453   3.123
25563WAT      O76930   3.207   7.140   0.105
25563WAT     H176931   3.290   7.092   0.132
25563WAT     H276932   3.230   7.233   0.076
25564WAT      O76933   9.151   8.256   7.599
25564WAT     H176934   9.145   8.194   7.520
25564WAT     H276935   9.247   8.273   7.620
25565WAT      O76936   8.382   8.831   1.484
25565WAT     H176937   8.467   8.845   1.433
25565WAT     H276938   8.311   8.797   1.422
25566WAT      O76939   6.439   3.281   9.447
25566WAT     H176940   6.530   3.316   9.427
25566WAT     H276941   6.396   3.336   9.518
25567WAT      O76942   0.095   6.638   8.735
25567WAT     H176943   0.122   6.562   8.675
25567WAT     H276944   0.019   6.688   8.694
25568WAT      O76945   0.940   0.032   1.688
25568WAT     H176946   0.997   0.113   1.699
25568WAT     H276947   0.863   0.036   1.751
25569WAT      O76948   8.486   9.469   8.368
25569WAT     H176949   8.541   9.451   8.287
25569WAT     H276950   8.466   9.567   8.373
25570WAT      O76951   9.053   6.719   3.113
25570WAT     H176952   8.998   6.643   3.146
25570WAT     H276953   9.116   6.749   3.185
25571WAT      O76954   8.000   0.190   2.546
25571WAT     H176955   8.050   0.222   2.466
25571WAT     H276956   8.064   0.150   2.611
25572WAT      O76957   0.311   3.890   4.307
25572WAT     H176958   0.267   3.819   4.362
25572WAT     H276959   0.315   3.861   4.211
25573WAT      O76960   9.738   3.929   1.807
25573WAT     H176961   9.678   3.918   1.728
25573WAT     H276962   9.684   3.959   1.885
25574WAT      O76963   8.682   2.758   0.144
25574WAT     H176964   8.590   2.792   0.122
25574WAT     H276965   8.713   2.698   0.070
25575WAT      O76966   4.484   8.712   6.923
25575WAT     H176967   4.407   8.775   6.931
25575WAT     H276968   4.451   8.621   6.900
25576WAT      O76969   3.920   1.132   5.958
25576WAT     H176970   3.867   1.049   5.975
25576WAT     H276971   3.859   1.212   5.958
25577WAT      O76972   6.923   1.834   4.485
25577WAT     H176973   7.019   1.850   4.463
25577WAT     H276974   6.893   1.748   4.442
25578WAT      O76975   0.216   2.871   2.070
25578WAT     H176976   0.275   2.843   2.146
25578WAT     H276977   0.220   2.970   2.059
25579WAT      O76978   8.701   0.541   6.189
25579WAT     H176979   8.741   0.466   6.136
25579WAT     H276980   8.734   0.628   6.153
25580WAT      O76981   2.724   6.521   0.457
25580WAT     H176982   2.788   6.514   0.380
25580WAT     H276983   2.631   6.533   0.422
25581WAT      O76984   2.197   6.528   2.982
25581WAT     H176985   2.103   6.496   2.985
25581WAT     H276986   2.234   6.515   2.890
25582WAT      O76987   0.061   3.546   0.345
25582WAT     H176988   0.078   3.493   0.262
25582WAT     H276989  -0.027   3.592   0.338
25583WAT      O76990   7.247   3.177   5.369
25583WAT     H176991   7.326   3.115   5.377
25583WAT     H276992   7.163   3.124   5.370
25584WAT      O76993   5.195   7.537   3.808
25584WAT     H176994   5.209   7.441   3.783
25584WAT     H276995   5.136   7.543   3.888
25585WAT      O76996   8.971   6.539   8.786
25585WAT     H176997   9.024   6.535   8.871
25585WAT     H276998   8.998   6.463   8.727
25586WAT      O76999   8.384   2.218   5.344
25586WAT     H177000   8.321   2.152   5.304
25586WAT     H277001   8.387   2.301   5.288
25587WAT      O77002   8.003   5.713   5.318
25587WAT     H177003   8.084   5.734   5.372
25587WAT     H277004   7.923   5.711   5.378
25588WAT      O77005   0.981   4.178   5.778
25588WAT     H177006   1.022   4.119   5.708
25588WAT     H277007   0.907   4.128   5.824
25589WAT      O77008   3.274   1.832   1.567
25589WAT     H177009   3.190   1.886   1.564
25589WAT     H277010   3.276   1.768   1.491
25590WAT      O77011   8.792   7.306   9.835
25590WAT     H177012   8.859   7.249   9.789
25590WAT     H277013   8.834   7.352   9.913
25591WAT      O77014   2.537   4.095   0.718
25591WAT     H177015   2.537   3.996   0.736
25591WAT     H277016   2.628   4.122   0.685
25592WAT      O77017   1.481   1.218   4.210
25592WAT     H177018   1.513   1.238   4.303
25592WAT     H277019   1.395   1.265   4.194
25593WAT      O77020   6.891   0.167   4.418
25593WAT     H177021   6.980   0.142   4.381
25593WAT     H277022   6.894   0.262   4.450
25594WAT      O77023   9.811   6.521   3.911
25594WAT     H177024   9.849   6.484   3.825
25594WAT     H277025   9.883   6.569   3.960
25595WAT      O77026   4.321   9.043   5.454
25595WAT     H177027   4.309   9.116   5.386
25595WAT     H277028   4.235   8.993   5.465
25596WAT      O77029   1.050   5.513   1.984
25596WAT     H177030   1.096   5.586   2.035
25596WAT     H277031   0.964   5.548   1.947
25597WAT      O77032   3.254   5.459   0.148
25597WAT     H177033   3.284   5.537   0.093
25597WAT     H277034   3.310   5.454   0.231
25598WAT      O77035   9.395   4.794   6.548
25598WAT     H177036   9.392   4.894   6.554
25598WAT     H277037   9.455   4.758   6.619
25599WAT      O77038   7.983   3.275   5.470
25599WAT     H177039   7.970   3.304   5.565
25599WAT     H277040   7.917   3.203   5.449
25600WAT      O77041   5.813   8.984   9.880
25600WAT     H177042   5.898   8.985   9.932
25600WAT     H277043   5.832   9.006   9.784
25601WAT      O77044   7.330   2.202   5.663
25601WAT     H177045   7.276   2.242   5.737
25601WAT     H277046   7.335   2.103   5.675
25602WAT      O77047   8.751   3.019   2.290
25602WAT     H177048   8.792   3.069   2.214
25602WAT     H277049   8.670   3.067   2.322
25603WAT      O77050   5.337   5.298   7.287
25603WAT     H177051   5.386   5.312   7.373
25603WAT     H277052   5.369   5.363   7.218
25604WAT      O77053   7.574   8.400   2.611
25604WAT     H177054   7.612   8.362   2.527
25604WAT     H277055   7.511   8.475   2.589
25605WAT      O77056   0.330   5.870   1.049
25605WAT     H177057   0.302   5.800   0.982
25605WAT     H277058   0.266   5.869   1.126
25606WAT      O77059   9.055   7.583   9.483
25606WAT     H177060   9.096   7.616   9.398
25606WAT     H277061   8.960   7.612   9.488
25607WAT      O77062   0.615   9.119   5.799
25607WAT     H177063   0.528   9.073   5.817
25607WAT     H277064   0.630   9.123   5.701
25608WAT      O77065   5.341   5.955   7.863
25608WAT     H177066   5.389   6.012   7.796
25608WAT     H277067   5.407   5.908   7.920
25609WAT      O77068   7.334   5.796   6.311
25609WAT     H177069   7.279   5.808   6.394
25609WAT     H277070   7.363   5.885   6.276
25610WAT      O77071   6.796   1.604   4.412
25610WAT     H177072   6.716   1.553   4.442
25610WAT     H277073   6.840   1.557   4.336
25611WAT      O77074   5.004   6.814   6.141
25611WAT     H177075   4.986   6.773   6.052
25611WAT     H277076   4.939   6.779   6.208
25612WAT      O77077   9.019   3.908   9.379
25612WAT     H177078   8.999   3.918   9.476
25612WAT     H277079   9.046   3.996   9.340
25613WAT      O77080   6.183   4.980   8.121
25613WAT     H177081   6.263   4.939   8.164
25613WAT     H277082   6.104   4.921   8.136
25614WAT      O77083   1.953   4.764   5.321
25614WAT     H177084   2.023   4.822   5.280
25614WAT     H277085   1.889   4.820   5.374
25615WAT      O77086   4.697   3.984   3.113
25615WAT     H177087   4.767   4.000   3.043
25615WAT     H277088   4.607   4.010   3.077
25616WAT      O77089   2.501   2.153   7.562
25616WAT     H177090   2.446   2.232   7.534
25616WAT     H277091   2.598   2.174   7.554
25617WAT      O77092   9.488   6.103   6.277
25617WAT     H177093   9.471   6.141   6.186
25617WAT     H277094   9.404   6.060   6.311
25618WAT      O77095   3.834   0.385   4.242
25618WAT     H177096   3.763   0.371   4.173
25618WAT     H277097   3.803   0.453   4.308
25619WAT      O77098   6.487   9.013   5.073
25619WAT     H177099   6.452   8.938   5.130
25619WAT     H277100   6.585   9.000   5.060
25620WAT      O77101   0.653   7.474   4.149
25620WAT     H177102   0.679   7.493   4.244
25620WAT     H277103   0.563   7.513   4.131
25621WAT      O77104   5.284   9.350   7.475
25621WAT     H177105   5.253   9.445   7.486
25621WAT     H277106   5.382   9.349   7.458
25622WAT      O77107   2.762   5.488   1.319
25622WAT     H177108   2.825   5.433   1.373
25622WAT     H277109   2.698   5.428   1.270
25623WAT      O77110   2.784   0.332   9.445
25623WAT     H177111   2.700   0.360   9.400
25623WAT     H277112   2.816   0.246   9.405
25624WAT      O77113   9.353   3.567   3.757
25624WAT     H177114   9.354   3.511   3.840
25624WAT     H277115   9.259   3.580   3.726
25625WAT      O77116   2.001   0.218   3.169
25625WAT     H177117   2.071   0.275   3.212
25625WAT     H277118   1.921   0.213   3.229
25626WAT      O77119   8.413   2.503   3.166
25626WAT     H177120   8.455   2.460   3.087
25626WAT     H277121   8.317   2.523   3.145
25627WAT      O77122   2.224   3.772   3.694
25627WAT     H177123   2.168   3.854   3.702
25627WAT     H277124   2.224   3.739   3.600
25628WAT      O77125   2.292   0.116   4.880
25628WAT     H177126   2.252   0.207   4.885
25628WAT     H277127   2.275   0.068   4.966
25629WAT      O77128   2.417   3.449   0.334
25629WAT     H177129   2.434   3.356   0.304
25629WAT     H277130   2.461   3.464   0.423
25630WAT      O77131   9.651   6.848   3.809
25630WAT     H177132   9.641   6.816   3.715
25630WAT     H277133   9.564   6.886   3.841
25631WAT      O77134   9.472   6.819   8.500
25631WAT     H177135   9.448   6.902   8.551
25631WAT     H277136   9.458   6.836   8.402
25632WAT      O77137   2.295   2.457   3.778
25632WAT     H177138   2.263   2.379   3.832
25632WAT     H277139   2.225   2.483   3.712
25633WAT      O77140   9.370   6.066   4.570
25633WAT     H177141   9.382   5.987   4.630
25633WAT     H277142   9.301   6.045   4.500
25634WAT      O77143   9.003   9.772   1.693
25634WAT     H177144   9.100   9.748   1.699
25634WAT     H277145   8.971   9.802   1.783
25635WAT      O77146   6.976   6.538   0.071
25635WAT     H177147   6.896   6.564   0.125
25635WAT     H277148   6.960   6.562  -0.025
25636WAT      O77149   7.737   6.881   6.685
25636WAT     H177150   7.639   6.871   6.701
25636WAT     H277151   7.770   6.964   6.730
25637WAT      O77152   6.325   4.966   6.981
25637WAT     H177153   6.422   4.954   6.960
25637WAT     H277154   6.274   4.980   6.896
25638WAT      O77155   1.418   9.146   9.508
25638WAT     H177156   1.468   9.231   9.492
25638WAT     H277157   1.402   9.101   9.420
25639WAT      O77158   4.208   8.004   8.881
25639WAT     H177159   4.308   8.008   8.892
25639WAT     H277160   4.186   7.985   8.785
25640WAT      O77161   6.630   2.345   1.802
25640WAT     H177162   6.539   2.335   1.841
25640WAT     H277163   6.670   2.432   1.832
25641WAT      O77164   3.043   8.470   6.995
25641WAT     H177165   3.113   8.400   7.013
25641WAT     H277166   3.061   8.512   6.906
25642WAT      O77167   5.718   6.775   8.131
25642WAT     H177168   5.812   6.796   8.157
25642WAT     H277169   5.667   6.745   8.211
25643WAT      O77170   2.301   7.978   5.170
25643WAT     H177171   2.306   8.077   5.185
25643WAT     H277172   2.378   7.933   5.214
25644WAT      O77173   0.952   9.111   8.741
25644WAT     H177174   1.031   9.151   8.789
25644WAT     H277175   0.891   9.184   8.710
25645WAT      O77176   3.192   1.804   5.710
25645WAT     H177177   3.211   1.901   5.695
25645WAT     H277178   3.095   1.791   5.726
25646WAT      O77179   0.740   1.575   4.965
25646WAT     H177180   0.674   1.612   5.031
25646WAT     H277181   0.728   1.476   4.959
25647WAT      O77182   6.659   6.740   3.648
25647WAT     H177183   6.725   6.714   3.577
25647WAT     H277184   6.567   6.744   3.609
25648WAT      O77185   0.240   8.872   2.682
25648WAT     H177186   0.202   8.948   2.629
25648WAT     H277187   0.171   8.839   2.747
25649WAT      O77188   5.034   2.667   2.997
25649WAT     H177189   5.129   2.654   2.968
25649WAT     H277190   5.027   2.750   3.052
25650WAT      O77191   1.911   5.549   1.342
25650WAT     H177192   1.855   5.478   1.384
25650WAT     H277193   1.954   5.513   1.259
25651WAT      O77194   6.646   1.471   9.770
25651WAT     H177195   6.577   1.453   9.700
25651WAT     H277196   6.601   1.503   9.853
25652WAT      O77197   5.609   6.597   7.439
25652WAT     H177198   5.567   6.509   7.460
25652WAT     H277199   5.577   6.666   7.504
25653WAT      O77200   4.895   2.818   9.766
25653WAT     H177201   4.924   2.902   9.721
25653WAT     H277202   4.968   2.749   9.759
25654WAT      O77203   4.958   1.499   1.783
25654WAT     H177204   5.056   1.477   1.779
25654WAT     H277205   4.936   1.563   1.709
25655WAT      O77206   9.552   4.192   6.077
25655WAT     H177207   9.591   4.284   6.067
25655WAT     H277208   9.456   4.199   6.102
25656WAT      O77209   9.079   5.071   6.761
25656WAT     H177210   9.025   5.154   6.746
25656WAT     H277211   9.051   5.001   6.695
25657WAT      O77212   7.376   0.737   7.104
25657WAT     H177213   7.473   0.750   7.123
25657WAT     H277214   7.349   0.644   7.129
25658WAT      O77215   9.157   3.174   2.493
25658WAT     H177216   9.100   3.093   2.479
25658WAT     H277217   9.183   3.179   2.590
25659WAT      O77218   7.856   6.280   8.062
25659WAT     H177219   7.878   6.245   8.153
25659WAT     H277220   7.840   6.379   8.067
25660WAT      O77221   5.887   4.382   2.603
25660WAT     H177222   5.894   4.387   2.703
25660WAT     H277223   5.954   4.443   2.561
25661WAT      O77224   5.602   9.230   3.153
25661WAT     H177225   5.572   9.211   3.060
25661WAT     H277226   5.667   9.305   3.153
25662WAT      O77227   2.569   6.543   1.638
25662WAT     H177228   2.646   6.561   1.577
25662WAT     H277229   2.533   6.451   1.621
25663WAT      O77230   4.065   6.151   3.470
25663WAT     H177231   4.155   6.125   3.504
25663WAT     H277232   4.055   6.251   3.473
25664WAT      O77233   4.004   8.318   9.672
25664WAT     H177234   3.972   8.392   9.612
25664WAT     H277235   3.960   8.233   9.644
25665WAT      O77236   1.672   4.553   1.705
25665WAT     H177237   1.588   4.601   1.677
25665WAT     H277238   1.718   4.517   1.624
25666WAT      O77239   7.025   4.803   1.525
25666WAT     H177240   7.105   4.744   1.537
25666WAT     H277241   6.982   4.784   1.437
25667WAT      O77242   6.077   3.194   9.114
25667WAT     H177243   6.039   3.102   9.106
25667WAT     H277244   6.036   3.253   9.045
25668WAT      O77245   2.628   4.889   7.460
25668WAT     H177246   2.697   4.935   7.517
25668WAT     H277247   2.550   4.864   7.517
25669WAT      O77248   8.681   5.019   4.558
25669WAT     H177249   8.582   5.032   4.562
25669WAT     H277250   8.724   5.065   4.636
25670WAT      O77251   3.141   9.763   3.427
25670WAT     H177252   3.133   9.846   3.481
25670WAT     H277253   3.050   9.723   3.413
25671WAT      O77254   1.583   7.870   6.981
25671WAT     H177255   1.541   7.810   7.049
25671WAT     H277256   1.668   7.829   6.948
25672WAT      O77257   6.749   3.608   5.533
25672WAT     H177258   6.699   3.625   5.617
25672WAT     H277259   6.847   3.621   5.549
25673WAT      O77260   1.825   5.268   9.453
25673WAT     H177261   1.758   5.340   9.472
25673WAT     H277262   1.810   5.191   9.516
25674WAT      O77263   9.212   5.128   9.556
25674WAT     H177264   9.206   5.158   9.461
25674WAT     H277265   9.308   5.112   9.580
25675WAT      O77266   2.579   7.854   6.150
25675WAT     H177267   2.646   7.874   6.222
25675WAT     H277268   2.501   7.806   6.190
25676WAT      O77269   2.810   1.917   0.662
25676WAT     H177270   2.734   1.867   0.705
25676WAT     H277271   2.774   1.994   0.610
25677WAT      O77272   9.154   3.160   2.786
25677WAT     H177273   9.159   3.254   2.819
25677WAT     H277274   9.058   3.137   2.766
25678WAT      O77275   5.382   0.806   6.190
25678WAT     H177276   5.446   0.763   6.253
25678WAT     H277277   5.310   0.741   6.166
25679WAT      O77278   4.339   7.160   1.151
25679WAT     H177279   4.381   7.100   1.220
25679WAT     H277280   4.367   7.254   1.168
25680WAT      O77281   6.102   7.065   5.994
25680WAT     H177282   6.012   7.104   5.973
25680WAT     H277283   6.090   6.975   6.036
25681WAT      O77284   0.566   0.668   0.371
25681WAT     H177285   0.574   0.761   0.334
25681WAT     H277286   0.515   0.611   0.308
25682WAT      O77287   5.599   9.657   6.611
25682WAT     H177288   5.640   9.648   6.702
25682WAT     H277289   5.519   9.598   6.605
25683WAT      O77290   7.512   2.383   8.003
25683WAT     H177291   7.576   2.314   7.970
25683WAT     H277292   7.558   2.440   8.071
25684WAT      O77293   8.628   9.735   1.952
25684WAT     H177294   8.603   9.768   1.861
25684WAT     H277295   8.710   9.679   1.946
25685WAT      O77296   1.310   0.079   3.331
25685WAT     H177297   1.259   0.098   3.247
25685WAT     H277298   1.247   0.073   3.408
25686WAT      O77299   5.667   1.678   2.185
25686WAT     H177300   5.729   1.757   2.185
25686WAT     H277301   5.650   1.650   2.090
25687WAT      O77302   3.496   7.722   4.806
25687WAT     H177303   3.435   7.652   4.769
25687WAT     H277304   3.575   7.732   4.746
25688WAT      O77305   5.529   6.717   0.206
25688WAT     H177306   5.478   6.737   0.122
25688WAT     H277307   5.627   6.712   0.185
25689WAT      O77308   4.680   1.598   1.655
25689WAT     H177309   4.644   1.635   1.740
25689WAT     H277310   4.665   1.500   1.652
25690WAT      O77311   6.344   5.269   1.786
25690WAT     H177312   6.417   5.254   1.852
25690WAT     H277313   6.286   5.345   1.816
25691WAT      O77314   7.325   3.366   8.859
25691WAT     H177315   7.363   3.307   8.788
25691WAT     H277316   7.391   3.437   8.882
25692WAT      O77317   4.163   8.745   2.626
25692WAT     H177318   4.261   8.750   2.608
25692WAT     H277319   4.113   8.755   2.541
25693WAT      O77320   8.322   8.306   0.808
25693WAT     H177321   8.311   8.371   0.733
25693WAT     H277322   8.313   8.354   0.895
25694WAT      O77323   2.021   3.070   3.669
25694WAT     H177324   2.046   3.085   3.573
25694WAT     H277325   2.102   3.042   3.720
25695WAT      O77326   5.291   5.378   4.103
25695WAT     H177327   5.264   5.292   4.144
25695WAT     H277328   5.213   5.420   4.058
25696WAT      O77329   4.186   1.313   8.399
25696WAT     H177330   4.103   1.336   8.347
25696WAT     H277331   4.222   1.226   8.366
25697WAT      O77332   1.665   0.915   0.630
25697WAT     H177333   1.613   0.984   0.581
25697WAT     H277334   1.610   0.832   0.641
25698WAT      O77335   2.830   3.205   1.487
25698WAT     H177336   2.906   3.169   1.542
25698WAT     H277337   2.863   3.230   1.396
25699WAT      O77338   1.794   1.191   2.356
25699WAT     H177339   1.776   1.112   2.414
25699WAT     H277340   1.713   1.249   2.353
25700WAT      O77341   9.632   7.400   1.286
25700WAT     H177342   9.689   7.440   1.214
25700WAT     H277343   9.543   7.447   1.288
25701WAT      O77344   3.804   4.463   3.343
25701WAT     H177345   3.760   4.420   3.265
25701WAT     H277346   3.786   4.409   3.426
25702WAT      O77347   8.296   3.698   7.072
25702WAT     H177348   8.289   3.768   7.143
25702WAT     H277349   8.284   3.607   7.112
25703WAT      O77350   7.328   7.496   8.639
25703WAT     H177351   7.367   7.421   8.693
25703WAT     H277352   7.229   7.488   8.636
25704WAT      O77353   1.274   1.728   2.213
25704WAT     H177354   1.336   1.689   2.146
25704WAT     H277355   1.283   1.828   2.213
25705WAT      O77356   2.627   2.279   6.336
25705WAT     H177357   2.611   2.340   6.259
25705WAT     H277358   2.650   2.332   6.418
25706WAT      O77359   3.131   5.767   1.639
25706WAT     H177360   3.035   5.738   1.638
25706WAT     H277361   3.157   5.802   1.549
25707WAT      O77362   6.249   5.103   2.302
25707WAT     H177363   6.174   5.139   2.359
25707WAT     H277364   6.334   5.105   2.354
25708WAT      O77365   0.605   8.034   1.023
25708WAT     H177366   0.655   7.984   1.094
25708WAT     H277367   0.570   8.120   1.060
25709WAT      O77368   1.620   2.348   6.918
25709WAT     H177369   1.602   2.347   6.820
25709WAT     H277370   1.692   2.414   6.938
25710WAT      O77371   7.861   1.555   8.463
25710WAT     H177372   7.869   1.644   8.509
25710WAT     H277373   7.766   1.542   8.433
25711WAT      O77374   6.592   6.429   4.406
25711WAT     H177375   6.658   6.492   4.449
25711WAT     H277376   6.639   6.375   4.337
25712WAT      O77377   8.030   3.950   8.953
25712WAT     H177378   8.073   3.986   9.035
25712WAT     H277379   8.099   3.937   8.882
25713WAT      O77380   8.641   4.611   2.470
25713WAT     H177381   8.556   4.565   2.492
25713WAT     H277382   8.718   4.551   2.490
25714WAT      O77383   4.537   9.735   7.994
25714WAT     H177384   4.606   9.804   8.017
25714WAT     H277385   4.564   9.689   7.909
25715WAT      O77386   4.239   3.915   9.021
25715WAT     H177387   4.215   3.898   9.117
25715WAT     H277388   4.215   4.009   8.997
25716WAT      O77389   0.656   1.220   5.672
25716WAT     H177390   0.573   1.268   5.642
25716WAT     H277391   0.735   1.258   5.623
25717WAT      O77392   7.329   7.597   5.167
25717WAT     H177393   7.280   7.671   5.121
25717WAT     H277394   7.265   7.523   5.186
25718WAT      O77395   2.553   0.074   6.746
25718WAT     H177396   2.644   0.109   6.721
25718WAT     H277397   2.545  -0.020   6.715
25719WAT      O77398   8.033   2.792   2.718
25719WAT     H177399   7.967   2.848   2.668
25719WAT     H277400   8.066   2.718   2.658
25720WAT      O77401   5.532   3.026   0.519
25720WAT     H177402   5.557   2.939   0.477
25720WAT     H277403   5.451   3.014   0.576
25721WAT      O77404   2.366   6.562   3.702
25721WAT     H177405   2.323   6.585   3.615
25721WAT     H277406   2.340   6.469   3.728
25722WAT      O77407   9.570   9.732   1.799
25722WAT     H177408   9.500   9.775   1.856
25722WAT     H277409   9.658   9.777   1.814
25723WAT      O77410   0.166   4.530   0.043
25723WAT     H177411   0.138   4.444   0.085
25723WAT     H277412   0.263   4.526   0.019
25724WAT      O77413   2.125   9.719   7.219
25724WAT     H177414   2.201   9.747   7.278
25724WAT     H277415   2.056   9.792   7.217
25725WAT      O77416   5.586   1.679   2.446
25725WAT     H177417   5.661   1.631   2.491
25725WAT     H277418   5.610   1.699   2.351
25726WAT      O77419   1.435   1.428   5.777
25726WAT     H177420   1.380   1.348   5.801
25726WAT     H277421   1.503   1.444   5.849
25727WAT      O77422   9.605   2.272   9.469
25727WAT     H177423   9.521   2.218   9.466
25727WAT     H277424   9.681   2.215   9.499
25728WAT      O77425   4.874   6.152   2.079
25728WAT     H177426   4.791   6.187   2.036
25728WAT     H277427   4.894   6.207   2.160
25729WAT      O77428   2.983   7.785   3.328
25729WAT     H177429   2.953   7.697   3.292
25729WAT     H277430   3.032   7.835   3.257
25730WAT      O77431   0.692   2.550   0.771
25730WAT     H177432   0.748   2.547   0.854
25730WAT     H277433   0.602   2.511   0.790
25731WAT      O77434   1.455   6.878   6.987
25731WAT     H177435   1.467   6.930   7.072
25731WAT     H277436   1.459   6.780   7.008
25732WAT      O77437   5.638   3.308   4.770
25732WAT     H177438   5.704   3.361   4.717
25732WAT     H277439   5.632   3.345   4.862
25733WAT      O77440   5.428   0.968   1.760
25733WAT     H177441   5.512   1.006   1.799
25733WAT     H277442   5.353   0.980   1.825
25734WAT      O77443   5.576   5.986   3.198
25734WAT     H177444   5.501   6.011   3.137
25734WAT     H277445   5.646   6.058   3.196
25735WAT      O77446   6.734   9.399   8.899
25735WAT     H177447   6.790   9.447   8.832
25735WAT     H277448   6.780   9.315   8.927
25736WAT      O77449   4.293   8.730   1.226
25736WAT     H177450   4.269   8.642   1.267
25736WAT     H277451   4.354   8.715   1.148
25737WAT      O77452   7.981   3.271   4.419
25737WAT     H177453   7.959   3.175   4.437
25737WAT     H277454   8.065   3.276   4.366
25738WAT      O77455   8.346   4.781   0.347
25738WAT     H177456   8.416   4.799   0.278
25738WAT     H277457   8.349   4.685   0.373
25739WAT      O77458   1.728   2.095   7.303
25739WAT     H177459   1.679   2.123   7.385
25739WAT     H277460   1.764   2.176   7.257
25740WAT      O77461   0.678   8.378   6.392
25740WAT     H177462   0.671   8.394   6.491
25740WAT     H277463   0.709   8.284   6.376
25741WAT      O77464   0.025   6.907   2.862
25741WAT     H177465   0.051   6.976   2.795
25741WAT     H277466   0.099   6.841   2.872
25742WAT      O77467   1.752   7.345   7.555
25742WAT     H177468   1.698   7.407   7.612
25742WAT     H277469   1.730   7.250   7.578
25743WAT      O77470   1.513   8.636   4.519
25743WAT     H177471   1.488   8.539   4.527
25743WAT     H277472   1.483   8.671   4.431
25744WAT      O77473   0.744   1.589   8.814
25744WAT     H177474   0.769   1.499   8.849
25744WAT     H277475   0.664   1.624   8.863
25745WAT      O77476   2.136   2.476   2.431
25745WAT     H177477   2.138   2.555   2.370
25745WAT     H277478   2.060   2.486   2.495
25746WAT      O77479   2.651   9.427   8.900
25746WAT     H177480   2.694   9.511   8.866
25746WAT     H277481   2.701   9.394   8.980
25747WAT      O77482   6.213   4.001   1.737
25747WAT     H177483   6.293   4.026   1.790
25747WAT     H277484   6.191   4.073   1.672
25748WAT      O77485   9.676   4.085   9.062
25748WAT     H177486   9.668   4.080   8.963
25748WAT     H277487   9.660   4.179   9.092
25749WAT      O77488   5.444   4.737   1.855
25749WAT     H177489   5.360   4.787   1.879
25749WAT     H277490   5.433   4.696   1.764
25750WAT      O77491   6.968   0.145   8.382
25750WAT     H177492   6.912   0.111   8.458
25750WAT     H277493   6.910   0.162   8.303
25751WAT      O77494   8.837   7.731   4.577
25751WAT     H177495   8.912   7.712   4.640
25751WAT     H277496   8.792   7.816   4.602
25752WAT      O77497   9.319   6.301   3.545
25752WAT     H177498   9.400   6.247   3.570
25752WAT     H277499   9.348   6.392   3.515
25753WAT      O77500   2.266   1.414   5.904
25753WAT     H177501   2.297   1.381   5.814
25753WAT     H277502   2.311   1.501   5.924
25754WAT      O77503   4.075   5.354   9.323
25754WAT     H177504   4.165   5.390   9.348
25754WAT     H277505   4.013   5.362   9.402
25755WAT      O77506   6.367   9.122   2.406
25755WAT     H177507   6.387   9.149   2.500
25755WAT     H277508   6.333   9.202   2.355
25756WAT      O77509   2.508   8.981   1.402
25756WAT     H177510   2.555   8.923   1.335
25756WAT     H277511   2.492   8.930   1.486
25757WAT      O77512   0.056   6.157   4.449
25757WAT     H177513   0.097   6.128   4.362
25757WAT     H277514  -0.014   6.227   4.431
25758WAT      O77515   8.162   9.596   1.594
25758WAT     H177516   8.201   9.635   1.511
25758WAT     H277517   8.103   9.519   1.571
25759WAT      O77518   3.882   1.080   1.774
25759WAT     H177519   3.816   1.099   1.847
25759WAT     H277520   3.846   1.115   1.687
25760WAT      O77521   5.749   3.115   3.588
25760WAT     H177522   5.819   3.072   3.646
25760WAT     H277523   5.659   3.077   3.611
25761WAT      O77524   3.947   6.580   2.201
25761WAT     H177525   3.928   6.583   2.299
25761WAT     H277526   4.003   6.658   2.175
25762WAT      O77527   9.402   0.592   5.102
25762WAT     H177528   9.431   0.641   5.020
25762WAT     H277529   9.344   0.651   5.158
25763WAT      O77530   5.626   4.920   1.744
25763WAT     H177531   5.563   4.849   1.778
25763WAT     H277532   5.681   4.882   1.670
25764WAT      O77533   7.060   1.665   9.033
25764WAT     H177534   7.158   1.646   9.028
25764WAT     H277535   7.011   1.601   8.973
25765WAT      O77536   8.588   0.743   8.300
25765WAT     H177537   8.650   0.813   8.334
25765WAT     H277538   8.632   0.654   8.305
25766WAT      O77539   0.816   4.841   1.242
25766WAT     H177540   0.876   4.909   1.199
25766WAT     H277541   0.860   4.805   1.324
25767WAT      O77542   6.957   1.522   0.100
25767WAT     H177543   6.872   1.481   0.133
25767WAT     H277544   6.956   1.620   0.120
25768WAT      O77545   9.746   8.978   5.165
25768WAT     H177546   9.649   8.987   5.188
25768WAT     H277547   9.797   8.950   5.246
25769WAT      O77548   2.150   3.975   8.731
25769WAT     H177549   2.152   3.875   8.741
25769WAT     H277550   2.203   4.017   8.805
25770WAT      O77551   1.814   9.055   1.001
25770WAT     H177552   1.764   9.077   0.917
25770WAT     H277553   1.875   8.977   0.983
25771WAT      O77554   7.742   4.167   5.710
25771WAT     H177555   7.746   4.176   5.611
25771WAT     H277556   7.755   4.257   5.752
25772WAT      O77557   4.236   6.873   1.234
25772WAT     H177558   4.323   6.909   1.268
25772WAT     H277559   4.246   6.848   1.138
25773WAT      O77560   4.468   3.626   0.489
25773WAT     H177561   4.440   3.596   0.579
25773WAT     H277562   4.484   3.725   0.490
25774WAT      O77563   0.673   5.823   4.648
25774WAT     H177564   0.581   5.831   4.686
25774WAT     H277565   0.709   5.914   4.629
25775WAT      O77566   4.350   1.478   8.177
25775WAT     H177567   4.268   1.519   8.137
25775WAT     H277568   4.359   1.509   8.272
25776WAT      O77569   1.974   1.819   9.151
25776WAT     H177570   2.062   1.823   9.199
25776WAT     H277571   1.968   1.733   9.099
25777WAT      O77572   8.898   2.013   5.912
25777WAT     H177573   8.956   2.037   5.834
25777WAT     H277574   8.834   2.088   5.930
25778WAT      O77575   1.640   5.007   0.169
25778WAT     H177576   1.634   4.987   0.071
25778WAT     H277577   1.549   5.024   0.206
25779WAT      O77578   0.536   2.085   4.014
25779WAT     H177579   0.442   2.117   4.025
25779WAT     H277580   0.544   2.030   3.930
25780WAT      O77581   0.831   0.648   0.973
25780WAT     H177582   0.892   0.623   0.898
25780WAT     H277583   0.801   0.743   0.963
25781WAT      O77584   7.059   3.345   2.821
25781WAT     H177585   6.998   3.408   2.772
25781WAT     H277586   7.125   3.398   2.875
25782WAT      O77587   0.511   4.330   6.996
25782WAT     H177588   0.519   4.350   7.094
25782WAT     H277589   0.600   4.343   6.952
25783WAT      O77590   1.058   2.796   8.976
25783WAT     H177591   1.086   2.736   8.902
25783WAT     H277592   1.126   2.793   9.049
25784WAT      O77593   5.959   8.467   1.496
25784WAT     H177594   6.039   8.510   1.538
25784WAT     H277595   5.974   8.368   1.490
25785WAT      O77596   9.030   9.097   5.403
25785WAT     H177597   8.931   9.098   5.392
25785WAT     H277598   9.057   9.016   5.455
25786WAT      O77599   3.598   8.842   6.924
25786WAT     H177600   3.679   8.791   6.953
25786WAT     H277601   3.583   8.919   6.986
25787WAT      O77602   8.642   5.677   0.242
25787WAT     H177603   8.642   5.579   0.264
25787WAT     H277604   8.632   5.730   0.326
25788WAT      O77605   0.228   2.424   5.686
25788WAT     H177606   0.245   2.362   5.762
25788WAT     H277607   0.284   2.506   5.697
25789WAT      O77608   6.803   6.059   1.701
25789WAT     H177609   6.820   5.965   1.732
25789WAT     H277610   6.853   6.123   1.758
25790WAT      O77611   2.533   3.941   3.998
25790WAT     H177612   2.531   4.034   4.036
25790WAT     H277613   2.529   3.946   3.898
25791WAT      O77614   7.737   4.641   7.704
25791WAT     H177615   7.678   4.560   7.700
25791WAT     H277616   7.684   4.721   7.676
25792WAT      O77617   5.514   0.264   9.572
25792WAT     H177618   5.586   0.204   9.606
25792WAT     H277619   5.476   0.226   9.488
25793WAT      O77620   1.454   5.672   7.490
25793WAT     H177621   1.370   5.673   7.544
25793WAT     H277622   1.449   5.742   7.419
25794WAT      O77623   6.512   7.929   0.295
25794WAT     H177624   6.505   7.911   0.197
25794WAT     H277625   6.529   8.027   0.310
25795WAT      O77626   1.839   1.386   9.476
25795WAT     H177627   1.739   1.392   9.473
25795WAT     H277628   1.879   1.468   9.435
25796WAT      O77629   5.659   1.340   7.559
25796WAT     H177630   5.572   1.290   7.560
25796WAT     H277631   5.649   1.423   7.505
25797WAT      O77632   0.229   3.140   7.325
25797WAT     H177633   0.145   3.133   7.378
25797WAT     H277634   0.242   3.058   7.270
25798WAT      O77635   4.755   2.859   8.111
25798WAT     H177636   4.807   2.811   8.040
25798WAT     H277637   4.811   2.933   8.149
25799WAT      O77638   2.708   4.977   3.572
25799WAT     H177639   2.729   5.062   3.620
25799WAT     H277640   2.615   4.980   3.535
25800WAT      O77641   6.018   9.032   3.568
25800WAT     H177642   6.056   9.071   3.652
25800WAT     H277643   5.923   9.004   3.585
25801WAT      O77644   4.137   8.927   4.677
25801WAT     H177645   4.172   9.000   4.735
25801WAT     H277646   4.207   8.899   4.612
25802WAT      O77647   1.761   7.355   6.248
25802WAT     H177648   1.749   7.268   6.295
25802WAT     H277649   1.827   7.345   6.174
25803WAT      O77650   3.968   1.676   5.462
25803WAT     H177651   3.942   1.674   5.559
25803WAT     H277652   4.068   1.667   5.455
25804WAT      O77653   0.987   6.878   3.424
25804WAT     H177654   1.010   6.904   3.330
25804WAT     H277655   1.067   6.893   3.482
25805WAT      O77656   8.734   9.733   6.001
25805WAT     H177657   8.663   9.690   6.055
25805WAT     H277658   8.726   9.833   6.009
25806WAT      O77659   3.774   9.343   0.290
25806WAT     H177660   3.696   9.403   0.311
25806WAT     H277661   3.859   9.394   0.302
25807WAT      O77662   5.259   0.095   1.869
25807WAT     H177663   5.258  -0.002   1.844
25807WAT     H277664   5.350   0.120   1.901
25808WAT      O77665   9.230   4.738   2.908
25808WAT     H177666   9.145   4.697   2.875
25808WAT     H277667   9.209   4.819   2.962
25809WAT      O77668   7.304   8.755   9.456
25809WAT     H177669   7.264   8.664   9.463
25809WAT     H277670   7.243   8.814   9.403
25810WAT      O77671   2.882   1.044   8.653
25810WAT     H177672   2.828   1.111   8.704
25810WAT     H277673   2.829   0.960   8.641
25811WAT      O77674   8.348   5.239   3.852
25811WAT     H177675   8.267   5.188   3.882
25811WAT     H277676   8.385   5.196   3.770
25812WAT      O77677   7.497   4.891   2.013
25812WAT     H177678   7.467   4.911   2.106
25812WAT     H277679   7.597   4.882   2.011
25813WAT      O77680   7.110   8.583   5.098
25813WAT     H177681   7.180   8.620   5.159
25813WAT     H277682   7.026   8.567   5.150
25814WAT      O77683   0.033   9.702   2.036
25814WAT     H177684   0.066   9.636   1.970
25814WAT     H277685  -0.027   9.657   2.102
25815WAT      O77686   5.814   1.108   0.515
25815WAT     H177687   5.854   1.045   0.581
25815WAT     H277688   5.814   1.200   0.552
25816WAT      O77689   4.927   9.030   7.466
25816WAT     H177690   4.995   9.086   7.418
25816WAT     H277691   4.844   9.083   7.480
25817WAT      O77692   8.258   8.131   0.087
25817WAT     H177693   8.312   8.126   0.003
25817WAT     H277694   8.262   8.224   0.124
25818WAT      O77695   9.807   3.690   5.579
25818WAT     H177696   9.742   3.617   5.600
25818WAT     H277697   9.899   3.662   5.607
25819WAT      O77698   8.932   6.226   9.747
25819WAT     H177699   8.864   6.202   9.678
25819WAT     H277700   9.008   6.274   9.703
25820WAT      O77701   3.032   3.959   7.492
25820WAT     H177702   3.011   4.055   7.509
25820WAT     H277703   3.101   3.952   7.420
25821WAT      O77704   6.215   7.237   4.866
25821WAT     H177705   6.203   7.212   4.770
25821WAT     H277706   6.142   7.197   4.920
25822WAT      O77707   0.007   1.261   1.890
25822WAT     H177708   0.093   1.310   1.878
25822WAT     H277709  -0.058   1.318   1.940
25823WAT      O77710   3.115   5.404   8.869
25823WAT     H177711   3.148   5.329   8.813
25823WAT     H277712   3.084   5.479   8.809
25824WAT      O77713   1.222   0.293   5.494
25824WAT     H177714   1.164   0.372   5.475
25824WAT     H277715   1.315   0.324   5.513
25825WAT      O77716   8.914   5.658   0.118
25825WAT     H177717   8.942   5.598   0.043
25825WAT     H277718   8.815   5.651   0.131
25826WAT      O77719   4.397   5.466   0.069
25826WAT     H177720   4.310   5.485   0.024
25826WAT     H277721   4.392   5.494   0.165
25827WAT      O77722   2.457   0.758   1.971
25827WAT     H177723   2.506   0.687   1.920
25827WAT     H277724   2.367   0.772   1.930
25828WAT      O77725   2.229   8.514   6.452
25828WAT     H177726   2.327   8.531   6.466
25828WAT     H277727   2.183   8.601   6.431
25829WAT      O77728   0.033   5.134   1.576
25829WAT     H177729   0.107   5.091   1.524
25829WAT     H277730   0.009   5.221   1.532
25830WAT      O77731   7.401   6.817   8.651
25830WAT     H177732   7.392   6.846   8.556
25830WAT     H277733   7.311   6.787   8.685
25831WAT      O77734   9.461   0.587   8.934
25831WAT     H177735   9.428   0.522   9.003
25831WAT     H277736   9.552   0.620   8.960
25832WAT      O77737   3.862   7.407   0.272
25832WAT     H177738   3.836   7.311   0.270
25832WAT     H277739   3.783   7.464   0.247
25833WAT      O77740   8.733   3.833   7.130
25833WAT     H177741   8.712   3.749   7.080
25833WAT     H277742   8.726   3.815   7.228
25834WAT      O77743   0.371   2.855   1.708
25834WAT     H177744   0.333   2.842   1.616
25834WAT     H277745   0.451   2.915   1.703
25835WAT      O77746   8.298   2.109   4.355
25835WAT     H177747   8.396   2.104   4.370
25835WAT     H277748   8.279   2.149   4.266
25836WAT      O77749   7.198   8.303   5.920
25836WAT     H177750   7.169   8.311   5.825
25836WAT     H277751   7.219   8.394   5.956
25837WAT      O77752   7.110   1.233   8.661
25837WAT     H177753   7.188   1.292   8.680
25837WAT     H277754   7.139   1.157   8.603
25838WAT      O77755   2.873   0.892   1.338
25838WAT     H177756   2.969   0.918   1.348
25838WAT     H277757   2.867   0.798   1.305
25839WAT      O77758   9.213   4.259   4.780
25839WAT     H177759   9.245   4.189   4.843
25839WAT     H277760   9.181   4.339   4.831
25840WAT      O77761   8.145   0.867   5.612
25840WAT     H177762   8.181   0.960   5.615
25840WAT     H277763   8.153   0.830   5.520
25841WAT      O77764   9.345   7.920   5.118
25841WAT     H177765   9.434   7.884   5.089
25841WAT     H277766   9.344   7.928   5.217
25842WAT      O77767   9.603   5.260   6.966
25842WAT     H177768   9.517   5.280   6.918
25842WAT     H277769   9.583   5.222   7.056
25843WAT      O77770   2.734   3.675   8.606
25843WAT     H177771   2.647   3.720   8.626
25843WAT     H277772   2.788   3.733   8.545
25844WAT      O77773   4.826   5.667   3.904
25844WAT     H177774   4.787   5.732   3.838
25844WAT     H277775   4.862   5.587   3.856
25845WAT      O77776   5.225   7.757   6.029
25845WAT     H177777   5.268   7.691   5.968
25845WAT     H277778   5.146   7.799   5.984
25846WAT      O77779   2.231   6.240   4.002
25846WAT     H177780   2.150   6.297   4.013
25846WAT     H277781   2.262   6.209   4.092
25847WAT      O77782   2.500   2.424   4.383
25847WAT     H177783   2.502   2.391   4.477
25847WAT     H277784   2.593   2.422   4.345
25848WAT      O77785   0.054   3.207   3.445
25848WAT     H177786   0.084   3.252   3.529
25848WAT     H277787   0.058   3.272   3.369
25849WAT      O77788   6.284   8.258   1.746
25849WAT     H177789   6.373   8.302   1.758
25849WAT     H277790   6.278   8.217   1.655
25850WAT      O77791   2.371   2.897   0.929
25850WAT     H177792   2.354   2.897   1.028
25850WAT     H277793   2.377   2.992   0.897
25851WAT      O77794   1.287   5.896   1.764
25851WAT     H177795   1.302   5.994   1.779
25851WAT     H277796   1.191   5.874   1.780
25852WAT      O77797   9.444   3.200   9.612
25852WAT     H177798   9.392   3.230   9.532
25852WAT     H277799   9.386   3.204   9.693
25853WAT      O77800   0.517   8.403   5.805
25853WAT     H177801   0.444   8.468   5.824
25853WAT     H277802   0.490   8.344   5.729
25854WAT      O77803   9.222   1.328   0.731
25854WAT     H177804   9.132   1.317   0.687
25854WAT     H277805   9.290   1.273   0.682
25855WAT      O77806   2.664   9.479   2.593
25855WAT     H177807   2.672   9.379   2.587
25855WAT     H277808   2.712   9.521   2.517
25856WAT      O77809   5.508   3.723   9.214
25856WAT     H177810   5.492   3.790   9.141
25856WAT     H277811   5.486   3.632   9.180
25857WAT      O77812   5.713   7.417   1.968
25857WAT     H177813   5.780   7.355   2.007
25857WAT     H277814   5.621   7.380   1.984
25858WAT      O77815   4.506   2.164   0.771
25858WAT     H177816   4.499   2.106   0.851
25858WAT     H277817   4.436   2.236   0.776
25859WAT      O77818   1.605   7.921   7.465
25859WAT     H177819   1.526   7.884   7.416
25859WAT     H277820   1.577   7.948   7.557
25860WAT      O77821   3.943   0.091   8.870
25860WAT     H177822   4.016   0.025   8.854
25860WAT     H277823   3.863   0.066   8.815
25861WAT      O77824   8.505   2.945   2.751
25861WAT     H177825   8.520   2.847   2.738
25861WAT     H277826   8.533   2.994   2.668
25862WAT      O77827   9.280   8.885   0.296
25862WAT     H177828   9.333   8.862   0.215
25862WAT     H277829   9.269   8.803   0.352
25863WAT      O77830   7.935   0.115   5.175
25863WAT     H177831   7.975   0.072   5.093
25863WAT     H277832   7.870   0.051   5.217
25864WAT      O77833   3.005   1.949   5.231
25864WAT     H177834   2.958   1.995   5.156
25864WAT     H277835   2.964   1.859   5.246
25865WAT      O77836   2.112   6.302   5.633
25865WAT     H177837   2.125   6.302   5.534
25865WAT     H277838   2.181   6.244   5.676
25866WAT      O77839   2.808   2.618   5.462
25866WAT     H177840   2.851   2.530   5.479
25866WAT     H277841   2.825   2.647   5.368
25867WAT      O77842   3.080   0.681   2.783
25867WAT     H177843   3.089   0.778   2.760
25867WAT     H277844   3.057   0.671   2.880
25868WAT      O77845   2.869   5.728   6.582
25868WAT     H177846   2.780   5.698   6.549
25868WAT     H277847   2.927   5.751   6.504
25869WAT      O77848   5.466   1.366   7.340
25869WAT     H177849   5.430   1.302   7.408
25869WAT     H277850   5.440   1.336   7.249
25870WAT      O77851   3.238   0.034   1.136
25870WAT     H177852   3.213   0.083   1.220
25870WAT     H277853   3.155   0.010   1.086
25871WAT      O77854   7.048   9.754   5.201
25871WAT     H177855   7.023   9.662   5.230
25871WAT     H277856   6.978   9.789   5.138
25872WAT      O77857   1.148   5.968   0.458
25872WAT     H177858   1.215   6.016   0.401
25872WAT     H277859   1.057   6.009   0.445
25873WAT      O77860   1.197   8.977   1.434
25873WAT     H177861   1.207   8.989   1.533
25873WAT     H277862   1.119   8.917   1.415
25874WAT      O77863   7.493   8.819   2.113
25874WAT     H177864   7.424   8.776   2.170
25874WAT     H277865   7.575   8.837   2.167
25875WAT      O77866   1.456   0.520   7.159
25875WAT     H177867   1.497   0.529   7.068
25875WAT     H277868   1.407   0.433   7.165
25876WAT      O77869   5.143   6.953   7.650
25876WAT     H177870   5.188   6.882   7.704
25876WAT     H277871   5.213   7.008   7.603
25877WAT      O77872   6.994   3.523   5.562
25877WAT     H177873   6.967   3.442   5.613
25877WAT     H277874   7.089   3.513   5.531
25878WAT      O77875   9.324   4.336   3.887
25878WAT     H177876   9.324   4.435   3.896
25878WAT     H277877   9.254   4.297   3.947
25879WAT      O77878   1.775   3.514   6.468
25879WAT     H177879   1.794   3.426   6.424
25879WAT     H277880   1.705   3.502   6.539
25880WAT      O77881   4.836   8.155   3.452
25880WAT     H177882   4.931   8.184   3.460
25880WAT     H277883   4.833   8.061   3.418
25881WAT      O77884   5.619   1.586   8.721
25881WAT     H177885   5.666   1.606   8.636
25881WAT     H277886   5.643   1.653   8.790
25882WAT      O77887   2.023   0.637   8.013
25882WAT     H177888   1.991   0.724   8.051
25882WAT     H277889   1.946   0.591   7.969
25883WAT      O77890   2.092   2.754   8.769
25883WAT     H177891   2.041   2.694   8.831
25883WAT     H277892   2.140   2.824   8.822
25884WAT      O77893   9.465   8.124   7.280
25884WAT     H177894   9.531   8.095   7.349
25884WAT     H277895   9.505   8.196   7.224
25885WAT      O77896   7.793   2.365   2.278
25885WAT     H177897   7.879   2.338   2.236
25885WAT     H277898   7.720   2.304   2.246
25886WAT      O77899   2.496   5.283   3.405
25886WAT     H177900   2.465   5.377   3.422
25886WAT     H277901   2.563   5.284   3.330
25887WAT      O77902   6.896   0.110   8.899
25887WAT     H177903   6.796   0.115   8.911
25887WAT     H277904   6.939   0.184   8.950
25888WAT      O77905   3.561   2.997   7.099
25888WAT     H177906   3.608   3.053   7.168
25888WAT     H277907   3.582   3.031   7.008
25889WAT      O77908   9.035   4.719   1.647
25889WAT     H177909   9.121   4.675   1.674
25889WAT     H277910   8.979   4.654   1.596
25890WAT      O77911   9.170   7.229   3.690
25890WAT     H177912   9.117   7.228   3.774
25890WAT     H277913   9.136   7.300   3.629
25891WAT      O77914   5.093   2.760   4.467
25891WAT     H177915   5.150   2.712   4.400
25891WAT     H277916   5.148   2.783   4.548
25892WAT      O77917   3.013   7.284   0.562
25892WAT     H177918   3.078   7.208   0.565
25892WAT     H277919   3.035   7.344   0.485
25893WAT      O77920   5.998   6.376   6.442
25893WAT     H177921   5.921   6.380   6.505
25893WAT     H277922   6.038   6.467   6.432
25894WAT      O77923   0.399   0.309   3.099
25894WAT     H177924   0.349   0.353   3.174
25894WAT     H277925   0.496   0.302   3.123
25895WAT      O77926   7.689   0.998   8.452
25895WAT     H177927   7.750   1.075   8.433
25895WAT     H277928   7.700   0.928   8.382
25896WAT      O77929   4.193   3.149   9.379
25896WAT     H177930   4.190   3.243   9.344
25896WAT     H277931   4.286   3.128   9.408
25897WAT      O77932   2.544   4.455   4.574
25897WAT     H177933   2.547   4.373   4.516
25897WAT     H277934   2.498   4.434   4.660
25898WAT      O77935   3.880   4.969   8.099
25898WAT     H177936   3.927   4.994   8.015
25898WAT     H277937   3.806   5.033   8.117
25899WAT      O77938   8.370   3.017   4.625
25899WAT     H177939   8.360   2.987   4.719
25899WAT     H277940   8.317   2.957   4.565
25900WAT      O77941   8.008   0.167   9.279
25900WAT     H177942   7.928   0.218   9.308
25900WAT     H277943   8.048   0.209   9.198
25901WAT      O77944   5.697   9.775   0.840
25901WAT     H177945   5.612   9.724   0.826
25901WAT     H277946   5.735   9.804   0.752
25902WAT      O77947   9.541   5.750   0.380
25902WAT     H177948   9.452   5.705   0.391
25902WAT     H277949   9.547   5.788   0.288
25903WAT      O77950   2.038   6.608   7.809
25903WAT     H177951   2.052   6.514   7.839
25903WAT     H277952   2.057   6.671   7.884
25904WAT      O77953   9.401   8.469   4.592
25904WAT     H177954   9.389   8.482   4.690
25904WAT     H277955   9.320   8.424   4.554
25905WAT      O77956   1.872   2.793   7.211
25905WAT     H177957   1.966   2.793   7.176
25905WAT     H277958   1.853   2.705   7.256
25906WAT      O77959   2.425   0.334   4.143
25906WAT     H177960   2.410   0.235   4.135
25906WAT     H277961   2.469   0.354   4.230
25907WAT      O77962   7.707   8.192   5.973
25907WAT     H177963   7.613   8.178   5.942
25907WAT     H277964   7.749   8.267   5.921
25908WAT      O77965   9.575   7.688   5.330
25908WAT     H177966   9.637   7.615   5.302
25908WAT     H277967   9.499   7.650   5.381
25909WAT      O77968   8.874   0.443   8.145
25909WAT     H177969   8.938   0.502   8.195
25909WAT     H277970   8.832   0.494   8.071
25910WAT      O77971   8.979   6.415   6.845
25910WAT     H177972   9.041   6.418   6.923
25910WAT     H277973   8.928   6.328   6.845
25911WAT      O77974   3.461   1.757   8.132
25911WAT     H177975   3.367   1.790   8.121
25911WAT     H277976   3.525   1.832   8.112
25912WAT      O77977   6.337   7.521   5.902
25912WAT     H177978   6.292   7.607   5.928
25912WAT     H277979   6.355   7.467   5.984
25913WAT      O77980   8.941   0.508   1.709
25913WAT     H177981   9.028   0.469   1.739
25913WAT     H277982   8.933   0.602   1.743
25914WAT      O77983   4.609   1.769   9.851
25914WAT     H177984   4.605   1.692   9.914
25914WAT     H277985   4.526   1.825   9.859
25915WAT      O77986   8.951   3.260   5.838
25915WAT     H177987   9.008   3.277   5.919
25915WAT     H277988   8.904   3.345   5.812
25916WAT      O77989   6.325   3.559   7.527
25916WAT     H177990   6.361   3.491   7.592
25916WAT     H277991   6.239   3.597   7.563
25917WAT      O77992   3.437   2.840   5.114
25917WAT     H177993   3.532   2.829   5.082
25917WAT     H277994   3.377   2.853   5.035
25918WAT      O77995   0.384   9.472   2.373
25918WAT     H177996   0.360   9.518   2.287
25918WAT     H277997   0.483   9.455   2.375
25919WAT      O77998   0.157   5.713   4.758
25919WAT     H177999   0.087   5.652   4.721
25919WAT     H278000   0.125   5.751   4.845
25920WAT      O78001   6.817   1.042   3.357
25920WAT     H178002   6.726   1.077   3.336
25920WAT     H278003   6.811   0.980   3.436
25921WAT      O78004   3.136   8.275   3.359
25921WAT     H178005   3.214   8.329   3.389
25921WAT     H278006   3.089   8.237   3.439
25922WAT      O78007   2.293   0.964   7.983
25922WAT     H178008   2.236   0.993   8.060
25922WAT     H278009   2.236   0.923   7.912
25923WAT      O78010   7.467   0.666   9.837
25923WAT     H178011   7.429   0.705   9.753
25923WAT     H278012   7.477   0.568   9.827
25924WAT      O78013   5.623   7.393   7.672
25924WAT     H178014   5.720   7.377   7.692
25924WAT     H278015   5.609   7.394   7.574
25925WAT      O78016   8.214   4.278   2.384
25925WAT     H178017   8.280   4.353   2.382
25925WAT     H278018   8.165   4.275   2.297
25926WAT      O78019   4.913   6.173   9.004
25926WAT     H178020   4.816   6.195   9.016
25926WAT     H278021   4.930   6.079   9.035
25927WAT      O78022   2.702   6.436   1.864
25927WAT     H178023   2.723   6.346   1.824
25927WAT     H278024   2.671   6.498   1.791
25928WAT      O78025   1.205   6.046   5.547
25928WAT     H178026   1.303   6.055   5.570
25928WAT     H278027   1.160   6.134   5.562
25929WAT      O78028   9.012   9.639   1.362
25929WAT     H178029   9.111   9.653   1.371
25929WAT     H278030   8.976   9.699   1.291
25930WAT      O78031   9.607   6.546   2.878
25930WAT     H178032   9.659   6.598   2.811
25930WAT     H278033   9.669   6.484   2.927
25931WAT      O78034   4.680   8.056   3.666
25931WAT     H178035   4.744   8.093   3.598
25931WAT     H278036   4.605   8.009   3.619
25932WAT      O78037   3.842   2.987   9.126
25932WAT     H178038   3.827   3.073   9.076
25932WAT     H278039   3.803   2.911   9.074
25933WAT      O78040   5.312   7.561   9.176
25933WAT     H178041   5.294   7.649   9.132
25933WAT     H278042   5.358   7.500   9.112
25934WAT      O78043   5.643   5.807   0.404
25934WAT     H178044   5.610   5.901   0.410
25934WAT     H278045   5.663   5.773   0.496
25935WAT      O78046   1.449   0.729   9.210
25935WAT     H178047   1.468   0.644   9.161
25935WAT     H278048   1.533   0.784   9.215
25936WAT      O78049   9.412   4.466   6.359
25936WAT     H178050   9.368   4.504   6.441
25936WAT     H278051   9.467   4.387   6.384
25937WAT      O78052   1.930   7.209   4.302
25937WAT     H178053   2.010   7.152   4.282
25937WAT     H278054   1.960   7.301   4.326
25938WAT      O78055   6.053   3.405   0.747
25938WAT     H178056   6.044   3.310   0.776
25938WAT     H278057   5.998   3.421   0.664
25939WAT      O78058   3.849   2.315   2.245
25939WAT     H178059   3.760   2.332   2.201
25939WAT     H278060   3.884   2.227   2.215
25940WAT      O78061   2.872   4.911   0.849
25940WAT     H178062   2.841   4.965   0.927
25940WAT     H278063   2.891   4.971   0.772
25941WAT      O78064   5.710   7.699   7.862
25941WAT     H178065   5.655   7.618   7.843
25941WAT     H278066   5.723   7.708   7.961
25942WAT      O78067   6.788   1.643   1.037
25942WAT     H178068   6.691   1.665   1.041
25942WAT     H278069   6.803   1.566   0.975
25943WAT      O78070   4.128   9.465   9.646
25943WAT     H178071   4.047   9.522   9.629
25943WAT     H278072   4.104   9.391   9.710
25944WAT      O78073   8.250   7.477   9.818
25944WAT     H178074   8.278   7.383   9.836
25944WAT     H278075   8.180   7.505   9.884
25945WAT      O78076   2.115   8.210   8.043
25945WAT     H178077   2.019   8.226   8.066
25945WAT     H278078   2.165   8.182   8.124
25946WAT      O78079   0.976   5.437   2.896
25946WAT     H178080   1.024   5.353   2.918
25946WAT     H278081   0.983   5.455   2.798
25947WAT      O78082   7.744   1.576   5.710
25947WAT     H178083   7.722   1.516   5.633
25947WAT     H278084   7.842   1.569   5.730
25948WAT      O78085   9.647   2.531   0.613
25948WAT     H178086   9.704   2.612   0.602
25948WAT     H278087   9.553   2.553   0.587
25949WAT      O78088   4.866   0.371   7.908
25949WAT     H178089   4.875   0.358   7.809
25949WAT     H278090   4.770   0.362   7.934
25950WAT      O78091   9.872   5.005   2.874
25950WAT     H178092   9.902   5.042   2.785
25950WAT     H278093   9.773   4.993   2.873
25951WAT      O78094   5.488   3.742   3.579
25951WAT     H178095   5.419   3.758   3.650
25951WAT     H278096   5.556   3.677   3.613
25952WAT      O78097   3.550   1.370   1.912
25952WAT     H178098   3.494   1.426   1.850
25952WAT     H278099   3.586   1.427   1.986
25953WAT      O78100   7.660   2.188   7.902
25953WAT     H178101   7.750   2.226   7.878
25953WAT     H278102   7.608   2.170   7.818
25954WAT      O78103   1.296   5.063   8.928
25954WAT     H178104   1.339   5.134   8.872
25954WAT     H278105   1.314   4.973   8.887
25955WAT      O78106   0.276   5.710   8.483
25955WAT     H178107   0.336   5.630   8.495
25955WAT     H278108   0.333   5.792   8.469
25956WAT      O78109   5.861   0.422   4.083
25956WAT     H178110   5.960   0.408   4.079
25956WAT     H278111   5.837   0.508   4.038
25957WAT      O78112   8.088   7.607   9.185
25957WAT     H178113   8.053   7.514   9.195
25957WAT     H278114   8.069   7.639   9.092
25958WAT      O78115   5.537   6.378   2.137
25958WAT     H178116   5.503   6.472   2.132
25958WAT     H278117   5.472   6.317   2.092
25959WAT      O78118   1.276   0.468   9.731
25959WAT     H178119   1.263   0.563   9.761
25959WAT     H278120   1.368   0.438   9.755
25960WAT      O78121   5.084   8.293   4.106
25960WAT     H178122   5.143   8.244   4.042
25960WAT     H278123   5.068   8.237   4.187
25961WAT      O78124   5.573   9.828   0.349
25961WAT     H178125   5.548   9.908   0.294
25961WAT     H278126   5.502   9.810   0.416
25962WAT      O78127   6.392   0.295   0.354
25962WAT     H178128   6.437   0.210   0.332
25962WAT     H278129   6.428   0.331   0.441
25963WAT      O78130   5.625   0.943   4.483
25963WAT     H178131   5.718   0.908   4.471
25963WAT     H278132   5.620   0.994   4.569
25964WAT      O78133   2.646   2.062   4.978
25964WAT     H178134   2.593   2.009   4.912
25964WAT     H278135   2.624   2.159   4.969
25965WAT      O78136   4.907   2.180   9.508
25965WAT     H178137   4.967   2.119   9.457
25965WAT     H278138   4.846   2.127   9.567
25966WAT      O78139   0.462   7.117   0.449
25966WAT     H178140   0.551   7.111   0.494
25966WAT     H278141   0.410   7.193   0.488
25967WAT      O78142   3.249   5.466   1.074
25967WAT     H178143   3.348   5.457   1.066
25967WAT     H278144   3.205   5.378   1.054
25968WAT      O78145   2.149   0.105   4.240
25968WAT     H178146   2.211   0.038   4.282
25968WAT     H278147   2.180   0.127   4.148
25969WAT      O78148   2.378   0.600   0.850
25969WAT     H178149   2.399   0.549   0.934
25969WAT     H278150   2.301   0.557   0.803
25970WAT      O78151   0.067   9.069   7.486
25970WAT     H178152   0.161   9.066   7.450
25970WAT     H278153   0.022   8.981   7.469
25971WAT      O78154   6.871   1.429   5.462
25971WAT     H178155   6.937   1.395   5.395
25971WAT     H278156   6.903   1.406   5.554
25972WAT      O78157   6.035   9.809   5.033
25972WAT     H178158   6.063   9.785   4.940
25972WAT     H278159   6.089   9.886   5.065
25973WAT      O78160   3.574   3.622   8.963
25973WAT     H178161   3.519   3.604   9.045
25973WAT     H278162   3.617   3.537   8.933
25974WAT      O78163   4.013   9.749   9.412
25974WAT     H178164   4.108   9.780   9.416
25974WAT     H278165   3.979   9.758   9.318
25975WAT      O78166   4.004   0.805   4.369
25975WAT     H178167   4.031   0.889   4.416
25975WAT     H278168   3.976   0.737   4.436
25976WAT      O78169   8.314   2.112   6.159
25976WAT     H178170   8.228   2.144   6.199
25976WAT     H278171   8.374   2.190   6.141
25977WAT      O78172   2.123   7.515   5.921
25977WAT     H178173   2.167   7.463   5.847
25977WAT     H278174   2.024   7.505   5.915
25978WAT      O78175   4.186   2.033   0.164
25978WAT     H178176   4.159   1.999   0.073
25978WAT     H278177   4.125   1.995   0.233
25979WAT      O78178   2.922   4.086   4.981
25979WAT     H178179   2.973   4.171   4.989
25979WAT     H278180   2.935   4.046   4.890
25980WAT      O78181   1.611   9.316   6.090
25980WAT     H178182   1.583   9.369   6.010
25980WAT     H278183   1.532   9.268   6.128
25981WAT      O78184   0.391   9.193   3.722
25981WAT     H178185   0.295   9.209   3.743
25981WAT     H278186   0.408   9.095   3.713
25982WAT      O78187   2.187   5.600   2.904
25982WAT     H178188   2.258   5.552   2.852
25982WAT     H278189   2.162   5.546   2.984
25983WAT      O78190   6.978   4.643   7.102
25983WAT     H178191   6.888   4.652   7.058
25983WAT     H278192   6.981   4.702   7.182
25984WAT      O78193   3.828   1.102   4.111
25984WAT     H178194   3.810   1.020   4.165
25984WAT     H278195   3.834   1.182   4.171
25985WAT      O78196   8.576   3.720   6.004
25985WAT     H178197   8.553   3.623   6.005
25985WAT     H278198   8.637   3.740   5.926
25986WAT      O78199   6.894   2.095   4.857
25986WAT     H178200   6.904   2.000   4.826
25986WAT     H278201   6.879   2.097   4.956
25987WAT      O78202   2.198   9.532   8.420
25987WAT     H178203   2.100   9.549   8.419
25987WAT     H278204   2.239   9.574   8.501
25988WAT      O78205   7.569   4.448   1.469
25988WAT     H178206   7.554   4.370   1.408
25988WAT     H278207   7.526   4.430   1.558
25989WAT      O78208   9.552   8.224   8.510
25989WAT     H178209   9.523   8.315   8.482
25989WAT     H278210   9.524   8.157   8.442
25990WAT      O78211   1.343   3.663   2.857
25990WAT     H178212   1.340   3.600   2.935
25990WAT     H278213   1.357   3.610   2.773
25991WAT      O78214   6.167   2.320   7.798
25991WAT     H178215   6.160   2.357   7.705
25991WAT     H278216   6.086   2.347   7.850
25992WAT      O78217   5.112   4.773   1.313
25992WAT     H178218   5.110   4.794   1.215
25992WAT     H278219   5.159   4.846   1.362
25993WAT      O78220   0.409   9.503   6.875
25993WAT     H178221   0.419   9.602   6.873
25993WAT     H278222   0.347   9.477   6.948
25994WAT      O78223   5.827   0.539   1.738
25994WAT     H178224   5.751   0.475   1.753
25994WAT     H278225   5.823   0.574   1.644
25995WAT      O78226   3.107   1.994   3.691
25995WAT     H178227   3.187   1.940   3.666
25995WAT     H278228   3.049   2.007   3.611
25996WAT      O78229   1.226   7.666   1.311
25996WAT     H178230   1.300   7.734   1.312
25996WAT     H278231   1.234   7.609   1.230
25997WAT      O78232   5.508   7.044   2.101
25997WAT     H178233   5.580   7.024   2.034
25997WAT     H278234   5.427   6.991   2.078
25998WAT      O78235   8.727   9.228   0.178
25998WAT     H178236   8.790   9.227   0.256
25998WAT     H278237   8.639   9.265   0.208
25999WAT      O78238   0.425   8.164   0.757
25999WAT     H178239   0.416   8.160   0.657
25999WAT     H278240   0.487   8.237   0.782
26000WAT      O78241   8.046   2.213   0.027
26000WAT     H178242   8.017   2.298  -0.019
26000WAT     H278243   8.086   2.151  -0.040
26001WAT      O78244   8.465   9.366   9.095
26001WAT     H178245   8.418   9.344   9.010
26001WAT     H278246   8.551   9.414   9.075
26002WAT      O78247   2.592   8.730   8.478
26002WAT     H178248   2.599   8.695   8.385
26002WAT     H278249   2.496   8.728   8.508
26003WAT      O78250   6.502   2.083   0.455
26003WAT     H178251   6.585   2.047   0.497
26003WAT     H278252   6.431   2.092   0.524
26004WAT      O78253   6.278   3.281   2.610
26004WAT     H178254   6.283   3.362   2.552
26004WAT     H278255   6.370   3.260   2.645
26005WAT      O78256   8.925   6.988   0.069
26005WAT     H178257   8.827   6.967   0.078
26005WAT     H278258   8.949   7.060   0.134
26006WAT      O78259   2.851   0.668   7.735
26006WAT     H178260   2.837   0.580   7.779
26006WAT     H278261   2.835   0.742   7.800
26007WAT      O78262   2.883   2.142   6.715
26007WAT     H178263   2.808   2.155   6.779
26007WAT     H278264   2.876   2.051   6.673
26008WAT      O78265   1.434   3.441   2.075
26008WAT     H178266   1.354   3.471   2.127
26008WAT     H278267   1.517   3.464   2.126
26009WAT      O78268   1.939   1.215   6.943
26009WAT     H178269   1.862   1.270   6.975
26009WAT     H278270   1.915   1.118   6.950
26010WAT      O78271   1.691   9.711   4.185
26010WAT     H178272   1.748   9.728   4.266
26010WAT     H278273   1.721   9.628   4.139
26011WAT      O78274   0.481   7.043   5.180
26011WAT     H178275   0.557   7.065   5.119
26011WAT     H278276   0.459   6.946   5.174
26012WAT      O78277   6.323   4.106   7.135
26012WAT     H178278   6.357   4.197   7.112
26012WAT     H278279   6.397   4.039   7.129
26013WAT      O78280   1.068   5.731   2.884
26013WAT     H178281   0.978   5.689   2.873
26013WAT     H278282   1.067   5.791   2.964
26014WAT      O78283   6.446   2.282   5.300
26014WAT     H178284   6.373   2.272   5.232
26014WAT     H278285   6.531   2.308   5.253
26015WAT      O78286   8.371   2.796   7.621
26015WAT     H178287   8.375   2.837   7.530
26015WAT     H278288   8.444   2.833   7.679
26016WAT      O78289   3.625   2.457   6.417
26016WAT     H178290   3.618   2.552   6.387
26016WAT     H278291   3.713   2.444   6.463
26017WAT      O78292   6.822   7.174   7.223
26017WAT     H178293   6.731   7.142   7.247
26017WAT     H278294   6.819   7.273   7.205
26018WAT      O78295   9.536   1.040   3.884
26018WAT     H178296   9.438   1.046   3.900
26018WAT     H278297   9.553   0.999   3.795
26019WAT      O78298   0.009   2.703   9.471
26019WAT     H178299   0.064   2.654   9.538
26019WAT     H278300   0.058   2.707   9.384
26020WAT      O78301   0.802   9.749   9.161
26020WAT     H178302   0.773   9.711   9.073
26020WAT     H278303   0.773   9.688   9.235
26021WAT      O78304   1.732   9.702   0.379
26021WAT     H178305   1.772   9.784   0.419
26021WAT     H278306   1.804   9.635   0.360
26022WAT      O78307   9.850   8.786   7.481
26022WAT     H178308   9.826   8.696   7.445
26022WAT     H278309   9.766   8.835   7.505
26023WAT      O78310   6.225   3.604   2.720
26023WAT     H178311   6.155   3.672   2.744
26023WAT     H278312   6.248   3.550   2.801
26024WAT      O78313   7.674   6.420   5.761
26024WAT     H178314   7.594   6.366   5.736
26024WAT     H278315   7.658   6.464   5.850
26025WAT      O78316   6.005   1.244   8.236
26025WAT     H178317   5.929   1.282   8.289
26025WAT     H278318   6.091   1.283   8.268
26026WAT      O78319   5.712   4.248   1.642
26026WAT     H178320   5.663   4.321   1.689
26026WAT     H278321   5.774   4.287   1.574
26027WAT      O78322   2.383   1.049   1.496
26027WAT     H178323   2.415   1.071   1.404
26027WAT     H278324   2.456   1.069   1.562
26028WAT      O78325   2.765   2.338   7.728
26028WAT     H178326   2.743   2.306   7.636
26028WAT     H278327   2.733   2.271   7.795
26029WAT      O78328   2.805   5.015   9.133
26029WAT     H178329   2.741   5.036   9.060
26029WAT     H278330   2.772   5.053   9.219
26030WAT      O78331   8.357   2.471   2.705
26030WAT     H178332   8.294   2.463   2.782
26030WAT     H278333   8.421   2.394   2.706
26031WAT      O78334   3.836   9.774   6.647
26031WAT     H178335   3.762   9.840   6.657
26031WAT     H278336   3.809   9.703   6.582
26032WAT      O78337   3.773   9.382   4.951
26032WAT     H178338   3.724   9.295   4.957
26032WAT     H278339   3.792   9.403   4.855
26033WAT      O78340   5.751   7.513   5.498
26033WAT     H178341   5.801   7.525   5.584
26033WAT     H278342   5.698   7.428   5.502
26034WAT      O78343   6.716   8.792   4.784
26034WAT     H178344   6.719   8.693   4.772
26034WAT     H278345   6.736   8.837   4.697
26035WAT      O78346   6.540   6.016   1.334
26035WAT     H178347   6.635   6.035   1.357
26035WAT     H278348   6.533   5.924   1.295
26036WAT      O78349   7.622   3.502   2.643
26036WAT     H178350   7.683   3.581   2.644
26036WAT     H278351   7.532   3.530   2.678
26037WAT      O78352   4.622   2.741   3.065
26037WAT     H178353   4.694   2.674   3.045
26037WAT     H278354   4.590   2.728   3.159
26038WAT      O78355   4.943   4.434   8.768
26038WAT     H178356   4.920   4.477   8.856
26038WAT     H278357   4.972   4.504   8.703
26039WAT      O78358   6.917   5.449   6.003
26039WAT     H178359   6.841   5.489   6.055
26039WAT     H278360   6.896   5.354   5.980
26040WAT      O78361   6.485   2.918   5.919
26040WAT     H178362   6.565   2.910   5.978
26040WAT     H278363   6.437   2.830   5.914
26041WAT      O78364   0.929   6.264   9.440
26041WAT     H178365   0.870   6.225   9.510
26041WAT     H278366   1.021   6.226   9.449
26042WAT      O78367   3.636   5.364   6.941
26042WAT     H178368   3.671   5.417   6.864
26042WAT     H278369   3.696   5.286   6.958
26043WAT      O78370   2.823   6.787   0.428
26043WAT     H178371   2.758   6.857   0.397
26043WAT     H278372   2.773   6.707   0.461
26044WAT      O78373   7.701   2.694   4.591
26044WAT     H178374   7.678   2.706   4.494
26044WAT     H278375   7.800   2.695   4.602
26045WAT      O78376   1.242   8.991   1.707
26045WAT     H178377   1.261   8.897   1.735
26045WAT     H278378   1.262   9.053   1.783
26046WAT      O78379   8.760   3.804   3.853
26046WAT     H178380   8.664   3.795   3.883
26046WAT     H278381   8.773   3.752   3.769
26047WAT      O78382   7.015   0.294   3.998
26047WAT     H178383   6.970   0.241   3.927
26047WAT     H278384   7.065   0.232   4.060
26048WAT      O78385   7.699   8.892   3.822
26048WAT     H178386   7.779   8.892   3.762
26048WAT     H278387   7.661   8.984   3.829
26049WAT      O78388   4.062   1.516   8.097
26049WAT     H178389   4.007   1.541   8.017
26049WAT     H278390   4.041   1.578   8.173
26050WAT      O78391   0.373   0.537   0.557
26050WAT     H178392   0.459   0.574   0.521
26050WAT     H278393   0.309   0.524   0.481
26051WAT      O78394   3.436   2.686   0.750
26051WAT     H178395   3.349   2.704   0.797
26051WAT     H278396   3.512   2.715   0.809
26052WAT      O78397   5.910   0.882   6.638
26052WAT     H178398   5.951   0.850   6.724
26052WAT     H278399   5.929   0.980   6.627
26053WAT      O78400   3.942   1.539   6.597
26053WAT     H178401   3.981   1.616   6.547
26053WAT     H278402   3.852   1.565   6.633
26054WAT      O78403   8.056   5.300   7.582
26054WAT     H178404   8.035   5.253   7.496
26054WAT     H278405   7.976   5.352   7.611
26055WAT      O78406   0.538   2.173   7.524
26055WAT     H178407   0.560   2.211   7.434
26055WAT     H278408   0.617   2.183   7.584
26056WAT      O78409   2.000   1.425   7.289
26056WAT     H178410   1.915   1.428   7.236
26056WAT     H278411   1.980   1.396   7.383
26057WAT      O78412   7.849   6.370   7.733
26057WAT     H178413   7.827   6.299   7.799
26057WAT     H278414   7.774   6.379   7.667
26058WAT      O78415   4.092   7.647   6.072
26058WAT     H178416   4.141   7.588   6.008
26058WAT     H278417   4.054   7.726   6.023
26059WAT      O78418   2.683   1.930   3.292
26059WAT     H178419   2.589   1.941   3.326
26059WAT     H278420   2.731   1.863   3.349
26060WAT      O78421   5.997   2.572   2.288
26060WAT     H178422   5.945   2.595   2.206
26060WAT     H278423   5.967   2.630   2.364
26061WAT      O78424   6.188   3.104   3.410
26061WAT     H178425   6.243   3.093   3.494
26061WAT     H278426   6.249   3.110   3.331
26062WAT      O78427   5.859   6.870   6.052
26062WAT     H178428   5.842   6.965   6.028
26062WAT     H278429   5.848   6.858   6.151
26063WAT      O78430   4.284   8.728   1.971
26063WAT     H178431   4.373   8.713   1.929
26063WAT     H278432   4.277   8.673   2.055
26064WAT      O78433   6.465   3.087   5.729
26064WAT     H178434   6.381   3.048   5.690
26064WAT     H278435   6.492   3.033   5.809
26065WAT      O78436   0.433   1.599   3.690
26065WAT     H178437   0.514   1.621   3.745
26065WAT     H278438   0.354   1.589   3.751
26066WAT      O78439   0.502   4.086   7.733
26066WAT     H178440   0.439   4.012   7.711
26066WAT     H278441   0.492   4.110   7.830
26067WAT      O78442   6.764   2.937   8.354
26067WAT     H178443   6.801   2.850   8.386
26067WAT     H278444   6.737   2.993   8.432
26068WAT      O78445   5.748   7.397   5.918
26068WAT     H178446   5.826   7.414   5.858
26068WAT     H278447   5.682   7.339   5.871
26069WAT      O78448   3.356   4.694   4.948
26069WAT     H178449   3.261   4.684   4.978
26069WAT     H278450   3.394   4.779   4.984
26070WAT      O78451   4.160   7.412   1.818
26070WAT     H178452   4.160   7.420   1.918
26070WAT     H278453   4.072   7.442   1.782
26071WAT      O78454   8.879   4.406   4.579
26071WAT     H178455   8.842   4.454   4.658
26071WAT     H278456   8.917   4.318   4.609
26072WAT      O78457   7.543   9.093   6.515
26072WAT     H178458   7.500   9.095   6.425
26072WAT     H278459   7.484   9.140   6.581
26073WAT      O78460   3.039   5.358   4.101
26073WAT     H178461   3.116   5.386   4.158
26073WAT     H278462   2.991   5.281   4.144
26074WAT      O78463   8.041   7.056   2.121
26074WAT     H178464   7.946   7.080   2.142
26074WAT     H278465   8.103   7.109   2.178
26075WAT      O78466   9.329   9.579   7.170
26075WAT     H178467   9.331   9.607   7.074
26075WAT     H278468   9.293   9.486   7.177
26076WAT      O78469   0.624   5.156   4.627
26076WAT     H178470   0.699   5.197   4.678
26076WAT     H278471   0.537   5.195   4.658
26077WAT      O78472   2.022   9.545   6.275
26077WAT     H178473   2.111   9.573   6.239
26077WAT     H278474   1.980   9.479   6.213
26078WAT      O78475   2.776   1.150   5.983
26078WAT     H178476   2.708   1.081   5.957
26078WAT     H278477   2.745   1.197   6.066
26079WAT      O78478   1.533   4.316   7.222
26079WAT     H178479   1.489   4.321   7.132
26079WAT     H278480   1.625   4.354   7.216
26080WAT      O78481   4.547   7.861   0.652
26080WAT     H178482   4.577   7.803   0.727
26080WAT     H278483   4.514   7.805   0.577
26081WAT      O78484   9.095   5.776   5.524
26081WAT     H178485   9.147   5.813   5.600
26081WAT     H278486   9.028   5.843   5.492
26082WAT      O78487   5.404   8.595   7.292
26082WAT     H178488   5.314   8.566   7.323
26082WAT     H278489   5.433   8.539   7.214
26083WAT      O78490   4.364   6.650   3.327
26083WAT     H178491   4.332   6.556   3.335
26083WAT     H278492   4.295   6.706   3.282
26084WAT      O78493   1.159   6.939   2.765
26084WAT     H178494   1.059   6.933   2.757
26084WAT     H278495   1.201   6.903   2.682
26085WAT      O78496   3.963   5.207   0.630
26085WAT     H178497   3.959   5.113   0.594
26085WAT     H278498   4.021   5.263   0.571
26086WAT      O78499   3.836   8.074   5.817
26086WAT     H178500   3.798   8.101   5.905
26086WAT     H278501   3.777   8.108   5.744
26087WAT      O78502   6.932   7.204   5.731
26087WAT     H178503   6.856   7.263   5.759
26087WAT     H278504   6.905   7.149   5.652
26088WAT      O78505   0.550   5.577   5.731
26088WAT     H178506   0.499   5.491   5.733
26088WAT     H278507   0.627   5.571   5.794
26089WAT      O78508   6.308   7.515   7.119
26089WAT     H178509   6.239   7.554   7.058
26089WAT     H278510   6.301   7.416   7.118
26090WAT      O78511   6.741   4.819   0.732
26090WAT     H178512   6.778   4.766   0.809
26090WAT     H278513   6.668   4.879   0.766
26091WAT      O78514   3.317   7.350   6.739
26091WAT     H178515   3.394   7.297   6.702
26091WAT     H278516   3.258   7.290   6.794
26092WAT      O78517   9.179   0.576   8.995
26092WAT     H178518   9.214   0.529   9.075
26092WAT     H278519   9.255   0.597   8.933
26093WAT      O78520   3.679   1.452   8.624
26093WAT     H178521   3.737   1.450   8.705
26093WAT     H278522   3.634   1.541   8.617
26094WAT      O78523   6.180   8.915   2.415
26094WAT     H178524   6.209   8.844   2.352
26094WAT     H278525   6.249   8.988   2.418
26095WAT      O78526   6.186   2.227   1.227
26095WAT     H178527   6.193   2.135   1.188
26095WAT     H278528   6.098   2.238   1.273
26096WAT      O78529   3.958   7.193   6.938
26096WAT     H178530   3.927   7.099   6.929
26096WAT     H278531   3.958   7.220   7.034
26097WAT      O78532   9.464   4.695   0.586
26097WAT     H178533   9.539   4.643   0.627
26097WAT     H278534   9.415   4.745   0.659
26098WAT      O78535   3.910   8.065   1.861
26098WAT     H178536   3.990   8.124   1.871
26098WAT     H278537   3.907   8.028   1.768
26099WAT      O78538   6.907   4.899   4.088
26099WAT     H178539   6.948   4.887   4.179
26099WAT     H278540   6.900   4.997   4.068
26100WAT      O78541   0.937   6.318   2.025
26100WAT     H178542   0.850   6.274   2.044
26100WAT     H278543   0.940   6.408   2.070
26101WAT      O78544   3.786   2.181   2.488
26101WAT     H178545   3.867   2.213   2.439
26101WAT     H278546   3.712   2.164   2.422
26102WAT      O78547   0.654   9.180   2.067
26102WAT     H178548   0.579   9.116   2.086
26102WAT     H278549   0.622   9.274   2.075
26103WAT      O78550   2.713   1.123   1.359
26103WAT     H178551   2.772   1.042   1.360
26103WAT     H278552   2.619   1.096   1.338
26104WAT      O78553   3.282   6.371   6.020
26104WAT     H178554   3.274   6.426   5.937
26104WAT     H278555   3.379   6.356   6.040
26105WAT      O78556   1.155   3.056   6.366
26105WAT     H178557   1.220   3.036   6.439
26105WAT     H278558   1.106   2.972   6.341
26106WAT      O78559   8.363   8.172   6.882
26106WAT     H178560   8.414   8.231   6.944
26106WAT     H278561   8.397   8.078   6.889
26107WAT      O78562   7.621   1.771   5.264
26107WAT     H178563   7.611   1.672   5.272
26107WAT     H278564   7.612   1.798   5.168
26108WAT      O78565   8.422   0.596   6.147
26108WAT     H178566   8.417   0.513   6.091
26108WAT     H278567   8.516   0.611   6.175
26109WAT      O78568   9.344   1.183   2.342
26109WAT     H178569   9.316   1.127   2.264
26109WAT     H278570   9.415   1.136   2.393
26110WAT      O78571   6.357   6.458   8.776
26110WAT     H178572   6.395   6.536   8.826
26110WAT     H278573   6.383   6.465   8.680
26111WAT      O78574   7.378   8.491   0.872
26111WAT     H178575   7.338   8.582   0.865
26111WAT     H278576   7.474   8.499   0.899
26112WAT      O78577   1.106   1.674   0.005
26112WAT     H178578   1.195   1.691   0.047
26112WAT     H278579   1.086   1.576   0.007
26113WAT      O78580   1.325   2.356   1.962
26113WAT     H178581   1.364   2.380   2.051
26113WAT     H278582   1.247   2.416   1.943
26114WAT      O78583   9.116   7.910   9.322
26114WAT     H178584   9.105   7.927   9.420
26114WAT     H278585   9.147   7.816   9.308
26115WAT      O78586   1.454   5.702   4.103
26115WAT     H178587   1.440   5.760   4.183
26115WAT     H278588   1.449   5.606   4.131
26116WAT      O78589   9.403   4.596   8.632
26116WAT     H178590   9.318   4.544   8.646
26116WAT     H278591   9.438   4.625   8.721
26117WAT      O78592   4.549   5.671   2.499
26117WAT     H178593   4.546   5.602   2.572
26117WAT     H278594   4.550   5.762   2.540
26118WAT      O78595   4.383   4.762   2.170
26118WAT     H178596   4.325   4.810   2.236
26118WAT     H278597   4.349   4.669   2.157
26119WAT      O78598   8.947   7.138   9.697
26119WAT     H178599   8.981   7.087   9.777
26119WAT     H278600   9.025   7.163   9.639
26120WAT      O78601   9.146   4.752   5.687
26120WAT     H178602   9.214   4.680   5.673
26120WAT     H278603   9.057   4.721   5.653
26121WAT      O78604   2.125   7.382   3.601
26121WAT     H178605   2.090   7.323   3.673
26121WAT     H278606   2.149   7.472   3.639
26122WAT      O78607   1.761   7.620   4.919
26122WAT     H178608   1.670   7.626   4.960
26122WAT     H278609   1.801   7.530   4.938
26123WAT      O78610   5.432   7.003   5.033
26123WAT     H178611   5.480   7.080   4.991
26123WAT     H278612   5.341   6.994   4.991
26124WAT      O78613   8.313   4.806   3.473
26124WAT     H178614   8.347   4.717   3.443
26124WAT     H278615   8.282   4.858   3.394
26125WAT      O78616   5.909   5.735   7.171
26125WAT     H178617   5.909   5.676   7.252
26125WAT     H278618   5.865   5.822   7.193
26126WAT      O78619   4.312   1.145   6.253
26126WAT     H178620   4.410   1.165   6.263
26126WAT     H278621   4.295   1.109   6.162
26127WAT      O78622   4.640   8.141   6.045
26127WAT     H178623   4.644   8.241   6.054
26127WAT     H278624   4.732   8.103   6.050
26128WAT      O78625   9.241   5.248   3.994
26128WAT     H178626   9.163   5.281   3.940
26128WAT     H278627   9.326   5.278   3.950
26129WAT      O78628   2.652   0.761   4.545
26129WAT     H178629   2.664   0.836   4.480
26129WAT     H278630   2.559   0.764   4.583
26130WAT      O78631   1.314   7.561   4.805
26130WAT     H178632   1.386   7.496   4.829
26130WAT     H278633   1.346   7.654   4.820
26131WAT      O78634   3.174   6.430   5.256
26131WAT     H178635   3.222   6.359   5.203
26131WAT     H278636   3.230   6.513   5.257
26132WAT      O78637   6.468   3.036   0.604
26132WAT     H178638   6.535   3.037   0.679
26132WAT     H278639   6.376   3.045   0.641
26133WAT      O78640   6.926   6.157   9.528
26133WAT     H178641   6.929   6.257   9.525
26133WAT     H278642   6.871   6.127   9.606
26134WAT      O78643   2.861   3.091   0.943
26134WAT     H178644   2.807   3.160   0.896
26134WAT     H278645   2.874   3.012   0.884
26135WAT      O78646   4.050   0.658   8.807
26135WAT     H178647   4.039   0.740   8.751
26135WAT     H278648   3.960   0.627   8.838
26136WAT      O78649   7.793   3.303   1.729
26136WAT     H178650   7.726   3.347   1.669
26136WAT     H278651   7.750   3.228   1.778
26137WAT      O78652   5.447   2.124   5.576
26137WAT     H178653   5.434   2.183   5.496
26137WAT     H278654   5.517   2.165   5.635
26138WAT      O78655   2.964   5.710   9.703
26138WAT     H178656   3.049   5.760   9.687
26138WAT     H278657   2.946   5.651   9.624
26139WAT      O78658   0.565   0.524   5.467
26139WAT     H178659   0.594   0.617   5.445
26139WAT     H278660   0.527   0.523   5.560
26140WAT      O78661   3.062   4.814   0.151
26140WAT     H178662   3.150   4.860   0.138
26140WAT     H278663   2.994   4.879   0.185
26141WAT      O78664   6.233   1.715   6.393
26141WAT     H178665   6.137   1.722   6.420
26141WAT     H278666   6.276   1.639   6.441
26142WAT      O78667   3.374   9.325   2.493
26142WAT     H178668   3.376   9.234   2.452
26142WAT     H278669   3.454   9.378   2.463
26143WAT      O78670   8.971   9.645   0.140
26143WAT     H178671   9.032   9.616   0.214
26143WAT     H278672   8.940   9.564   0.090
26144WAT      O78673   9.035   1.740   2.078
26144WAT     H178674   9.127   1.738   2.117
26144WAT     H278675   8.995   1.649   2.082
26145WAT      O78676   8.461   2.309   7.633
26145WAT     H178677   8.441   2.260   7.549
26145WAT     H278678   8.536   2.264   7.681
26146WAT      O78679   6.588   7.771   4.416
26146WAT     H178680   6.506   7.775   4.474
26146WAT     H278681   6.613   7.675   4.401
26147WAT      O78682   6.220   6.977   2.347
26147WAT     H178683   6.150   7.007   2.412
26147WAT     H278684   6.310   6.985   2.389
26148WAT      O78685   0.256   9.467   2.692
26148WAT     H178686   0.338   9.503   2.646
26148WAT     H278687   0.186   9.445   2.624
26149WAT      O78688   0.869   3.545   4.129
26149WAT     H178689   0.773   3.550   4.101
26149WAT     H278690   0.926   3.525   4.049
26150WAT      O78691   7.543   1.193   7.385
26150WAT     H178692   7.510   1.269   7.329
26150WAT     H278693   7.476   1.174   7.457
26151WAT      O78694   8.886   6.267   1.231
26151WAT     H178695   8.875   6.232   1.324
26151WAT     H278696   8.975   6.311   1.222
26152WAT      O78697   8.711   8.761   8.406
26152WAT     H178698   8.773   8.706   8.351
26152WAT     H278699   8.744   8.856   8.408
26153WAT      O78700   1.487   8.931   3.142
26153WAT     H178701   1.463   8.964   3.051
26153WAT     H278702   1.587   8.926   3.150
26154WAT      O78703   9.264   8.235   1.520
26154WAT     H178704   9.258   8.335   1.522
26154WAT     H278705   9.234   8.198   1.608
26155WAT      O78706   8.460   3.885   0.648
26155WAT     H178707   8.436   3.788   0.649
26155WAT     H278708   8.517   3.904   0.568
26156WAT      O78709   2.765   2.027   5.521
26156WAT     H178710   2.862   2.044   5.503
26156WAT     H278711   2.756   1.952   5.586
26157WAT      O78712   0.155   2.562   3.314
26157WAT     H178713   0.210   2.604   3.242
26157WAT     H278714   0.120   2.474   3.282
26158WAT      O78715   4.253   8.979   4.305
26158WAT     H178716   4.298   8.935   4.383
26158WAT     H278717   4.234   9.075   4.328
26159WAT      O78718   5.906   5.281   0.240
26159WAT     H178719   5.831   5.311   0.181
26159WAT     H278720   5.928   5.354   0.304
26160WAT      O78721   6.305   9.529   3.420
26160WAT     H178722   6.373   9.511   3.348
26160WAT     H278723   6.344   9.592   3.487
26161WAT      O78724   1.329   2.257   3.000
26161WAT     H178725   1.239   2.282   2.964
26161WAT     H278726   1.327   2.257   3.100
26162WAT      O78727   9.011   1.316   7.013
26162WAT     H178728   8.993   1.283   6.920
26162WAT     H278729   9.054   1.406   7.008
26163WAT      O78730   9.785   8.519   7.407
26163WAT     H178731   9.840   8.448   7.363
26163WAT     H278732   9.708   8.543   7.348
26164WAT      O78733   7.543   9.397   6.286
26164WAT     H178734   7.449   9.395   6.321
26164WAT     H278735   7.594   9.319   6.323
26165WAT      O78736   0.391   0.294   4.587
26165WAT     H178737   0.337   0.351   4.649
26165WAT     H278738   0.461   0.246   4.640
26166WAT      O78739   2.040   6.955   6.053
26166WAT     H178740   1.955   6.905   6.037
26166WAT     H278741   2.094   6.909   6.124
26167WAT      O78742   5.539   1.854   8.271
26167WAT     H178743   5.613   1.855   8.204
26167WAT     H278744   5.462   1.801   8.235
26168WAT      O78745   7.067   4.020   7.756
26168WAT     H178746   7.132   4.025   7.833
26168WAT     H278747   7.025   3.929   7.754
26169WAT      O78748   4.939   3.198   7.238
26169WAT     H178749   4.893   3.212   7.326
26169WAT     H278750   5.026   3.152   7.252
26170WAT      O78751   7.674   8.404   8.704
26170WAT     H178752   7.762   8.430   8.664
26170WAT     H278753   7.646   8.314   8.668
26171WAT      O78754   0.558   1.129   8.405
26171WAT     H178755   0.565   1.029   8.415
26171WAT     H278756   0.648   1.166   8.379
26172WAT      O78757   9.326   3.827   4.475
26172WAT     H178758   9.414   3.820   4.521
26172WAT     H278759   9.323   3.911   4.421
26173WAT      O78760   0.652   4.130   0.316
26173WAT     H178761   0.682   4.078   0.395
26173WAT     H278762   0.717   4.120   0.241
26174WAT      O78763   2.279   4.176   6.808
26174WAT     H178764   2.336   4.248   6.848
26174WAT     H278765   2.183   4.205   6.808
26175WAT      O78766   9.022   9.640   3.672
26175WAT     H178767   9.005   9.583   3.752
26175WAT     H278768   8.945   9.703   3.659
26176WAT      O78769   1.059   4.644   8.255
26176WAT     H178770   1.005   4.697   8.321
26176WAT     H278771   1.130   4.593   8.304
26177WAT      O78772   5.146   4.622   9.144
26177WAT     H178773   5.182   4.691   9.081
26177WAT     H278774   5.158   4.531   9.105
26178WAT      O78775   8.255   4.891   6.030
26178WAT     H178776   8.331   4.827   6.029
26178WAT     H278777   8.287   4.982   6.002
26179WAT      O78778   3.195   4.167   7.771
26179WAT     H178779   3.119   4.225   7.799
26179WAT     H278780   3.269   4.225   7.735
26180WAT      O78781   7.081   5.287   0.641
26180WAT     H178782   7.114   5.198   0.610
26180WAT     H278783   7.052   5.281   0.737
26181WAT      O78784   3.404   7.229   1.207
26181WAT     H178785   3.414   7.323   1.172
26181WAT     H278786   3.307   7.208   1.217
26182WAT      O78787   9.850   1.070   3.771
26182WAT     H178788   9.774   1.044   3.711
26182WAT     H278789   9.839   1.165   3.800
26183WAT      O78790   6.812   4.606   1.671
26183WAT     H178791   6.722   4.577   1.703
26183WAT     H278792   6.816   4.706   1.670
26184WAT      O78793   3.891   6.167   8.139
26184WAT     H178794   3.833   6.091   8.108
26184WAT     H278795   3.899   6.234   8.065
26185WAT      O78796   2.545   9.468   8.298
26185WAT     H178797   2.638   9.504   8.293
26185WAT     H278798   2.515   9.466   8.393
26186WAT      O78799   2.796   5.598   4.805
26186WAT     H178800   2.826   5.661   4.877
26186WAT     H278801   2.876   5.571   4.750
26187WAT      O78802   7.423   4.614   4.849
26187WAT     H178803   7.387   4.686   4.908
26187WAT     H278804   7.361   4.601   4.771
26188WAT      O78805   3.831   6.816   4.271
26188WAT     H178806   3.781   6.884   4.219
26188WAT     H278807   3.777   6.733   4.279
26189WAT      O78808   9.308   8.096   1.016
26189WAT     H178809   9.208   8.097   1.025
26189WAT     H278810   9.345   8.178   1.061
26190WAT      O78811   9.666   9.592   3.792
26190WAT     H178812   9.674   9.590   3.892
26190WAT     H278813   9.588   9.648   3.766
26191WAT      O78814   8.654   1.627   2.147
26191WAT     H178815   8.732   1.594   2.094
26191WAT     H278816   8.635   1.563   2.221
26192WAT      O78817   8.218   2.393   3.783
26192WAT     H178818   8.160   2.449   3.842
26192WAT     H278819   8.245   2.446   3.703
26193WAT      O78820   4.171   5.832   4.754
26193WAT     H178821   4.128   5.918   4.781
26193WAT     H278822   4.129   5.756   4.804
26194WAT      O78823   4.539   4.387   2.003
26194WAT     H178824   4.594   4.314   2.044
26194WAT     H278825   4.600   4.449   1.953
26195WAT      O78826   7.198   4.832   8.156
26195WAT     H178827   7.124   4.897   8.137
26195WAT     H278828   7.208   4.769   8.079
26196WAT      O78829   1.176   6.177   9.550
26196WAT     H178830   1.144   6.268   9.577
26196WAT     H278831   1.137   6.108   9.611
26197WAT      O78832   3.861   3.618   3.856
26197WAT     H178833   3.956   3.601   3.883
26197WAT     H278834   3.854   3.620   3.756
26198WAT      O78835   1.681   2.508   7.464
26198WAT     H178836   1.751   2.496   7.394
26198WAT     H278837   1.671   2.605   7.485
26199WAT      O78838   2.659   5.683   1.145
26199WAT     H178839   2.570   5.651   1.111
26199WAT     H278840   2.700   5.611   1.202
26200WAT      O78841   0.901   3.692   9.215
26200WAT     H178842   0.895   3.640   9.130
26200WAT     H278843   0.851   3.643   9.287
26201WAT      O78844   7.662   7.346   2.962
26201WAT     H178845   7.627   7.430   3.005
26201WAT     H278846   7.588   7.279   2.954
26202WAT      O78847   0.965   7.283   7.972
26202WAT     H178848   0.945   7.380   7.986
26202WAT     H278849   1.060   7.264   7.997
26203WAT      O78850   8.090   0.946   6.726
26203WAT     H178851   8.169   0.963   6.667
26203WAT     H278852   8.102   0.995   6.812
26204WAT      O78853   1.021   5.247   3.968
26204WAT     H178854   0.995   5.261   3.873
26204WAT     H278855   1.053   5.334   4.007
26205WAT      O78856   3.762   6.796   7.143
26205WAT     H178857   3.697   6.813   7.217
26205WAT     H278858   3.734   6.714   7.093
26206WAT      O78859   3.590   0.392   3.640
26206WAT     H178860   3.608   0.295   3.650
26206WAT     H278861   3.512   0.406   3.578
26207WAT      O78862   2.197   8.324   9.865
26207WAT     H178863   2.179   8.298   9.960
26207WAT     H278864   2.204   8.423   9.858
26208WAT      O78865   7.744   1.793   5.860
26208WAT     H178866   7.718   1.711   5.808
26208WAT     H278867   7.841   1.788   5.884
26209WAT      O78868   9.490   1.079   8.041
26209WAT     H178869   9.541   1.018   7.981
26209WAT     H278870   9.393   1.072   8.021
26210WAT      O78871   8.782   8.807   6.225
26210WAT     H178872   8.714   8.734   6.217
26210WAT     H278873   8.808   8.820   6.321
26211WAT      O78874   5.031   6.228   0.945
26211WAT     H178875   5.005   6.132   0.936
26211WAT     H278876   5.100   6.250   0.876
26212WAT      O78877   7.289   0.067   7.313
26212WAT     H178878   7.191   0.057   7.299
26212WAT     H278879   7.306   0.115   7.399
26213WAT      O78880   1.797   5.256   8.193
26213WAT     H178881   1.799   5.351   8.162
26213WAT     H278882   1.758   5.252   8.285
26214WAT      O78883   6.172   0.830   1.669
26214WAT     H178884   6.203   0.925   1.665
26214WAT     H278885   6.202   0.789   1.755
26215WAT      O78886   6.625   0.644   7.396
26215WAT     H178887   6.641   0.646   7.495
26215WAT     H278888   6.534   0.681   7.376
26216WAT      O78889   9.621   6.666   4.198
26216WAT     H178890   9.552   6.687   4.127
26216WAT     H278891   9.590   6.588   4.252
26217WAT      O78892   0.338   2.551   0.585
26217WAT     H178893   0.335   2.632   0.527
26217WAT     H278894   0.347   2.469   0.529
26218WAT      O78895   0.912   0.786   7.607
26218WAT     H178896   0.870   0.698   7.586
26218WAT     H278897   0.882   0.855   7.540
26219WAT      O78898   8.672   0.676   6.562
26219WAT     H178899   8.623   0.607   6.508
26219WAT     H278900   8.726   0.734   6.501
26220WAT      O78901   7.245   2.072   7.493
26220WAT     H178902   7.278   2.071   7.398
26220WAT     H278903   7.322   2.084   7.555
26221WAT      O78904   7.492   4.386   2.001
26221WAT     H178905   7.531   4.388   1.909
26221WAT     H278906   7.416   4.451   2.007
26222WAT      O78907   2.138   3.124   7.417
26222WAT     H178908   2.183   3.036   7.430
26222WAT     H278909   2.063   3.114   7.352
26223WAT      O78910   0.889   7.711   9.786
26223WAT     H178911   0.960   7.769   9.746
26223WAT     H278912   0.809   7.766   9.809
26224WAT      O78913   6.964   6.827   3.099
26224WAT     H178914   6.868   6.823   3.125
26224WAT     H278915   6.992   6.922   3.090
26225WAT      O78916   6.088   4.780   9.609
26225WAT     H178917   6.157   4.712   9.633
26225WAT     H278918   6.125   4.843   9.541
26226WAT      O78919   4.756   3.636   9.858
26226WAT     H178920   4.839   3.607   9.905
26226WAT     H278921   4.703   3.697   9.917
26227WAT      O78922   2.637   7.658   5.533
26227WAT     H178923   2.651   7.713   5.615
26227WAT     H278924   2.694   7.694   5.458
26228WAT      O78925   3.459   9.289   7.634
26228WAT     H178926   3.532   9.263   7.696
26228WAT     H278927   3.456   9.388   7.625
26229WAT      O78928   1.697   5.148   8.905
26229WAT     H178929   1.727   5.240   8.930
26229WAT     H278930   1.667   5.099   8.988
26230WAT      O78931   3.888   1.042   8.908
26230WAT     H178932   3.894   0.971   8.838
26230WAT     H278933   3.893   1.000   8.998
26231WAT      O78934   2.026   6.411   5.860
26231WAT     H178935   2.069   6.370   5.780
26231WAT     H278936   2.082   6.488   5.892
26232WAT      O78937   4.168   5.369   2.567
26232WAT     H178938   4.184   5.452   2.514
26232WAT     H278939   4.185   5.389   2.664
26233WAT      O78940   3.510   9.051   8.152
26233WAT     H178941   3.428   9.099   8.122
26233WAT     H278942   3.525   8.971   8.093
26234WAT      O78943   1.194   7.968   2.641
26234WAT     H178944   1.257   7.930   2.709
26234WAT     H278945   1.235   8.049   2.599
26235WAT      O78946   4.912   6.414   4.791
26235WAT     H178947   4.977   6.351   4.833
26235WAT     H278948   4.819   6.392   4.823
26236WAT      O78949   1.144   8.735   3.486
26236WAT     H178950   1.082   8.678   3.432
26236WAT     H278951   1.149   8.700   3.579
26237WAT      O78952   7.355   0.175   0.148
26237WAT     H178953   7.270   0.204   0.105
26237WAT     H278954   7.410   0.124   0.081
26238WAT      O78955   5.483   3.506   1.682
26238WAT     H178956   5.399   3.474   1.639
26238WAT     H278957   5.475   3.499   1.781
26239WAT      O78958   1.152   3.015   1.509
26239WAT     H178959   1.243   3.056   1.497
26239WAT     H278960   1.084   3.072   1.463
26240WAT      O78961   4.486   8.653   9.629
26240WAT     H178962   4.556   8.582   9.619
26240WAT     H278963   4.516   8.736   9.582
26241WAT      O78964   0.605   2.167   5.327
26241WAT     H178965   0.577   2.072   5.341
26241WAT     H278966   0.535   2.228   5.365
26242WAT      O78967   4.561   3.089   8.368
26242WAT     H178968   4.519   3.179   8.373
26242WAT     H278969   4.618   3.075   8.449
26243WAT      O78970   6.145   6.430   7.061
26243WAT     H178971   6.184   6.338   7.068
26243WAT     H278972   6.114   6.446   6.967
26244WAT      O78973   9.176   7.580   9.741
26244WAT     H178974   9.128   7.571   9.654
26244WAT     H278975   9.243   7.655   9.735
26245WAT      O78976   6.285   7.752   2.024
26245WAT     H178977   6.250   7.706   2.106
26245WAT     H278978   6.307   7.847   2.046
26246WAT      O78979   9.510   7.836   0.535
26246WAT     H178980   9.499   7.814   0.438
26246WAT     H278981   9.594   7.888   0.548
26247WAT      O78982   8.920   0.080   7.439
26247WAT     H178983   8.900  -0.008   7.482
26247WAT     H278984   8.880   0.082   7.347
26248WAT      O78985   2.487   4.700   8.031
26248WAT     H178986   2.468   4.654   8.118
26248WAT     H278987   2.402   4.742   7.997
26249WAT      O78988   3.012   1.678   7.621
26249WAT     H178989   2.916   1.702   7.613
26249WAT     H278990   3.021   1.581   7.642
26250WAT      O78991   6.719   6.089   4.029
26250WAT     H178992   6.664   6.007   4.012
26250WAT     H278993   6.758   6.121   3.942
26251WAT      O78994   0.086   3.721   9.149
26251WAT     H178995   0.086   3.622   9.135
26251WAT     H278996   0.145   3.744   9.227
26252WAT      O78997   1.242   2.322   7.711
26252WAT     H178998   1.230   2.349   7.807
26252WAT     H278999   1.328   2.359   7.676
26253WAT      O79000   8.460   5.590   7.441
26253WAT     H179001   8.369   5.588   7.399
26253WAT     H279002   8.450   5.594   7.541
26254WAT      O79003   6.486   5.107   2.430
26254WAT     H179004   6.539   5.031   2.470
26254WAT     H279005   6.468   5.175   2.500
26255WAT      O79006   2.868   4.741   7.850
26255WAT     H179007   2.799   4.810   7.826
26255WAT     H279008   2.877   4.676   7.774
26256WAT      O79009   6.497   4.303   6.768
26256WAT     H179010   6.404   4.269   6.783
26256WAT     H279011   6.558   4.226   6.750
26257WAT      O79012   2.893   5.070   7.962
26257WAT     H179013   2.947   5.093   7.881
26257WAT     H279014   2.820   5.006   7.937
26258WAT      O79015   8.087   3.313   9.632
26258WAT     H179016   8.008   3.309   9.694
26258WAT     H279017   8.169   3.337   9.685
26259WAT      O79018   2.330   2.432   5.951
26259WAT     H179019   2.308   2.343   5.911
26259WAT     H279020   2.246   2.483   5.968
26260WAT      O79021   7.086   1.632   8.014
26260WAT     H179022   6.994   1.594   8.022
26260WAT     H279023   7.153   1.558   8.019
26261WAT      O79024   1.946   9.363   6.061
26261WAT     H179025   1.879   9.420   6.013
26261WAT     H279026   1.903   9.277   6.089
26262WAT      O79027   0.947   7.178   5.403
26262WAT     H179028   0.954   7.190   5.304
26262WAT     H279029   0.878   7.109   5.423
26263WAT      O79030   0.934   1.404   6.967
26263WAT     H179031   0.849   1.393   7.019
26263WAT     H279032   1.012   1.380   7.025
26264WAT      O79033   1.541   9.654   8.243
26264WAT     H179034   1.460   9.627   8.296
26264WAT     H279035   1.623   9.624   8.293
26265WAT      O79036   2.251   0.659   2.221
26265WAT     H179037   2.221   0.593   2.152
26265WAT     H279038   2.338   0.700   2.192
26266WAT      O79039   7.992   5.937   4.538
26266WAT     H179040   8.067   5.893   4.489
26266WAT     H279041   7.923   5.969   4.473
26267WAT      O79042   4.741   5.389   1.957
26267WAT     H179043   4.709   5.331   1.882
26267WAT     H279044   4.676   5.386   2.033
26268WAT      O79045   5.648   0.042   9.656
26268WAT     H179046   5.713   0.020   9.584
26268WAT     H279047   5.557   0.010   9.629
26269WAT      O79048   1.190   3.469   2.203
26269WAT     H179049   1.171   3.509   2.113
26269WAT     H279050   1.196   3.370   2.194
26270WAT      O79051   1.739   4.841   3.979
26270WAT     H179052   1.763   4.933   4.013
26270WAT     H279053   1.764   4.773   4.048
26271WAT      O79054   9.654   7.922   3.836
26271WAT     H179055   9.593   7.848   3.810
26271WAT     H279056   9.648   7.938   3.935
26272WAT      O79057   6.136   1.158   1.654
26272WAT     H179058   6.073   1.110   1.593
26272WAT     H279059   6.226   1.166   1.610
26273WAT      O79060   5.474   2.109   0.353
26273WAT     H179061   5.496   2.182   0.289
26273WAT     H279062   5.376   2.088   0.349
26274WAT      O79063   7.229   2.753   1.736
26274WAT     H179064   7.158   2.768   1.804
26274WAT     H279065   7.305   2.817   1.752
26275WAT      O79066   0.734   6.630   5.262
26275WAT     H179067   0.732   6.676   5.173
26275WAT     H279068   0.664   6.559   5.264
26276WAT      O79069   1.532   4.485   5.611
26276WAT     H179070   1.545   4.394   5.572
26276WAT     H279071   1.482   4.542   5.547
26277WAT      O79072   7.172   9.103   5.077
26277WAT     H179073   7.203   9.041   5.004
26277WAT     H279074   7.156   9.194   5.038
26278WAT      O79075   8.262   5.469   0.179
26278WAT     H179076   8.262   5.492   0.082
26278WAT     H279077   8.296   5.376   0.191
26279WAT      O79078   6.286   0.141   7.030
26279WAT     H179079   6.252   0.147   6.937
26279WAT     H279080   6.346   0.218   7.050
26280WAT      O79081   5.454   1.876   1.947
26280WAT     H179082   5.498   1.787   1.957
26280WAT     H279083   5.382   1.885   2.017
26281WAT      O79084   3.184   5.397   7.229
26281WAT     H179085   3.129   5.453   7.168
26281WAT     H279086   3.260   5.357   7.178
26282WAT      O79087   5.458   2.946   6.550
26282WAT     H179088   5.452   2.876   6.479
26282WAT     H279089   5.443   2.904   6.640
26283WAT      O79090   2.037   2.647   1.204
26283WAT     H179091   1.985   2.566   1.231
26283WAT     H279092   2.132   2.636   1.233
26284WAT      O79093   2.434   3.755   9.848
26284WAT     H179094   2.446   3.665   9.890
26284WAT     H279095   2.482   3.824   9.903
26285WAT      O79096   3.183   0.166   0.428
26285WAT     H179097   3.243   0.107   0.374
26285WAT     H279098   3.099   0.116   0.452
26286WAT      O79099   1.147   2.626   8.796
26286WAT     H179100   1.121   2.591   8.706
26286WAT     H279101   1.162   2.549   8.859
26287WAT      O79102   2.434   7.244   6.561
26287WAT     H179103   2.380   7.190   6.497
26287WAT     H279104   2.492   7.184   6.615
26288WAT      O79105   3.329   3.217   3.780
26288WAT     H179106   3.303   3.124   3.810
26288WAT     H279107   3.277   3.284   3.833
26289WAT      O79108   4.866   3.431   1.954
26289WAT     H179109   4.951   3.480   1.931
26289WAT     H279110   4.885   3.362   2.024
26290WAT      O79111   2.000   9.125   1.177
26290WAT     H179112   1.926   9.124   1.111
26290WAT     H279113   1.980   9.062   1.252
26291WAT      O79114   2.585   8.107   5.442
26291WAT     H179115   2.494   8.103   5.400
26291WAT     H279116   2.639   8.179   5.399
26292WAT      O79117   2.977   6.212   1.731
26292WAT     H179118   2.924   6.175   1.654
26292WAT     H279119   3.010   6.303   1.708
26293WAT      O79120   9.580   3.484   8.157
26293WAT     H179121   9.492   3.522   8.133
26293WAT     H279122   9.608   3.519   8.247
26294WAT      O79123   9.201   5.181   1.253
26294WAT     H179124   9.295   5.202   1.228
26294WAT     H279125   9.159   5.260   1.296
26295WAT      O79126   7.354   8.271   3.557
26295WAT     H179127   7.266   8.294   3.516
26295WAT     H279128   7.427   8.289   3.491
26296WAT      O79129   7.499   4.090   7.384
26296WAT     H179130   7.580   4.146   7.404
26296WAT     H279131   7.462   4.055   7.470
26297WAT      O79132   8.988   2.771   6.605
26297WAT     H179133   9.064   2.738   6.549
26297WAT     H279134   9.013   2.857   6.649
26298WAT      O79135   5.987   8.640   8.793
26298WAT     H179136   5.908   8.662   8.736
26298WAT     H279137   6.024   8.724   8.833
26299WAT      O79138   4.140   7.039   4.478
26299WAT     H179139   4.191   6.972   4.424
26299WAT     H279140   4.118   7.000   4.567
26300WAT      O79141   7.897   7.361   0.740
26300WAT     H179142   7.806   7.390   0.770
26300WAT     H279143   7.959   7.362   0.817
26301WAT      O79144   7.966   3.359   6.828
26301WAT     H179145   7.954   3.325   6.735
26301WAT     H279146   7.997   3.285   6.887
26302WAT      O79147   5.583   8.145   2.086
26302WAT     H179148   5.654   8.198   2.040
26302WAT     H279149   5.622   8.062   2.125
26303WAT      O79150   1.353   7.612   4.226
26303WAT     H179151   1.430   7.552   4.205
26303WAT     H279152   1.364   7.698   4.177
26304WAT      O79153   8.234   8.183   7.169
26304WAT     H179154   8.311   8.120   7.158
26304WAT     H279155   8.155   8.147   7.120
26305WAT      O79156   0.118   9.695   0.068
26305WAT     H179157   0.149   9.765   0.004
26305WAT     H279158   0.023   9.671   0.048
26306WAT      O79159   9.053   8.615   0.341
26306WAT     H179160   9.115   8.637   0.416
26306WAT     H279161   9.104   8.570   0.268
26307WAT      O79162   3.443   8.077   3.511
26307WAT     H179163   3.436   8.076   3.611
26307WAT     H279164   3.380   8.010   3.472
26308WAT      O79165   5.180   0.857   5.907
26308WAT     H179166   5.085   0.871   5.936
26308WAT     H279167   5.240   0.918   5.958
26309WAT      O79168   3.382   3.356   0.339
26309WAT     H179169   3.477   3.387   0.349
26309WAT     H279170   3.375   3.295   0.260
26310WAT      O79171   2.380   4.024   9.400
26310WAT     H179172   2.474   4.016   9.368
26310WAT     H279173   2.333   4.095   9.346
26311WAT      O79174   9.457   1.759   7.246
26311WAT     H179175   9.407   1.831   7.198
26311WAT     H279176   9.394   1.684   7.268
26312WAT      O79177   2.003   5.267   2.489
26312WAT     H179178   1.910   5.271   2.452
26312WAT     H279179   2.033   5.172   2.490
26313WAT      O79180   2.601   2.320   2.227
26313WAT     H179181   2.561   2.388   2.288
26313WAT     H279182   2.664   2.262   2.279
26314WAT      O79183   8.267   3.840   5.470
26314WAT     H179184   8.216   3.918   5.504
26314WAT     H279185   8.238   3.757   5.518
26315WAT      O79186   8.631   9.591   3.003
26315WAT     H179187   8.651   9.612   3.099
26315WAT     H279188   8.558   9.523   2.998
26316WAT      O79189   1.619   4.508   6.762
26316WAT     H179190   1.524   4.477   6.772
26316WAT     H279191   1.648   4.553   6.847
26317WAT      O79192   4.684   0.966   6.232
26317WAT     H179193   4.754   0.961   6.161
26317WAT     H279194   4.619   0.892   6.220
26318WAT      O79195   9.692   3.246   5.619
26318WAT     H179196   9.622   3.306   5.658
26318WAT     H279197   9.675   3.235   5.521
26319WAT      O79198   0.364   9.550   4.719
26319WAT     H179199   0.403   9.460   4.699
26319WAT     H279200   0.349   9.559   4.818
26320WAT      O79201   1.555   4.511   9.103
26320WAT     H179202   1.589   4.549   9.017
26320WAT     H279203   1.455   4.507   9.101
26321WAT      O79204   7.489   6.456   1.495
26321WAT     H179205   7.418   6.512   1.539
26321WAT     H279206   7.547   6.515   1.438
26322WAT      O79207   2.568   9.810   8.240
26322WAT     H179208   2.579   9.890   8.182
26322WAT     H279209   2.651   9.755   8.238
26323WAT      O79210   6.592   9.550   1.305
26323WAT     H179211   6.648   9.604   1.368
26323WAT     H279212   6.594   9.454   1.333
26324WAT      O79213   9.763   1.698   9.857
26324WAT     H179214   9.742   1.737   9.768
26324WAT     H279215   9.834   1.629   9.847
26325WAT      O79216   1.098   5.790   3.886
26325WAT     H179217   1.176   5.729   3.871
26325WAT     H279218   1.129   5.885   3.886
26326WAT      O79219   5.380   5.602   2.961
26326WAT     H179220   5.464   5.572   2.917
26326WAT     H279221   5.402   5.660   3.040
26327WAT      O79222   3.245   7.165   2.944
26327WAT     H179223   3.341   7.169   2.917
26327WAT     H279224   3.187   7.189   2.866
26328WAT      O79225   3.300   8.189   4.061
26328WAT     H179226   3.221   8.196   4.123
26328WAT     H279227   3.324   8.281   4.028
26329WAT      O79228   4.996   1.810   7.703
26329WAT     H179229   5.047   1.879   7.652
26329WAT     H279230   5.058   1.764   7.767
26330WAT      O79231   4.374   2.248   2.905
26330WAT     H179232   4.453   2.207   2.951
26330WAT     H279233   4.335   2.319   2.964
26331WAT      O79234   9.129   5.575   5.884
26331WAT     H179235   9.213   5.534   5.919
26331WAT     H279236   9.052   5.549   5.943
26332WAT      O79237   7.111   0.616   0.691
26332WAT     H179238   7.117   0.710   0.724
26332WAT     H279239   7.106   0.553   0.768
26333WAT      O79240   9.534   1.981   8.096
26333WAT     H179241   9.536   2.073   8.057
26333WAT     H279242   9.497   1.917   8.028
26334WAT      O79243   6.753   6.262   5.563
26334WAT     H179244   6.723   6.306   5.647
26334WAT     H279245   6.688   6.281   5.490
26335WAT      O79246   9.224   0.951   4.949
26335WAT     H179247   9.241   0.871   5.007
26335WAT     H279248   9.222   1.033   5.006
26336WAT      O79249   3.298   8.929   0.100
26336WAT     H179250   3.222   8.928   0.166
26336WAT     H279251   3.364   8.859   0.126
26337WAT      O79252   7.497   4.026   4.559
26337WAT     H179253   7.524   3.935   4.589
26337WAT     H279254   7.403   4.024   4.527
26338WAT      O79255   6.891   7.024   9.719
26338WAT     H179256   6.935   6.998   9.805
26338WAT     H279257   6.852   6.942   9.676
26339WAT      O79258   8.083   7.768   3.754
26339WAT     H179259   8.006   7.756   3.816
26339WAT     H279260   8.056   7.745   3.660
26340WAT      O79261   6.556   2.707   0.992
26340WAT     H179262   6.483   2.760   0.949
26340WAT     H279263   6.522   2.616   1.016
26341WAT      O79264   4.482   9.175   1.233
26341WAT     H179265   4.411   9.113   1.268
26341WAT     H279266   4.568   9.157   1.280
26342WAT      O79267   9.141   5.770   9.816
26342WAT     H179268   9.200   5.733   9.743
26342WAT     H279269   9.182   5.854   9.852
26343WAT      O79270   4.634   3.388   4.260
26343WAT     H179271   4.700   3.379   4.335
26343WAT     H279272   4.579   3.470   4.274
26344WAT      O79273   2.739   4.199   7.314
26344WAT     H179274   2.759   4.101   7.318
26344WAT     H279275   2.734   4.228   7.218
26345WAT      O79276   7.317   1.844   3.047
26345WAT     H179277   7.254   1.919   3.065
26345WAT     H279278   7.322   1.827   2.948
26346WAT      O79279   6.532   4.772   9.002
26346WAT     H179280   6.546   4.864   9.038
26346WAT     H279281   6.515   4.777   8.903
26347WAT      O79282   6.510   8.011   9.047
26347WAT     H179283   6.423   7.964   9.061
26347WAT     H279284   6.583   7.959   9.092
26348WAT      O79285   3.744   0.897   7.015
26348WAT     H179286   3.662   0.940   7.052
26348WAT     H279287   3.823   0.921   7.071
26349WAT      O79288   5.566   9.708   2.424
26349WAT     H179289   5.654   9.753   2.433
26349WAT     H279290   5.531   9.721   2.331
26350WAT      O79291   0.884   4.181   2.421
26350WAT     H179292   0.859   4.220   2.332
26350WAT     H279293   0.856   4.243   2.494
26351WAT      O79294   8.470   3.135   2.306
26351WAT     H179295   8.463   3.154   2.208
26351WAT     H279296   8.382   3.101   2.340
26352WAT      O79297   1.602   0.428   0.880
26352WAT     H179298   1.607   0.444   0.781
26352WAT     H279299   1.651   0.344   0.903
26353WAT      O79300   6.343   1.743   8.725
26353WAT     H179301   6.429   1.719   8.679
26353WAT     H279302   6.361   1.762   8.821
26354WAT      O79303   2.128   0.927   1.131
26354WAT     H179304   2.121   1.002   1.198
26354WAT     H279305   2.046   0.869   1.137
26355WAT      O79306   5.519   6.707   7.955
26355WAT     H179307   5.442   6.766   7.982
26355WAT     H279308   5.601   6.735   8.004
26356WAT      O79309   1.524   6.548   1.390
26356WAT     H179310   1.533   6.448   1.392
26356WAT     H279311   1.572   6.585   1.311
26357WAT      O79312   0.044   4.915   2.291
26357WAT     H179313   0.071   4.898   2.385
26357WAT     H279314   0.052   5.013   2.271
26358WAT      O79315   1.336   4.572   0.281
26358WAT     H179316   1.263   4.568   0.349
26358WAT     H279317   1.415   4.620   0.319
26359WAT      O79318   1.420   2.146   3.832
26359WAT     H179319   1.389   2.075   3.896
26359WAT     H279320   1.472   2.103   3.758
26360WAT      O79321   2.701   7.533   4.213
26360WAT     H179322   2.756   7.502   4.135
26360WAT     H279323   2.618   7.578   4.180
26361WAT      O79324   2.245   2.259   1.643
26361WAT     H179325   2.247   2.172   1.594
26361WAT     H279326   2.338   2.288   1.664
26362WAT      O79327   6.407   7.853   7.586
26362WAT     H179328   6.335   7.901   7.536
26362WAT     H279329   6.440   7.776   7.531
26363WAT      O79330   8.625   5.595   3.322
26363WAT     H179331   8.655   5.690   3.337
26363WAT     H279332   8.525   5.591   3.323
26364WAT      O79333   5.682   5.687   0.674
26364WAT     H179334   5.738   5.615   0.715
26364WAT     H279335   5.619   5.723   0.742
26365WAT      O79336   3.753   8.737   9.526
26365WAT     H179337   3.813   8.811   9.496
26365WAT     H279338   3.701   8.767   9.607
26366WAT      O79339   9.653   0.666   5.889
26366WAT     H179340   9.554   0.666   5.874
26366WAT     H279341   9.697   0.605   5.824
26367WAT      O79342   7.111   7.240   8.840
26367WAT     H179343   7.025   7.213   8.884
26367WAT     H279344   7.145   7.324   8.883
26368WAT      O79345   8.991   7.227   2.009
26368WAT     H179346   8.946   7.161   2.068
26368WAT     H279347   8.937   7.240   1.926
26369WAT      O79348   3.368   3.468   9.750
26369WAT     H179349   3.452   3.432   9.789
26369WAT     H279350   3.324   3.529   9.816
26370WAT      O79351   3.156   3.480   0.410
26370WAT     H179352   3.174   3.503   0.506
26370WAT     H279353   3.230   3.423   0.375
26371WAT      O79354   4.491   9.263   9.838
26371WAT     H179355   4.541   9.328   9.781
26371WAT     H279356   4.461   9.308   9.922
26372WAT      O79357   9.027   8.077   1.112
26372WAT     H179358   9.019   7.990   1.161
26372WAT     H279359   8.936   8.109   1.085
26373WAT      O79360   1.072   3.125   3.085
26373WAT     H179361   1.059   3.134   3.183
26373WAT     H279362   0.993   3.166   3.038
26374WAT      O79363   6.471   8.728   4.657
26374WAT     H179364   6.502   8.662   4.727
26374WAT     H279365   6.498   8.696   4.567
26375WAT      O79366   1.905   2.389   1.295
26375WAT     H179367   1.898   2.319   1.367
26375WAT     H279368   1.814   2.421   1.270
26376WAT      O79369   7.560   9.513   2.222
26376WAT     H179370   7.624   9.464   2.281
26376WAT     H279371   7.480   9.541   2.274
26377WAT      O79372   6.198   5.218   6.520
26377WAT     H179373   6.247   5.239   6.436
26377WAT     H279374   6.247   5.258   6.598
26378WAT      O79375   4.986   7.128   1.691
26378WAT     H179376   4.900   7.178   1.689
26378WAT     H279377   4.972   7.034   1.661
26379WAT      O79378   3.631   4.055   4.734
26379WAT     H179379   3.570   4.035   4.657
26379WAT     H279380   3.675   3.970   4.764
26380WAT      O79381   1.921   7.272   8.909
26380WAT     H179382   1.945   7.366   8.882
26380WAT     H279383   1.943   7.210   8.833
26381WAT      O79384   6.519   3.685   1.527
26381WAT     H179385   6.468   3.750   1.471
26381WAT     H279386   6.455   3.629   1.579
26382WAT      O79387   0.558   0.401   0.176
26382WAT     H179388   0.506   0.329   0.222
26382WAT     H279389   0.656   0.388   0.193
26383WAT      O79390   9.812   2.482   2.265
26383WAT     H179391   9.848   2.535   2.189
26383WAT     H279392   9.756   2.407   2.230
26384WAT      O79393   0.313   2.161   1.896
26384WAT     H179394   0.382   2.203   1.956
26384WAT     H279395   0.339   2.175   1.801
26385WAT      O79396   1.811   2.999   4.638
26385WAT     H179397   1.852   2.920   4.592
26385WAT     H279398   1.718   3.014   4.603
26386WAT      O79399   9.712   9.058   7.344
26386WAT     H179400   9.674   8.992   7.409
26386WAT     H279401   9.753   9.134   7.395
26387WAT      O79402   8.006   8.001   1.151
26387WAT     H179403   7.981   7.977   1.058
26387WAT     H279404   8.018   7.917   1.205
26388WAT      O79405   9.204   5.105   8.626
26388WAT     H179406   9.115   5.060   8.627
26388WAT     H279407   9.198   5.190   8.573
26389WAT      O79408   5.546   2.159   8.193
26389WAT     H179409   5.581   2.142   8.100
26389WAT     H279410   5.488   2.083   8.221
26390WAT      O79411   4.812   6.686   6.267
26390WAT     H179412   4.807   6.590   6.236
26390WAT     H279413   4.759   6.696   6.351
26391WAT      O79414   2.674   2.653   3.709
26391WAT     H179415   2.684   2.670   3.611
26391WAT     H279416   2.628   2.565   3.723
26392WAT      O79417   9.409   8.506   4.862
26392WAT     H179418   9.498   8.470   4.889
26392WAT     H279419   9.408   8.605   4.874
26393WAT      O79420   7.052   1.708   3.556
26393WAT     H179421   7.134   1.670   3.599
26393WAT     H279422   7.042   1.671   3.463
26394WAT      O79423   6.833   5.053   4.835
26394WAT     H179424   6.927   5.076   4.858
26394WAT     H279425   6.810   4.964   4.874
26395WAT      O79426   5.982   9.705   8.644
26395WAT     H179427   6.054   9.773   8.629
26395WAT     H279428   5.898   9.751   8.671
26396WAT      O79429   2.833   3.910   7.816
26396WAT     H179430   2.814   3.983   7.751
26396WAT     H279431   2.918   3.930   7.866
26397WAT      O79432   2.081   9.798   8.761
26397WAT     H179433   1.991   9.798   8.717
26397WAT     H279434   2.076   9.747   8.847
26398WAT      O79435   4.957   5.246   8.695
26398WAT     H179436   4.977   5.243   8.793
26398WAT     H279437   4.914   5.334   8.673
26399WAT      O79438   9.851   1.645   7.640
26399WAT     H179439   9.771   1.693   7.675
26399WAT     H279440   9.878   1.685   7.552
26400WAT      O79441   0.544   2.262   2.084
26400WAT     H179442   0.619   2.196   2.094
26400WAT     H279443   0.526   2.306   2.172
26401WAT      O79444   6.277   9.118   1.420
26401WAT     H179445   6.279   9.218   1.424
26401WAT     H279446   6.276   9.081   1.513
26402WAT      O79447   6.873   9.642   5.924
26402WAT     H179448   6.774   9.650   5.912
26402WAT     H279449   6.919   9.671   5.841
26403WAT      O79450   4.241   8.223   1.837
26403WAT     H179451   4.196   8.221   1.748
26403WAT     H279452   4.319   8.284   1.834
26404WAT      O79453   0.133   8.136   1.983
26404WAT     H179454   0.103   8.054   1.934
26404WAT     H279455   0.161   8.206   1.917
26405WAT      O79456   1.038   4.800   2.303
26405WAT     H179457   1.071   4.819   2.396
26405WAT     H279458   0.977   4.874   2.274
26406WAT      O79459   7.705   1.240   8.976
26406WAT     H179460   7.652   1.246   8.892
26406WAT     H279461   7.671   1.163   9.031
26407WAT      O79462   8.419   7.987   7.230
26407WAT     H179463   8.343   7.963   7.290
26407WAT     H279464   8.485   7.912   7.227
26408WAT      O79465   7.692   7.147   7.082
26408WAT     H179466   7.789   7.120   7.083
26408WAT     H279467   7.660   7.160   7.176
26409WAT      O79468   7.765   2.698   4.242
26409WAT     H179469   7.718   2.621   4.198
26409WAT     H279470   7.861   2.698   4.213
26410WAT      O79471   5.122   8.228   8.202
26410WAT     H179472   5.182   8.308   8.194
26410WAT     H279473   5.175   8.150   8.234
26411WAT      O79474   6.104   5.687   1.050
26411WAT     H179475   6.104   5.707   1.148
26411WAT     H279476   6.147   5.598   1.035
26412WAT      O79477   4.867   4.423   5.771
26412WAT     H179478   4.913   4.335   5.773
26412WAT     H279479   4.770   4.410   5.751
26413WAT      O79480   3.544   4.409   9.133
26413WAT     H179481   3.483   4.348   9.082
26413WAT     H279482   3.493   4.453   9.207
26414WAT      O79483   9.816   2.462   8.579
26414WAT     H179484   9.869   2.413   8.648
26414WAT     H279485   9.878   2.512   8.519
26415WAT      O79486   5.393   2.757   9.095
26415WAT     H179487   5.446   2.706   9.027
26415WAT     H279488   5.444   2.760   9.181
26416WAT      O79489   3.851   5.857   3.294
26416WAT     H179490   3.887   5.942   3.333
26416WAT     H279491   3.758   5.872   3.260
26417WAT      O79492   3.374   4.906   2.235
26417WAT     H179493   3.401   4.992   2.191
26417WAT     H279494   3.381   4.831   2.169
26418WAT      O79495   1.378   9.687   0.279
26418WAT     H179496   1.442   9.694   0.203
26418WAT     H279497   1.321   9.770   0.282
26419WAT      O79498   1.179   4.569   7.090
26419WAT     H179499   1.272   4.537   7.073
26419WAT     H279500   1.123   4.493   7.122
26420WAT      O79501   3.227   1.527   2.667
26420WAT     H179502   3.245   1.575   2.753
26420WAT     H279503   3.312   1.490   2.631
26421WAT      O79504   8.252   1.989   6.685
26421WAT     H179505   8.270   2.084   6.659
26421WAT     H279506   8.336   1.936   6.672
26422WAT      O79507   0.172   3.018   4.127
26422WAT     H179508   0.079   3.017   4.164
26422WAT     H279509   0.221   2.936   4.157
26423WAT      O79510   1.686   3.619   2.987
26423WAT     H179511   1.689   3.640   2.889
26423WAT     H279512   1.618   3.677   3.031
26424WAT      O79513   6.619   5.330   6.208
26424WAT     H179514   6.540   5.363   6.259
26424WAT     H279515   6.677   5.275   6.268
26425WAT      O79516   7.182   1.528   5.671
26425WAT     H179517   7.267   1.544   5.721
26425WAT     H279518   7.201   1.477   5.587
26426WAT      O79519   7.228   8.864   2.962
26426WAT     H179520   7.197   8.959   2.963
26426WAT     H279521   7.282   8.845   3.044
26427WAT      O79522   3.684   5.177   8.379
26427WAT     H179523   3.633   5.172   8.294
26427WAT     H279524   3.759   5.243   8.370
26428WAT      O79525   3.214   9.382   0.792
26428WAT     H179526   3.177   9.339   0.875
26428WAT     H279527   3.311   9.363   0.785
26429WAT      O79528   5.548   9.101   1.147
26429WAT     H179529   5.457   9.103   1.104
26429WAT     H279530   5.556   9.021   1.205
26430WAT      O79531   3.498   9.579   7.520
26430WAT     H179532   3.570   9.524   7.478
26430WAT     H279533   3.536   9.668   7.548
26431WAT      O79534   1.356   2.669   9.739
26431WAT     H179535   1.295   2.611   9.685
26431WAT     H279536   1.447   2.628   9.740
26432WAT      O79537   9.881   7.415   7.309
26432WAT     H179538   9.836   7.326   7.293
26432WAT     H279539   9.840   7.459   7.388
26433WAT      O79540   6.375   0.327   8.689
26433WAT     H179541   6.388   0.274   8.605
26433WAT     H279542   6.416   0.418   8.677
26434WAT      O79543   5.608   7.078   6.463
26434WAT     H179544   5.649   7.167   6.487
26434WAT     H279545   5.509   7.086   6.463
26435WAT      O79546   6.278   6.134   6.900
26435WAT     H179547   6.364   6.173   6.934
26435WAT     H279548   6.287   6.114   6.803
26436WAT      O79549   5.295   0.758   9.656
26436WAT     H179550   5.302   0.825   9.583
26436WAT     H279551   5.382   0.753   9.705
26437WAT      O79552   5.002   7.728   1.828
26437WAT     H179553   5.067   7.792   1.869
26437WAT     H279554   4.913   7.771   1.818
26438WAT      O79555   0.435   5.330   0.105
26438WAT     H179556   0.397   5.238   0.088
26438WAT     H279557   0.379   5.376   0.174
26439WAT      O79558   1.156   9.598   5.677
26439WAT     H179559   1.207   9.583   5.593
26439WAT     H279560   1.062   9.566   5.665
26440WAT      O79561   4.976   6.740   0.483
26440WAT     H179562   4.899   6.709   0.538
26440WAT     H279563   5.061   6.724   0.533
26441WAT      O79564   7.878   4.523   3.777
26441WAT     H179565   7.938   4.516   3.857
26441WAT     H279566   7.787   4.490   3.801
26442WAT      O79567   3.290   4.276   5.653
26442WAT     H179568   3.290   4.270   5.554
26442WAT     H279569   3.220   4.215   5.691
26443WAT      O79570   2.117   4.430   3.293
26443WAT     H179571   2.211   4.440   3.258
26443WAT     H279572   2.106   4.486   3.375
26444WAT      O79573   3.635   0.733   6.181
26444WAT     H179574   3.656   0.681   6.263
26444WAT     H279575   3.606   0.826   6.206
26445WAT      O79576   4.970   0.025   1.272
26445WAT     H179577   5.014  -0.043   1.330
26445WAT     H279578   5.004   0.014   1.178
26446WAT      O79579   7.186   2.127   2.182
26446WAT     H179580   7.202   2.099   2.087
26446WAT     H279581   7.205   2.225   2.191
26447WAT      O79582   2.978   5.567   8.683
26447WAT     H179583   3.006   5.661   8.666
26447WAT     H279584   2.996   5.511   8.602
26448WAT      O79585   8.161   8.515   5.363
26448WAT     H179586   8.061   8.515   5.367
26448WAT     H279587   8.192   8.430   5.320
26449WAT      O79588   4.401   2.699   8.663
26449WAT     H179589   4.432   2.631   8.596
26449WAT     H279590   4.344   2.655   8.732
26450WAT      O79591   3.162   4.415   3.568
26450WAT     H179592   3.154   4.514   3.582
26450WAT     H279593   3.170   4.396   3.471
26451WAT      O79594   2.010   3.304   0.353
26451WAT     H179595   2.072   3.379   0.330
26451WAT     H279596   1.982   3.311   0.448
26452WAT      O79597   6.242   4.432   0.048
26452WAT     H179598   6.180   4.484   0.106
26452WAT     H279599   6.228   4.334   0.063
26453WAT      O79600   4.876   5.488   8.581
26453WAT     H179601   4.826   5.465   8.498
26453WAT     H279602   4.817   5.539   8.644
26454WAT      O79603   0.434   8.039   2.126
26454WAT     H179604   0.341   8.068   2.147
26454WAT     H279605   0.499   8.099   2.174
26455WAT      O79606   7.937   5.049   7.797
26455WAT     H179607   7.953   5.130   7.854
26455WAT     H279608   7.902   4.975   7.855
26456WAT      O79609   0.869   5.793   4.976
26456WAT     H179610   0.896   5.825   5.066
26456WAT     H279611   0.773   5.763   4.978
26457WAT      O79612   9.810   4.950   3.315
26457WAT     H179613   9.756   4.952   3.400
26457WAT     H279614   9.751   4.921   3.239
26458WAT      O79615   5.832   2.484   8.286
26458WAT     H179616   5.887   2.401   8.278
26458WAT     H279617   5.892   2.564   8.287
26459WAT      O79618   2.032   7.283   0.378
26459WAT     H179619   2.028   7.370   0.426
26459WAT     H279620   1.948   7.231   0.395
26460WAT      O79621   7.376   5.561   4.334
26460WAT     H179622   7.430   5.545   4.252
26460WAT     H279623   7.369   5.660   4.351
26461WAT      O79624   3.732   3.398   5.342
26461WAT     H179625   3.795   3.320   5.345
26461WAT     H279626   3.782   3.482   5.361
26462WAT      O79627   9.125   0.302   3.062
26462WAT     H179628   9.209   0.273   3.015
26462WAT     H279629   9.048   0.297   2.999
26463WAT      O79630   1.911   6.125   5.690
26463WAT     H179631   1.938   6.059   5.621
26463WAT     H279632   1.982   6.195   5.699
26464WAT      O79633   5.222   3.871   9.084
26464WAT     H179634   5.297   3.934   9.063
26464WAT     H279635   5.218   3.855   9.182
26465WAT      O79636   9.729   1.354   3.064
26465WAT     H179637   9.662   1.281   3.053
26465WAT     H279638   9.821   1.314   3.072
26466WAT      O79639   8.376   3.826   5.227
26466WAT     H179640   8.315   3.769   5.172
26466WAT     H279641   8.338   3.836   5.319
26467WAT      O79642   1.157   1.695   6.115
26467WAT     H179643   1.255   1.713   6.109
26467WAT     H279644   1.127   1.644   6.034
26468WAT      O79645   0.942   8.648   6.215
26468WAT     H179646   0.942   8.732   6.162
26468WAT     H279647   1.024   8.595   6.193
26469WAT      O79648   0.306   5.368   8.882
26469WAT     H179649   0.396   5.404   8.859
26469WAT     H279650   0.274   5.411   8.967
26470WAT      O79651   7.764   0.708   6.675
26470WAT     H179652   7.844   0.676   6.726
26470WAT     H279653   7.700   0.632   6.661
26471WAT      O79654   7.367   3.832   6.639
26471WAT     H179655   7.315   3.917   6.630
26471WAT     H279656   7.318   3.757   6.594
26472WAT      O79657   0.311   7.135   8.614
26472WAT     H179658   0.380   7.181   8.670
26472WAT     H279659   0.294   7.044   8.650
26473WAT      O79660   0.343   8.923   4.544
26473WAT     H179661   0.402   8.960   4.615
26473WAT     H279662   0.328   8.994   4.474
26474WAT      O79663   4.041   3.148   6.744
26474WAT     H179664   4.134   3.186   6.745
26474WAT     H279665   4.015   3.123   6.837
26475WAT      O79666   5.027   4.137   6.911
26475WAT     H179667   4.931   4.150   6.885
26475WAT     H279668   5.061   4.221   6.954
26476WAT      O79669   0.351   8.298   3.171
26476WAT     H179670   0.296   8.277   3.252
26476WAT     H279671   0.406   8.218   3.146
26477WAT      O79672   6.034   2.406   2.526
26477WAT     H179673   6.030   2.481   2.460
26477WAT     H279674   5.973   2.427   2.603
26478WAT      O79675   0.206   1.669   1.274
26478WAT     H179676   0.202   1.614   1.191
26478WAT     H279677   0.141   1.745   1.267
26479WAT      O79678   9.013   9.102   1.850
26479WAT     H179679   9.000   9.126   1.946
26479WAT     H279680   8.963   9.166   1.792
26480WAT      O79681   7.736   5.870   4.615
26480WAT     H179682   7.835   5.885   4.610
26480WAT     H279683   7.706   5.814   4.538
26481WAT      O79684   0.202   6.044   1.989
26481WAT     H179685   0.184   5.992   2.073
26481WAT     H279686   0.249   6.129   2.012
26482WAT      O79687   7.434   6.862   6.615
26482WAT     H179688   7.392   6.805   6.544
26482WAT     H279689   7.449   6.954   6.578
26483WAT      O79690   3.536   3.428   2.440
26483WAT     H179691   3.518   3.331   2.420
26483WAT     H279692   3.449   3.476   2.449
26484WAT      O79693   8.732   6.365   5.890
26484WAT     H179694   8.820   6.409   5.909
26484WAT     H279695   8.664   6.395   5.957
26485WAT      O79696   8.695   7.518   3.410
26485WAT     H179697   8.685   7.462   3.328
26485WAT     H279698   8.612   7.512   3.466
26486WAT      O79699   7.003   8.580   5.795
26486WAT     H179700   7.014   8.643   5.872
26486WAT     H279701   6.917   8.530   5.805
26487WAT      O79702   1.026   1.233   6.462
26487WAT     H179703   1.073   1.145   6.455
26487WAT     H279704   1.063   1.284   6.540
26488WAT      O79705   4.649   1.841   1.511
26488WAT     H179706   4.562   1.859   1.464
26488WAT     H279707   4.646   1.750   1.553
26489WAT      O79708   2.972   2.870   1.444
26489WAT     H179709   2.900   2.905   1.504
26489WAT     H279710   3.043   2.940   1.434
26490WAT      O79711   1.536   1.309   6.757
26490WAT     H179712   1.574   1.392   6.716
26490WAT     H279713   1.450   1.285   6.711
26491WAT      O79714   9.275   1.117   6.749
26491WAT     H179715   9.279   1.198   6.691
26491WAT     H279716   9.345   1.123   6.820
26492WAT      O79717   2.298   0.208   3.503
26492WAT     H179718   2.233   0.133   3.518
26492WAT     H279719   2.391   0.172   3.499
26493WAT      O79720   9.586   7.288   6.621
26493WAT     H179721   9.596   7.332   6.710
26493WAT     H279722   9.653   7.214   6.612
26494WAT      O79723   0.984   4.652   4.289
26494WAT     H179724   1.022   4.608   4.371
26494WAT     H279725   1.045   4.726   4.261
26495WAT      O79726   8.051   7.383   0.964
26495WAT     H179727   7.997   7.450   1.015
26495WAT     H279728   8.126   7.350   1.021
26496WAT      O79729   4.495   2.753   0.927
26496WAT     H179730   4.570   2.816   0.911
26496WAT     H279731   4.524   2.680   0.989
26497WAT      O79732   2.394   3.843   8.290
26497WAT     H179733   2.334   3.862   8.212
26497WAT     H279734   2.459   3.919   8.301
26498WAT      O79735   1.737   9.492   7.437
26498WAT     H179736   1.669   9.517   7.506
26498WAT     H279737   1.826   9.478   7.480
26499WAT      O79738   1.857   4.101   0.976
26499WAT     H179739   1.818   4.192   0.990
26499WAT     H279740   1.848   4.048   1.060
26500WAT      O79741   5.701   6.713   3.118
26500WAT     H179742   5.626   6.771   3.150
26500WAT     H279743   5.785   6.767   3.112
26501WAT      O79744   8.093   9.418   9.137
26501WAT     H179745   8.169   9.432   9.201
26501WAT     H279746   8.106   9.477   9.057
26502WAT      O79747   9.441   6.932   2.994
26502WAT     H179748   9.357   6.962   2.948
26502WAT     H279749   9.434   6.834   3.016
26503WAT      O79750   3.706   3.389   4.504
26503WAT     H179751   3.677   3.416   4.412
26503WAT     H279752   3.729   3.292   4.505
26504WAT      O79753   8.537   2.240   2.983
26504WAT     H179754   8.513   2.178   2.909
26504WAT     H279755   8.629   2.218   3.017
26505WAT      O79756   1.726   9.664   2.070
26505WAT     H179757   1.638   9.641   2.029
26505WAT     H279758   1.779   9.581   2.086
26506WAT      O79759   8.079   8.522   7.519
26506WAT     H179760   8.016   8.464   7.468
26506WAT     H279761   8.093   8.608   7.470
26507WAT      O79762   3.820   6.661   8.018
26507WAT     H179763   3.888   6.610   7.965
26507WAT     H279764   3.783   6.602   8.090
26508WAT      O79765   6.873   6.479   9.159
26508WAT     H179766   6.936   6.426   9.216
26508WAT     H279767   6.884   6.576   9.178
26509WAT      O79768   3.145   4.471   3.861
26509WAT     H179769   3.237   4.488   3.825
26509WAT     H279770   3.106   4.392   3.815
26510WAT      O79771   2.099   0.154   6.927
26510WAT     H179772   2.159   0.075   6.912
26510WAT     H279773   2.117   0.191   7.018
26511WAT      O79774   3.866   0.204   4.432
26511WAT     H179775   3.775   0.192   4.471
26511WAT     H279776   3.859   0.257   4.348
26512WAT      O79777   6.302   4.432   8.664
26512WAT     H179778   6.369   4.435   8.590
26512WAT     H279779   6.322   4.354   8.724
26513WAT      O79780   9.613   9.512   6.083
26513WAT     H179781   9.635   9.588   6.022
26513WAT     H279782   9.592   9.431   6.029
26514WAT      O79783   0.897   9.204   0.421
26514WAT     H179784   0.986   9.235   0.454
26514WAT     H279785   0.865   9.266   0.349
26515WAT      O79786   0.773   7.943   4.403
26515WAT     H179787   0.718   7.991   4.472
26515WAT     H279788   0.773   7.995   4.318
26516WAT      O79789   5.642   3.888   1.895
26516WAT     H179790   5.702   3.820   1.937
26516WAT     H279791   5.662   3.978   1.934
26517WAT      O79792   2.393   9.365   6.502
26517WAT     H179793   2.465   9.341   6.567
26517WAT     H279794   2.306   9.375   6.550
26518WAT      O79795   0.875   9.787   8.766
26518WAT     H179796   0.830   9.736   8.839
26518WAT     H279797   0.806   9.826   8.705
26519WAT      O79798   6.928   9.179   1.966
26519WAT     H179799   6.981   9.256   2.001
26519WAT     H279800   6.922   9.185   1.867
26520WAT      O79801   6.616   3.572   3.585
26520WAT     H179802   6.688   3.504   3.572
26520WAT     H279803   6.644   3.658   3.542
26521WAT      O79804   2.508   6.707   7.700
26521WAT     H179805   2.607   6.689   7.705
26521WAT     H279806   2.493   6.804   7.685
26522WAT      O79807   7.136   7.071   7.438
26522WAT     H179808   7.221   7.085   7.387
26522WAT     H279809   7.116   6.973   7.443
26523WAT      O79810   2.935   0.717   7.490
26523WAT     H179811   2.954   0.627   7.452
26523WAT     H279812   2.892   0.707   7.580
26524WAT      O79813   6.610   5.052   9.821
26524WAT     H179814   6.628   5.148   9.802
26524WAT     H279815   6.677   4.995   9.774
26525WAT      O79816   9.744   7.250   4.023
26525WAT     H179817   9.742   7.214   3.930
26525WAT     H279818   9.708   7.344   4.024
26526WAT      O79819   3.317   7.994   0.023
26526WAT     H179820   3.311   8.089  -0.006
26526WAT     H279821   3.230   7.964   0.061
26527WAT      O79822   8.612   7.498   6.707
26527WAT     H179823   8.604   7.447   6.621
26527WAT     H279824   8.626   7.595   6.686
26528WAT      O79825   7.095   3.642   0.601
26528WAT     H179826   7.132   3.554   0.631
26528WAT     H279827   7.020   3.626   0.537
26529WAT      O79828   8.941   2.113   0.849
26529WAT     H179829   8.918   2.196   0.900
26529WAT     H279830   8.910   2.123   0.754
26530WAT      O79831   6.453   7.636   7.418
26530WAT     H179832   6.534   7.577   7.416
26530WAT     H279833   6.408   7.633   7.328
26531WAT      O79834   5.456   2.599   5.407
26531WAT     H179835   5.422   2.512   5.372
26531WAT     H279836   5.483   2.588   5.503
26532WAT      O79837   5.569   2.413   0.526
26532WAT     H179838   5.528   2.441   0.439
26532WAT     H279839   5.527   2.328   0.558
26533WAT      O79840   3.973   6.146   8.698
26533WAT     H179841   4.005   6.237   8.672
26533WAT     H279842   3.961   6.142   8.797
26534WAT      O79843   7.536   4.862   7.618
26534WAT     H179844   7.534   4.957   7.584
26534WAT     H279845   7.526   4.799   7.541
26535WAT      O79846   5.069   2.003   3.415
26535WAT     H179847   5.039   1.975   3.506
26535WAT     H279848   5.010   2.076   3.381
26536WAT      O79849   3.590   5.576   9.481
26536WAT     H179850   3.520   5.642   9.454
26536WAT     H279851   3.594   5.502   9.414
26537WAT      O79852   0.515   4.557   3.167
26537WAT     H179853   0.544   4.509   3.250
26537WAT     H279854   0.570   4.639   3.155
26538WAT      O79855   2.918   8.375   9.678
26538WAT     H179856   2.947   8.468   9.702
26538WAT     H279857   2.998   8.322   9.648
26539WAT      O79858   6.022   5.631   5.941
26539WAT     H179859   6.078   5.713   5.944
26539WAT     H279860   6.039   5.576   6.023
26540WAT      O79861   0.846   4.874   4.425
26540WAT     H179862   0.930   4.928   4.415
26540WAT     H279863   0.871   4.778   4.438
26541WAT      O79864   0.618   1.043   2.495
26541WAT     H179865   0.571   1.003   2.574
26541WAT     H279866   0.578   1.132   2.474
26542WAT      O79867   3.612   2.936   5.474
26542WAT     H179868   3.626   2.864   5.542
26542WAT     H279869   3.555   2.901   5.400
26543WAT      O79870   2.027   0.055   0.617
26543WAT     H179871   2.009   0.023   0.710
26543WAT     H279872   1.941   0.086   0.576
26544WAT      O79873   7.905   3.189   4.791
26544WAT     H179874   7.878   3.164   4.884
26544WAT     H279875   7.972   3.263   4.794
26545WAT      O79876   6.447   7.792   0.535
26545WAT     H179877   6.469   7.836   0.448
26545WAT     H279878   6.354   7.755   0.532
26546WAT      O79879   6.198   3.267   1.109
26546WAT     H179880   6.275   3.231   1.162
26546WAT     H279881   6.155   3.341   1.161
26547WAT      O79882   2.747   9.486   5.307
26547WAT     H179883   2.787   9.578   5.298
26547WAT     H279884   2.806   9.429   5.364
26548WAT      O79885   6.489   5.584   0.517
26548WAT     H179886   6.554   5.625   0.580
26548WAT     H279887   6.409   5.644   0.507
26549WAT      O79888   2.724   5.381   3.001
26549WAT     H179889   2.727   5.323   3.082
26549WAT     H279890   2.697   5.327   2.921
26550WAT      O79891   5.187   8.742   0.466
26550WAT     H179892   5.144   8.666   0.514
26550WAT     H279893   5.279   8.756   0.502
26551WAT      O79894   6.947   7.112   6.090
26551WAT     H179895   6.848   7.126   6.093
26551WAT     H279896   6.967   7.014   6.100
26552WAT      O79897   0.203   0.631   7.694
26552WAT     H179898   0.250   0.583   7.620
26552WAT     H279899   0.146   0.566   7.745
26553WAT      O79900   0.079   4.378   4.221
26553WAT     H179901   0.054   4.420   4.308
26553WAT     H279902   0.028   4.421   4.147
26554WAT      O79903   9.707   2.745   9.187
26554WAT     H179904   9.697   2.786   9.096
26554WAT     H279905   9.672   2.652   9.185
26555WAT      O79906   3.578   5.115   0.082
26555WAT     H179907   3.600   5.206   0.047
26555WAT     H279908   3.640   5.047   0.042
26556WAT      O79909   8.102   8.067   2.175
26556WAT     H179910   8.145   8.015   2.249
26556WAT     H279911   8.008   8.036   2.163
26557WAT      O79912   1.410   0.746   9.487
26557WAT     H179913   1.426   0.726   9.390
26557WAT     H279914   1.449   0.835   9.509
26558WAT      O79915   5.612   6.083   6.398
26558WAT     H179916   5.664   6.015   6.348
26558WAT     H279917   5.520   6.090   6.359
26559WAT      O79918   3.415   0.733   8.195
26559WAT     H179919   3.442   0.829   8.195
26559WAT     H279920   3.461   0.685   8.120
26560WAT      O79921   3.125   8.461   1.228
26560WAT     H179922   3.160   8.509   1.148
26560WAT     H279923   3.029   8.484   1.242
26561WAT      O79924   4.319   9.215   1.824
26561WAT     H179925   4.418   9.200   1.824
26561WAT     H279926   4.273   9.137   1.867
26562WAT      O79927   0.892   4.961   6.960
26562WAT     H179928   0.951   5.041   6.946
26562WAT     H279929   0.818   4.963   6.894
26563WAT      O79930   6.069   8.378   5.370
26563WAT     H179931   6.074   8.439   5.291
26563WAT     H279932   6.157   8.377   5.417
26564WAT      O79933   1.766   0.371   4.508
26564WAT     H179934   1.668   0.350   4.514
26564WAT     H279935   1.814   0.324   4.582
26565WAT      O79936   5.464   2.797   4.445
26565WAT     H179937   5.389   2.737   4.417
26565WAT     H279938   5.531   2.803   4.371
26566WAT      O79939   3.040   3.637   7.977
26566WAT     H179940   2.990   3.717   7.945
26566WAT     H279941   2.995   3.599   8.058
26567WAT      O79942   3.061   4.068   6.618
26567WAT     H179943   2.978   4.122   6.605
26567WAT     H279944   3.141   4.127   6.611
26568WAT      O79945   6.180   2.008   7.177
26568WAT     H179946   6.203   1.984   7.271
26568WAT     H279947   6.187   2.108   7.165
26569WAT      O79948   6.841   5.690   2.531
26569WAT     H179949   6.924   5.729   2.572
26569WAT     H279950   6.805   5.619   2.590
26570WAT      O79951   9.686   3.570   9.242
26570WAT     H179952   9.748   3.594   9.317
26570WAT     H279953   9.680   3.647   9.178
26571WAT      O79954   0.203   7.254   8.382
26571WAT     H179955   0.247   7.207   8.459
26571WAT     H279956   0.207   7.353   8.396
26572WAT      O79957   2.439   8.534   4.648
26572WAT     H179958   2.365   8.483   4.603
26572WAT     H279959   2.406   8.568   4.737
26573WAT      O79960   9.325   6.889   5.637
26573WAT     H179961   9.416   6.897   5.597
26573WAT     H279962   9.262   6.851   5.570
26574WAT      O79963   0.426   8.359   6.098
26574WAT     H179964   0.471   8.416   6.028
26574WAT     H279965   0.381   8.282   6.054
26575WAT      O79966   4.886   0.376   7.622
26575WAT     H179967   4.835   0.292   7.601
26575WAT     H279968   4.833   0.455   7.591
26576WAT      O79969   0.328   9.282   4.055
26576WAT     H179970   0.421   9.317   4.058
26576WAT     H279971   0.264   9.356   4.078
26577WAT      O79972   5.103   1.832   8.407
26577WAT     H179973   5.189   1.883   8.402
26577WAT     H279974   5.052   1.860   8.488
26578WAT      O79975   7.639   8.180   0.075
26578WAT     H179976   7.612   8.177  -0.021
26578WAT     H279977   7.737   8.200   0.082
26579WAT      O79978   7.279   8.753   2.281
26579WAT     H179979   7.243   8.844   2.261
26579WAT     H279980   7.210   8.700   2.330
26580WAT      O79981   4.200   3.280   2.695
26580WAT     H179982   4.119   3.338   2.689
26580WAT     H279983   4.178   3.188   2.662
26581WAT      O79984   2.273   8.747   0.404
26581WAT     H179985   2.211   8.673   0.430
26581WAT     H279986   2.332   8.770   0.481
26582WAT      O79987   2.351   9.670   8.600
26582WAT     H179988   2.388   9.751   8.554
26582WAT     H279989   2.307   9.698   8.686
26583WAT      O79990   7.522   7.331   5.072
26583WAT     H179991   7.567   7.243   5.085
26583WAT     H279992   7.433   7.330   5.118
26584WAT      O79993   8.281   3.602   5.883
26584WAT     H179994   8.261   3.668   5.954
26584WAT     H279995   8.375   3.569   5.893
26585WAT      O79996   2.127   0.406   7.174
26585WAT     H179997   2.159   0.367   7.260
26585WAT     H279998   2.027   0.405   7.172
26586WAT      O79999   4.931   5.707   0.747
26586WAT     H180000   4.960   5.670   0.659
26586WAT     H280001   4.842   5.668   0.772
26587WAT      O80002   6.091   0.319   7.199
26587WAT     H180003   6.119   0.258   7.125
26587WAT     H280004   6.025   0.386   7.164
26588WAT      O80005   6.330   2.887   9.431
26588WAT     H180006   6.302   2.971   9.384
26588WAT     H280007   6.420   2.901   9.472
26589WAT      O80008   7.907   0.916   7.230
26589WAT     H180009   7.876   0.954   7.143
26589WAT     H280010   7.876   0.976   7.305
26590WAT      O80011   1.785   9.188   5.068
26590WAT     H180012   1.842   9.197   4.987
26590WAT     H280013   1.827   9.237   5.144
26591WAT      O80014   4.165   5.920   9.762
26591WAT     H180015   4.146   5.879   9.851
26591WAT     H280016   4.207   6.010   9.774
26592WAT      O80017   2.182   0.601   4.338
26592WAT     H180018   2.100   0.605   4.395
26592WAT     H280019   2.222   0.692   4.329
26593WAT      O80020   7.985   9.354   5.524
26593WAT     H180021   7.964   9.297   5.604
26593WAT     H280022   8.057   9.419   5.548
26594WAT      O80023   5.614   0.585   4.676
26594WAT     H180024   5.713   0.572   4.685
26594WAT     H280025   5.566   0.513   4.727
26595WAT      O80026   6.782   7.769   1.124
26595WAT     H180027   6.752   7.795   1.216
26595WAT     H280028   6.872   7.726   1.131
26596WAT      O80029   5.251   4.741   8.921
26596WAT     H180030   5.199   4.822   8.892
26596WAT     H280031   5.280   4.690   8.840
26597WAT      O80032   5.861   5.517   0.842
26597WAT     H180033   5.835   5.428   0.805
26597WAT     H280034   5.959   5.516   0.862
26598WAT      O80035   8.287   3.290   1.945
26598WAT     H180036   8.199   3.296   1.992
26598WAT     H280037   8.295   3.202   1.899
26599WAT      O80038   2.101   1.931   4.330
26599WAT     H180039   2.188   1.933   4.379
26599WAT     H280040   2.043   1.858   4.367
26600WAT      O80041   5.271   9.460   8.798
26600WAT     H180042   5.178   9.452   8.761
26600WAT     H280043   5.328   9.387   8.761
26601WAT      O80044   5.784   9.674   0.201
26601WAT     H180045   5.786   9.661   0.102
26601WAT     H280046   5.716   9.744   0.224
26602WAT      O80047   2.239   4.128   4.936
26602WAT     H180048   2.298   4.057   4.898
26602WAT     H280049   2.294   4.191   4.992
26603WAT      O80050   9.827   1.106   8.253
26603WAT     H180051   9.752   1.074   8.196
26603WAT     H280052   9.806   1.197   8.288
26604WAT      O80053   8.680   2.709   2.460
26604WAT     H180054   8.621   2.763   2.401
26604WAT     H280055   8.641   2.705   2.552
26605WAT      O80056   2.309   8.916   7.852
26605WAT     H180057   2.374   8.926   7.777
26605WAT     H280058   2.299   9.004   7.899
26606WAT      O80059   4.528   6.878   9.875
26606WAT     H180060   4.583   6.961   9.872
26606WAT     H280061   4.489   6.861   9.784
26607WAT      O80062   4.106   6.329   9.669
26607WAT     H180063   4.052   6.339   9.752
26607WAT     H280064   4.157   6.413   9.652
26608WAT      O80065   1.993   9.275   4.040
26608WAT     H180066   2.014   9.264   3.943
26608WAT     H280067   1.895   9.289   4.052
26609WAT      O80068   4.770   5.164   6.183
26609WAT     H180069   4.772   5.138   6.279
26609WAT     H280070   4.792   5.261   6.174
26610WAT      O80071   2.195   0.843   0.873
26610WAT     H180072   2.125   0.889   0.928
26610WAT     H280073   2.241   0.774   0.929
26611WAT      O80074   9.780   9.835   5.472
26611WAT     H180075   9.772   9.747   5.520
26611WAT     H280076   9.705   9.895   5.500
26612WAT      O80077   4.441   5.086   1.248
26612WAT     H180078   4.424   5.170   1.197
26612WAT     H280079   4.354   5.049   1.282
26613WAT      O80080   0.264   6.693   9.611
26613WAT     H180081   0.212   6.650   9.684
26613WAT     H280082   0.276   6.629   9.536
26614WAT      O80083   6.637   2.485   2.898
26614WAT     H180084   6.733   2.457   2.887
26614WAT     H280085   6.622   2.513   2.993
26615WAT      O80086   5.744   4.095   3.806
26615WAT     H180087   5.744   4.187   3.844
26615WAT     H280088   5.676   4.089   3.733
26616WAT      O80089   0.248   0.251   5.009
26616WAT     H180090   0.287   0.342   4.996
26616WAT     H280091   0.163   0.243   4.958
26617WAT      O80092   5.941   2.338   3.244
26617WAT     H180093   5.908   2.407   3.180
26617WAT     H280094   5.942   2.376   3.336
26618WAT      O80095   4.693   3.791   4.625
26618WAT     H180096   4.650   3.808   4.536
26618WAT     H280097   4.681   3.695   4.649
26619WAT      O80098   6.669   0.529   6.946
26619WAT     H180099   6.605   0.594   6.906
26619WAT     H280100   6.730   0.493   6.875
26620WAT      O80101   0.499   2.770   7.829
26620WAT     H180102   0.415   2.728   7.863
26620WAT     H280103   0.578   2.732   7.877
26621WAT      O80104   0.317   0.512   7.476
26621WAT     H180105   0.369   0.430   7.501
26621WAT     H280106   0.232   0.485   7.431
26622WAT      O80107   6.846   7.179   3.743
26622WAT     H180108   6.796   7.220   3.666
26622WAT     H280109   6.836   7.080   3.739
26623WAT      O80110   7.530   7.826   6.590
26623WAT     H180111   7.450   7.791   6.542
26623WAT     H280112   7.510   7.833   6.688
26624WAT      O80113   2.915   7.985   0.317
26624WAT     H180114   2.945   8.002   0.223
26624WAT     H280115   2.861   7.901   0.321
26625WAT      O80116   9.132   7.503   6.212
26625WAT     H180117   9.066   7.578   6.215
26625WAT     H280118   9.083   7.416   6.204
26626WAT      O80119   5.132   7.829   2.938
26626WAT     H180120   5.223   7.864   2.962
26626WAT     H280121   5.104   7.866   2.849
26627WAT      O80122   3.286   8.275   8.898
26627WAT     H180123   3.315   8.351   8.840
26627WAT     H280124   3.366   8.234   8.942
26628WAT      O80125   6.306   0.351   9.619
26628WAT     H180126   6.309   0.416   9.543
26628WAT     H280127   6.266   0.396   9.699
26629WAT      O80128   2.799   3.102   3.752
26629WAT     H180129   2.864   3.039   3.795
26629WAT     H280130   2.710   3.094   3.797
26630WAT      O80131   8.102   5.231   3.620
26630WAT     H180132   8.111   5.210   3.523
26630WAT     H280133   8.166   5.174   3.672
26631WAT      O80134   3.711   3.485   6.558
26631WAT     H180135   3.680   3.439   6.475
26631WAT     H280136   3.651   3.562   6.578
26632WAT      O80137   1.804   4.754   5.647
26632WAT     H180138   1.735   4.768   5.718
26632WAT     H280139   1.875   4.824   5.656
26633WAT      O80140   8.320   5.882   3.300
26633WAT     H180141   8.225   5.909   3.318
26633WAT     H280142   8.336   5.791   3.338
26634WAT      O80143   1.930   5.852   7.041
26634WAT     H180144   1.843   5.803   7.036
26634WAT     H280145   1.951   5.873   7.136
26635WAT      O80146   7.197   4.677   1.206
26635WAT     H180147   7.221   4.740   1.132
26635WAT     H280148   7.104   4.695   1.237
26636WAT      O80149   5.500   7.835   9.787
26636WAT     H180150   5.588   7.786   9.780
26636WAT     H280151   5.451   7.827   9.700
26637WAT      O80152   9.216   5.059   4.633
26637WAT     H180153   9.216   5.151   4.673
26637WAT     H280154   9.192   5.065   4.536
26638WAT      O80155   0.118   4.244   9.321
26638WAT     H180156   0.171   4.196   9.392
26638WAT     H280157   0.125   4.193   9.235
26639WAT      O80158   0.540   0.892   3.380
26639WAT     H180159   0.582   0.815   3.333
26639WAT     H280160   0.594   0.975   3.362
26640WAT      O80161   5.441   3.194   9.200
26640WAT     H180162   5.341   3.195   9.193
26640WAT     H280163   5.468   3.148   9.285
26641WAT      O80164   0.944   6.900   3.938
26641WAT     H180165   0.948   6.880   4.036
26641WAT     H280166   0.983   6.823   3.887
26642WAT      O80167   6.036   2.576   5.103
26642WAT     H180168   6.001   2.663   5.137
26642WAT     H280169   6.028   2.572   5.004
26643WAT      O80170   0.430   2.323   0.450
26643WAT     H180171   0.409   2.270   0.368
26643WAT     H280172   0.514   2.376   0.435
26644WAT      O80173   4.332   6.697   6.270
26644WAT     H180174   4.363   6.716   6.363
26644WAT     H280175   4.380   6.617   6.234
26645WAT      O80176   0.366   1.694   4.399
26645WAT     H180177   0.271   1.712   4.425
26645WAT     H280178   0.389   1.747   4.317
26646WAT      O80179   2.511   3.035   4.507
26646WAT     H180180   2.529   3.117   4.452
26646WAT     H280181   2.457   3.060   4.587
26647WAT      O80182   6.050   8.101   3.462
26647WAT     H180183   6.027   8.154   3.544
26647WAT     H280184   6.149   8.102   3.448
26648WAT      O80185   6.738   6.814   7.177
26648WAT     H180186   6.826   6.857   7.197
26648WAT     H280187   6.684   6.807   7.261
26649WAT      O80188   6.465   9.238   3.902
26649WAT     H180189   6.368   9.264   3.894
26649WAT     H280190   6.508   9.291   3.974
26650WAT      O80191   5.315   8.472   1.533
26650WAT     H180192   5.401   8.521   1.517
26650WAT     H280193   5.247   8.533   1.572
26651WAT      O80194   6.565   6.744   6.942
26651WAT     H180195   6.588   6.685   7.019
26651WAT     H280196   6.620   6.827   6.946
26652WAT      O80197   1.920   3.586   5.874
26652WAT     H180198   1.882   3.571   5.965
26652WAT     H280199   2.003   3.532   5.862
26653WAT      O80200   8.729   9.706   8.107
26653WAT     H180201   8.708   9.731   8.012
26653WAT     H280202   8.648   9.720   8.164
26654WAT      O80203   2.966   7.069   0.213
26654WAT     H180204   3.058   7.093   0.182
26654WAT     H280205   2.954   7.102   0.307
26655WAT      O80206   8.532   3.663   3.607
26655WAT     H180207   8.477   3.623   3.534
26655WAT     H280208   8.522   3.763   3.605
26656WAT      O80209   6.560   0.808   3.793
26656WAT     H180210   6.530   0.713   3.796
26656WAT     H280211   6.597   0.834   3.882
26657WAT      O80212   8.677   6.658   3.368
26657WAT     H180213   8.638   6.742   3.330
26657WAT     H280214   8.609   6.611   3.425
26658WAT      O80215   3.645   6.406   9.777
26658WAT     H180216   3.695   6.328   9.739
26658WAT     H280217   3.580   6.440   9.710
26659WAT      O80218   8.870   6.465   3.674
26659WAT     H180219   8.917   6.501   3.593
26659WAT     H280220   8.922   6.389   3.712
26660WAT      O80221   9.300   4.856   7.091
26660WAT     H180222   9.400   4.858   7.085
26660WAT     H280223   9.272   4.884   7.183
26661WAT      O80224   8.946   0.750   9.025
26661WAT     H180225   8.878   0.684   9.056
26661WAT     H280226   9.021   0.702   8.979
26662WAT      O80227   4.895   4.774   2.988
26662WAT     H180228   4.952   4.779   3.070
26662WAT     H280229   4.871   4.867   2.959
26663WAT      O80230   4.028   6.757   6.847
26663WAT     H180231   4.011   6.677   6.906
26663WAT     H280232   4.035   6.727   6.752
26664WAT      O80233   4.667   3.090   5.840
26664WAT     H180234   4.628   3.183   5.838
26664WAT     H280235   4.649   3.048   5.929
26665WAT      O80236   7.330   0.382   7.546
26665WAT     H180237   7.258   0.447   7.522
26665WAT     H280238   7.418   0.419   7.518
26666WAT      O80239   0.961   6.589   3.245
26666WAT     H180240   0.918   6.505   3.278
26666WAT     H280241   0.992   6.643   3.323
26667WAT      O80242   5.939   9.196   1.197
26667WAT     H180243   5.864   9.224   1.137
26667WAT     H280244   5.905   9.178   1.289
26668WAT      O80245   5.274   1.758   9.626
26668WAT     H180246   5.211   1.795   9.693
26668WAT     H280247   5.357   1.814   9.622
26669WAT      O80248   2.430   1.874   7.277
26669WAT     H180249   2.399   1.897   7.369
26669WAT     H280250   2.351   1.855   7.219
26670WAT      O80251   8.858   9.618   1.921
26670WAT     H180252   8.943   9.609   1.973
26670WAT     H280253   8.822   9.527   1.900
26671WAT      O80254   7.537   7.647   1.865
26671WAT     H180255   7.548   7.626   1.768
26671WAT     H280256   7.497   7.738   1.875
26672WAT      O80257   7.724   5.950   0.212
26672WAT     H180258   7.696   5.923   0.121
26672WAT     H280259   7.820   5.926   0.226
26673WAT      O80260   5.170   9.088   2.776
26673WAT     H180261   5.094   9.147   2.802
26673WAT     H280262   5.231   9.075   2.854
26674WAT      O80263   5.470   1.298   0.840
26674WAT     H180264   5.495   1.205   0.813
26674WAT     H280265   5.370   1.305   0.847
26675WAT      O80266   1.133   5.932   6.710
26675WAT     H180267   1.100   5.923   6.804
26675WAT     H280268   1.177   6.021   6.699
26676WAT      O80269   2.358   4.802   6.865
26676WAT     H180270   2.389   4.852   6.784
26676WAT     H280271   2.316   4.867   6.929
26677WAT      O80272   2.260   7.968   4.462
26677WAT     H180273   2.324   7.923   4.525
26677WAT     H280274   2.293   7.957   4.368
26678WAT      O80275   3.886   7.655   0.905
26678WAT     H180276   3.913   7.560   0.915
26678WAT     H280277   3.868   7.694   0.995
26679WAT      O80278   2.904   9.485   1.921
26679WAT     H180279   2.808   9.467   1.944
26679WAT     H280280   2.926   9.443   1.833
26680WAT      O80281   0.936   3.769   4.246
26680WAT     H180282   0.847   3.811   4.263
26680WAT     H280283   0.924   3.672   4.226
26681WAT      O80284   4.218   6.143   4.870
26681WAT     H180285   4.233   6.209   4.796
26681WAT     H280286   4.303   6.093   4.888
26682WAT      O80287   4.179   4.219   2.251
26682WAT     H180288   4.086   4.193   2.277
26682WAT     H280289   4.228   4.253   2.332
26683WAT      O80290   2.521   9.789   9.045
26683WAT     H180291   2.451   9.793   8.974
26683WAT     H280292   2.478   9.784   9.135
26684WAT      O80293   0.246   2.521   1.443
26684WAT     H180294   0.253   2.601   1.503
26684WAT     H280295   0.194   2.546   1.361
26685WAT      O80296   7.258   3.034   6.874
26685WAT     H180297   7.318   2.984   6.812
26685WAT     H280298   7.173   2.983   6.886
26686WAT      O80299   0.964   0.212   7.557
26686WAT     H180300   0.988   0.247   7.648
26686WAT     H280301   0.870   0.238   7.535
26687WAT      O80302   4.692   1.906   9.335
26687WAT     H180303   4.598   1.886   9.365
26687WAT     H280304   4.753   1.905   9.414
26688WAT      O80305   3.984   2.787   1.443
26688WAT     H180306   4.042   2.740   1.376
26688WAT     H280307   4.036   2.862   1.485
26689WAT      O80308   3.495   4.867   7.574
26689WAT     H180309   3.536   4.786   7.616
26689WAT     H280310   3.402   4.845   7.544
26690WAT      O80311   6.256   3.356   8.391
26690WAT     H180312   6.345   3.341   8.346
26690WAT     H280313   6.234   3.454   8.389
26691WAT      O80314   3.331   6.274   5.077
26691WAT     H180315   3.324   6.309   4.983
26691WAT     H280316   3.327   6.174   5.075
26692WAT      O80317   5.868   3.609   6.019
26692WAT     H180318   5.803   3.586   6.092
26692WAT     H280319   5.955   3.637   6.059
26693WAT      O80320   0.286   1.554   1.632
26693WAT     H180321   0.269   1.499   1.550
26693WAT     H280322   0.279   1.496   1.713
26694WAT      O80323   9.605   1.797   1.021
26694WAT     H180324   9.573   1.878   1.070
26694WAT     H280325   9.705   1.799   1.016
26695WAT      O80326   0.947   6.973   4.229
26695WAT     H180327   0.854   6.978   4.265
26695WAT     H280328   0.992   7.062   4.239
26696WAT      O80329   2.202   3.133   2.103
26696WAT     H180330   2.295   3.113   2.071
26696WAT     H280331   2.146   3.166   2.027
26697WAT      O80332   0.179   2.539   7.014
26697WAT     H180333   0.263   2.568   7.059
26697WAT     H280334   0.105   2.536   7.081
26698WAT      O80335   9.647   1.074   4.921
26698WAT     H180336   9.604   1.040   4.837
26698WAT     H280337   9.743   1.045   4.923
26699WAT      O80338   2.118   2.128   0.266
26699WAT     H180339   2.081   2.035   0.269
26699WAT     H280340   2.202   2.132   0.322
26700WAT      O80341   2.528   8.924   6.027
26700WAT     H180342   2.565   8.883   6.110
26700WAT     H280343   2.474   8.856   5.977
26701WAT      O80344   3.226   2.744   3.829
26701WAT     H180345   3.143   2.705   3.790
26701WAT     H280346   3.239   2.710   3.922
26702WAT      O80347   7.861   4.996   3.140
26702WAT     H180348   7.822   4.941   3.067
26702WAT     H280349   7.924   5.063   3.101
26703WAT      O80350   2.321   0.672   7.282
26703WAT     H180351   2.301   0.585   7.237
26703WAT     H280352   2.317   0.660   7.381
26704WAT      O80353   7.403   6.530   3.154
26704WAT     H180354   7.454   6.551   3.070
26704WAT     H280355   7.336   6.602   3.171
26705WAT      O80356   3.721   9.194   5.840
26705WAT     H180357   3.672   9.124   5.893
26705WAT     H280358   3.703   9.284   5.880
26706WAT      O80359   7.447   6.660   5.001
26706WAT     H180360   7.394   6.647   5.085
26706WAT     H280361   7.396   6.624   4.923
26707WAT      O80362   0.298   0.661   6.548
26707WAT     H180363   0.257   0.570   6.560
26707WAT     H280364   0.346   0.687   6.631
26708WAT      O80365   2.297   2.555   7.048
26708WAT     H180366   2.380   2.572   6.994
26708WAT     H280367   2.278   2.457   7.049
26709WAT      O80368   4.829   6.837   5.817
26709WAT     H180369   4.787   6.797   5.735
26709WAT     H280370   4.833   6.937   5.807
26710WAT      O80371   7.466   7.444   0.579
26710WAT     H180372   7.375   7.426   0.615
26710WAT     H280373   7.519   7.359   0.579
26711WAT      O80374   6.716   6.277   4.216
26711WAT     H180375   6.797   6.335   4.208
26711WAT     H280376   6.717   6.208   4.143
26712WAT      O80377   1.661   6.325   0.365
26712WAT     H180378   1.648   6.411   0.317
26712WAT     H280379   1.757   6.317   0.393
26713WAT      O80380   0.004   5.387   0.580
26713WAT     H180381  -0.012   5.291   0.556
26713WAT     H280382  -0.007   5.444   0.498
26714WAT      O80383   3.909   8.562   7.309
26714WAT     H180384   3.865   8.645   7.274
26714WAT     H280385   3.852   8.483   7.287
26715WAT      O80386   1.589   2.968   4.208
26715WAT     H180387   1.670   2.952   4.264
26715WAT     H280388   1.592   2.909   4.127
26716WAT      O80389   8.425   3.150   8.881
26716WAT     H180390   8.493   3.078   8.894
26716WAT     H280391   8.386   3.174   8.970
26717WAT      O80392   9.249   8.440   9.420
26717WAT     H180393   9.330   8.392   9.387
26717WAT     H280394   9.217   8.397   9.505
26718WAT      O80395   0.638   3.240   4.754
26718WAT     H180396   0.593   3.151   4.747
26718WAT     H280397   0.600   3.302   4.687
26719WAT      O80398   0.745   0.090   7.830
26719WAT     H180399   0.701   0.084   7.740
26719WAT     H280400   0.695   0.155   7.887
26720WAT      O80401   4.346   3.794   8.252
26720WAT     H180402   4.357   3.893   8.263
26720WAT     H280403   4.435   3.752   8.232
26721WAT      O80404   4.627   6.884   3.532
26721WAT     H180405   4.668   6.975   3.538
26721WAT     H280406   4.536   6.892   3.491
26722WAT      O80407   1.588   5.264   5.288
26722WAT     H180408   1.640   5.309   5.361
26722WAT     H280409   1.517   5.206   5.329
26723WAT      O80410   6.344   8.767   5.782
26723WAT     H180411   6.439   8.739   5.790
26723WAT     H280412   6.295   8.702   5.724
26724WAT      O80413   8.422   5.299   7.060
26724WAT     H180414   8.398   5.383   7.011
26724WAT     H280415   8.446   5.322   7.154
26725WAT      O80416   0.567   5.742   1.997
26725WAT     H180417   0.496   5.694   1.945
26725WAT     H280418   0.539   5.749   2.093
26726WAT      O80419   0.254   0.560   2.201
26726WAT     H180420   0.310   0.637   2.233
26726WAT     H280421   0.285   0.531   2.111
26727WAT      O80422   5.343   8.445   0.656
26727WAT     H180423   5.377   8.353   0.634
26727WAT     H280424   5.412   8.493   0.711
26728WAT      O80425   8.538   4.540   6.885
26728WAT     H180426   8.501   4.632   6.892
26728WAT     H280427   8.468   4.473   6.911
26729WAT      O80428   2.584   1.369   2.598
26729WAT     H180429   2.566   1.421   2.681
26729WAT     H280430   2.658   1.412   2.546
26730WAT      O80431   5.622   7.125   7.318
26730WAT     H180432   5.606   7.106   7.221
26730WAT     H280433   5.638   7.040   7.367
26731WAT      O80434   1.195   5.705   6.233
26731WAT     H180435   1.166   5.623   6.185
26731WAT     H280436   1.212   5.778   6.167
26732WAT      O80437   6.266   7.079   9.527
26732WAT     H180438   6.252   7.091   9.625
26732WAT     H280439   6.221   7.153   9.477
26733WAT      O80440   2.209   6.922   6.690
26733WAT     H180441   2.142   6.991   6.666
26733WAT     H280442   2.171   6.861   6.759
26734WAT      O80443   7.332   6.549   4.769
26734WAT     H180444   7.234   6.533   4.760
26734WAT     H280445   7.382   6.470   4.736
26735WAT      O80446   4.844   1.824   4.375
26735WAT     H180447   4.860   1.904   4.317
26735WAT     H280448   4.778   1.763   4.331
26736WAT      O80449   5.606   7.664   2.780
26736WAT     H180450   5.680   7.661   2.848
26736WAT     H280451   5.645   7.663   2.688
26737WAT      O80452   6.623   9.123   9.656
26737WAT     H180453   6.525   9.105   9.653
26737WAT     H280454   6.673   9.045   9.621
26738WAT      O80455   5.864   5.572   1.587
26738WAT     H180456   5.907   5.486   1.616
26738WAT     H280457   5.765   5.565   1.600
26739WAT      O80458   4.794   0.367   4.084
26739WAT     H180459   4.842   0.319   4.157
26739WAT     H280460   4.699   0.385   4.112
26740WAT      O80461   1.313   4.970   3.717
26740WAT     H180462   1.381   5.038   3.690
26740WAT     H280463   1.350   4.879   3.701
26741WAT      O80464   3.817   5.264   7.957
26741WAT     H180465   3.869   5.224   7.881
26741WAT     H280466   3.878   5.317   8.015
26742WAT      O80467   2.738   8.051   4.582
26742WAT     H180468   2.712   8.101   4.664
26742WAT     H280469   2.812   8.099   4.536
26743WAT      O80470   7.450   2.881   1.831
26743WAT     H180471   7.507   2.808   1.794
26743WAT     H280472   7.483   2.907   1.922
26744WAT      O80473   8.501   2.027   2.826
26744WAT     H180474   8.449   1.980   2.754
26744WAT     H280475   8.596   2.040   2.795
26745WAT      O80476   2.944   2.383   7.380
26745WAT     H180477   2.912   2.476   7.397
26745WAT     H280478   2.995   2.380   7.294
26746WAT      O80479   9.598   4.859   2.368
26746WAT     H180480   9.519   4.858   2.306
26746WAT     H280481   9.634   4.766   2.377
26747WAT      O80482   0.580   4.976   1.530
26747WAT     H180483   0.584   4.985   1.431
26747WAT     H280484   0.632   5.051   1.573
26748WAT      O80485   4.153   1.820   4.019
26748WAT     H180486   4.062   1.814   3.977
26748WAT     H280487   4.154   1.894   4.085
26749WAT      O80488   3.662   9.084   2.269
26749WAT     H180489   3.619   9.167   2.234
26749WAT     H280490   3.659   9.012   2.200
26750WAT      O80491   0.385   7.035   7.612
26750WAT     H180492   0.458   6.966   7.606
26750WAT     H280493   0.396   7.088   7.696
26751WAT      O80494   4.432  -0.002   6.244
26751WAT     H180495   4.511   0.028   6.192
26751WAT     H280496   4.436   0.037   6.336
26752WAT      O80497   8.592   6.616   0.533
26752WAT     H180498   8.685   6.638   0.561
26752WAT     H280499   8.532   6.617   0.613
26753WAT      O80500   2.591   6.220   2.037
26753WAT     H180501   2.667   6.274   2.000
26753WAT     H280502   2.510   6.232   1.979
26754WAT      O80503   3.525   8.748   8.397
26754WAT     H180504   3.484   8.839   8.410
26754WAT     H280505   3.615   8.758   8.354
26755WAT      O80506   3.539   2.539   3.462
26755WAT     H180507   3.460   2.545   3.402
26755WAT     H280508   3.509   2.520   3.555
26756WAT      O80509   3.858   0.328   3.822
26756WAT     H180510   3.844   0.278   3.737
26756WAT     H280511   3.872   0.425   3.802
26757WAT      O80512   0.271   0.802   5.012
26757WAT     H180513   0.302   0.707   5.018
26757WAT     H280514   0.350   0.862   4.999
26758WAT      O80515   5.898   3.843   0.357
26758WAT     H180516   5.932   3.749   0.356
26758WAT     H280517   5.886   3.874   0.451
26759WAT      O80518   0.215   2.977   4.718
26759WAT     H180519   0.196   3.051   4.782
26759WAT     H280520   0.150   2.979   4.643
26760WAT      O80521   4.539   1.632   8.029
26760WAT     H180522   4.505   1.725   8.018
26760WAT     H280523   4.465   1.572   8.058
26761WAT      O80524   4.742   7.940   4.433
26761WAT     H180525   4.722   7.843   4.424
26761WAT     H280526   4.686   7.979   4.506
26762WAT      O80527   0.770   2.842   5.886
26762WAT     H180528   0.750   2.890   5.972
26762WAT     H280529   0.847   2.780   5.899
26763WAT      O80530   3.211   7.378   4.487
26763WAT     H180531   3.299   7.370   4.533
26763WAT     H280532   3.174   7.286   4.470
26764WAT      O80533   6.402   4.833   0.589
26764WAT     H180534   6.333   4.805   0.655
26764WAT     H280535   6.478   4.877   0.636
26765WAT      O80536   9.244   6.556   2.406
26765WAT     H180537   9.276   6.462   2.415
26765WAT     H280538   9.313   6.618   2.442
26766WAT      O80539   0.507   7.014   7.013
26766WAT     H180540   0.588   7.021   7.072
26766WAT     H280541   0.447   7.092   7.032
26767WAT      O80542   4.701   7.148   3.566
26767WAT     H180543   4.748   7.231   3.593
26767WAT     H280544   4.612   7.144   3.610
26768WAT      O80545   1.494   5.257   9.550
26768WAT     H180546   1.449   5.254   9.639
26768WAT     H280547   1.532   5.348   9.535
26769WAT      O80548   1.276   4.700   4.588
26769WAT     H180549   1.330   4.771   4.542
26769WAT     H280550   1.263   4.727   4.684
26770WAT      O80551   8.846   1.950   8.041
26770WAT     H180552   8.872   1.874   7.982
26770WAT     H280553   8.870   2.036   7.997
26771WAT      O80554   0.609   1.999   6.217
26771WAT     H180555   0.642   1.905   6.227
26771WAT     H280556   0.564   2.028   6.301
26772WAT      O80557   5.123   1.214   7.181
26772WAT     H180558   5.100   1.248   7.272
26772WAT     H280559   5.042   1.216   7.123
26773WAT      O80560   3.775   6.422   7.727
26773WAT     H180561   3.793   6.478   7.647
26773WAT     H280562   3.688   6.450   7.769
26774WAT      O80563   4.198   9.470   8.469
26774WAT     H180564   4.276   9.533   8.469
26774WAT     H280565   4.133   9.499   8.398
26775WAT      O80566   6.301   8.719   2.264
26775WAT     H180567   6.297   8.626   2.227
26775WAT     H280568   6.392   8.758   2.248
26776WAT      O80569   2.018   8.170   7.770
26776WAT     H180570   2.046   8.197   7.862
26776WAT     H280571   1.956   8.091   7.777
26777WAT      O80572   8.955   2.640   3.620
26777WAT     H180573   8.933   2.723   3.567
26777WAT     H280574   9.029   2.590   3.575
26778WAT      O80575   6.031   5.699   2.160
26778WAT     H180576   6.108   5.695   2.224
26778WAT     H280577   6.059   5.748   2.077
26779WAT      O80578   2.061   6.924   0.067
26779WAT     H180579   2.054   7.010   0.018
26779WAT     H280580   2.154   6.889   0.060
26780WAT      O80581   6.052   7.802   1.625
26780WAT     H180582   6.102   7.879   1.666
26780WAT     H280583   5.993   7.837   1.552
26781WAT      O80584   5.316   8.436   8.324
26781WAT     H180585   5.244   8.490   8.367
26781WAT     H280586   5.361   8.379   8.393
26782WAT      O80587   0.349   3.613   0.180
26782WAT     H180588   0.400   3.530   0.156
26782WAT     H280589   0.394   3.658   0.257
26783WAT      O80590   7.579   8.431   1.092
26783WAT     H180591   7.506   8.390   1.147
26783WAT     H280592   7.626   8.360   1.040
26784WAT      O80593   2.526   9.215   8.164
26784WAT     H180594   2.555   9.220   8.069
26784WAT     H280595   2.526   9.306   8.205
26785WAT      O80596   0.045   8.928   9.121
26785WAT     H180597   0.130   8.973   9.094
26785WAT     H280598   0.059   8.881   9.208
26786WAT      O80599   9.409   7.977   6.782
26786WAT     H180600   9.352   8.035   6.724
26786WAT     H280601   9.405   8.009   6.876
26787WAT      O80602   9.303   9.168   0.248
26787WAT     H180603   9.247   9.215   0.180
26787WAT     H280604   9.265   9.077   0.267
26788WAT      O80605   9.634   8.677   1.989
26788WAT     H180606   9.592   8.761   2.023
26788WAT     H280607   9.569   8.601   1.998
26789WAT      O80608   6.220   1.005   1.260
26789WAT     H180609   6.147   1.040   1.200
26789WAT     H280610   6.307   1.008   1.211
26790WAT      O80611   5.006   0.944   8.736
26790WAT     H180612   5.068   0.967   8.661
26790WAT     H280613   4.919   0.990   8.722
26791WAT      O80614   9.423   7.570   2.742
26791WAT     H180615   9.406   7.499   2.674
26791WAT     H280616   9.398   7.536   2.832
26792WAT      O80617   4.188   3.180   8.146
26792WAT     H180618   4.168   3.186   8.048
26792WAT     H280619   4.133   3.107   8.187
26793WAT      O80620   1.652   6.567   6.810
26793WAT     H180621   1.698   6.559   6.898
26793WAT     H280622   1.654   6.480   6.762
26794WAT      O80623   4.832   8.042   4.958
26794WAT     H180624   4.752   7.986   4.977
26794WAT     H280625   4.867   8.020   4.867
26795WAT      O80626   9.445   0.521   3.555
26795WAT     H180627   9.476   0.528   3.460
26795WAT     H280628   9.386   0.441   3.565
26796WAT      O80629   5.629   7.371   3.808
26796WAT     H180630   5.707   7.422   3.845
26796WAT     H280631   5.631   7.376   3.708
26797WAT      O80632   4.984   6.618   4.651
26797WAT     H180633   5.060   6.675   4.681
26797WAT     H280634   4.965   6.549   4.720
26798WAT      O80635   5.152   7.601   2.198
26798WAT     H180636   5.083   7.659   2.243
26798WAT     H280637   5.219   7.660   2.153
26799WAT      O80638   4.822   7.683   7.802
26799WAT     H180639   4.819   7.604   7.741
26799WAT     H280640   4.730   7.701   7.837
26800WAT      O80641   4.475   7.581   9.549
26800WAT     H180642   4.534   7.518   9.600
26800WAT     H280643   4.493   7.571   9.451
26801WAT      O80644   1.362   5.557   3.274
26801WAT     H180645   1.452   5.596   3.297
26801WAT     H280646   1.336   5.584   3.181
26802WAT      O80647   9.528   1.552   6.542
26802WAT     H180648   9.532   1.490   6.464
26802WAT     H280649   9.475   1.634   6.517
26803WAT      O80650   5.294   3.362   5.582
26803WAT     H180651   5.234   3.319   5.514
26803WAT     H280652   5.268   3.459   5.591
26804WAT      O80653   1.995   2.763   5.670
26804WAT     H180654   1.972   2.799   5.580
26804WAT     H280655   2.028   2.669   5.660
26805WAT      O80656   2.717   4.456   2.850
26805WAT     H180657   2.812   4.460   2.821
26805WAT     H280658   2.657   4.452   2.770
26806WAT      O80659   4.564   3.058   9.164
26806WAT     H180660   4.497   3.091   9.098
26806WAT     H280661   4.526   3.064   9.257
26807WAT      O80662   8.157   4.226   7.129
26807WAT     H180663   8.067   4.269   7.122
26807WAT     H280664   8.198   4.251   7.217
26808WAT      O80665   2.396   3.211   2.685
26808WAT     H180666   2.361   3.287   2.740
26808WAT     H280667   2.391   3.126   2.738
26809WAT      O80668   3.024   1.938   1.560
26809WAT     H180669   2.962   1.960   1.484
26809WAT     H280670   3.000   1.849   1.597
26810WAT      O80671   2.552   4.577   6.102
26810WAT     H180672   2.605   4.621   6.175
26810WAT     H280673   2.505   4.647   6.048
26811WAT      O80674   6.389   0.409   2.902
26811WAT     H180675   6.364   0.359   2.985
26811WAT     H280676   6.331   0.490   2.895
26812WAT      O80677   8.282   1.199   9.292
26812WAT     H180678   8.194   1.164   9.322
26812WAT     H280679   8.345   1.201   9.369
26813WAT      O80680   8.645   4.712   3.784
26813WAT     H180681   8.711   4.729   3.712
26813WAT     H280682   8.643   4.790   3.847
26814WAT      O80683   8.423   5.573   8.762
26814WAT     H180684   8.416   5.625   8.677
26814WAT     H280685   8.456   5.632   8.835
26815WAT      O80686   3.659   4.620   2.195
26815WAT     H180687   3.755   4.593   2.206
26815WAT     H280688   3.600   4.551   2.238
26816WAT      O80689   8.652   4.111   9.243
26816WAT     H180690   8.641   4.205   9.273
26816WAT     H280691   8.640   4.050   9.322
26817WAT      O80692   7.325   0.629   1.009
26817WAT     H180693   7.401   0.623   0.945
26817WAT     H280694   7.329   0.716   1.058
26818WAT      O80695   8.350   4.468   3.024
26818WAT     H180696   8.257   4.456   2.989
26818WAT     H280697   8.376   4.565   3.018
26819WAT      O80698   1.645   0.840   4.270
26819WAT     H180699   1.570   0.776   4.249
26819WAT     H280700   1.695   0.860   4.186
26820WAT      O80701   0.769   1.171   6.398
26820WAT     H180702   0.704   1.216   6.459
26820WAT     H280703   0.862   1.191   6.428
26821WAT      O80704   9.731   1.643   2.753
26821WAT     H180705   9.756   1.570   2.690
26821WAT     H280706   9.808   1.706   2.764
26822WAT      O80707   1.706   0.137   0.824
26822WAT     H180708   1.620   0.121   0.774
26822WAT     H280709   1.739   0.050   0.861
26823WAT      O80710   2.294   4.172   0.626
26823WAT     H180711   2.380   4.140   0.665
26823WAT     H280712   2.312   4.227   0.545
26824WAT      O80713   9.888   0.170   4.909
26824WAT     H180714   9.840   0.137   4.990
26824WAT     H280715   9.909   0.093   4.849
26825WAT      O80716   8.470   7.083   5.132
26825WAT     H180717   8.538   7.030   5.183
26825WAT     H280718   8.379   7.049   5.151
26826WAT      O80719   4.302   5.420   6.055
26826WAT     H180720   4.367   5.391   5.985
26826WAT     H280721   4.351   5.469   6.127
26827WAT      O80722   3.325   4.507   2.633
26827WAT     H180723   3.413   4.503   2.585
26827WAT     H280724   3.308   4.419   2.678
26828WAT      O80725   7.211   0.209   0.840
26828WAT     H180726   7.152   0.285   0.869
26828WAT     H280727   7.206   0.135   0.907
26829WAT      O80728   0.857   4.276   8.116
26829WAT     H180729   0.796   4.284   8.037
26829WAT     H280730   0.805   4.289   8.200
26830WAT      O80731   8.937   9.571   5.916
26830WAT     H180732   8.863   9.631   5.946
26830WAT     H280733   8.946   9.494   5.979
26831WAT      O80734   4.223   0.449   6.536
26831WAT     H180735   4.248   0.507   6.614
26831WAT     H280736   4.244   0.497   6.451
26832WAT      O80737   4.711   8.449   5.765
26832WAT     H180738   4.721   8.503   5.681
26832WAT     H280739   4.673   8.506   5.837
26833WAT      O80740   4.388   8.281   0.091
26833WAT     H180741   4.330   8.254   0.015
26833WAT     H280742   4.467   8.332   0.056
26834WAT      O80743   3.954   8.390   6.024
26834WAT     H180744   3.873   8.398   6.082
26834WAT     H280745   3.998   8.301   6.039
26835WAT      O80746   9.604   5.432   0.290
26835WAT     H180747   9.574   5.487   0.212
26835WAT     H280748   9.694   5.464   0.320
26836WAT      O80749   4.087   9.679   9.113
26836WAT     H180750   4.115   9.751   9.050
26836WAT     H280751   4.168   9.634   9.151
26837WAT      O80752   5.613   6.434   0.096
26837WAT     H180753   5.618   6.334   0.105
26837WAT     H280754   5.524   6.466   0.129
26838WAT      O80755   8.188   7.035   4.748
26838WAT     H180756   8.204   7.068   4.654
26838WAT     H280757   8.267   7.057   4.804
26839WAT      O80758   8.443   0.912   3.117
26839WAT     H180759   8.373   0.973   3.079
26839WAT     H280760   8.419   0.817   3.097
26840WAT      O80761   8.309   0.103   6.607
26840WAT     H180762   8.297   0.197   6.575
26840WAT     H280763   8.223   0.053   6.600
26841WAT      O80764   3.594   1.310   4.332
26841WAT     H180765   3.614   1.399   4.375
26841WAT     H280766   3.515   1.320   4.271
26842WAT      O80767   3.157   1.369   6.522
26842WAT     H180768   3.159   1.319   6.436
26842WAT     H280769   3.192   1.311   6.596
26843WAT      O80770   9.150   1.839   4.491
26843WAT     H180771   9.054   1.816   4.477
26843WAT     H280772   9.156   1.927   4.538
26844WAT      O80773   4.199   9.674   4.912
26844WAT     H180774   4.128   9.742   4.892
26844WAT     H280775   4.289   9.715   4.896
26845WAT      O80776   8.123   6.667   5.096
26845WAT     H180777   8.055   6.736   5.075
26845WAT     H280778   8.121   6.595   5.026
26846WAT      O80779   2.309   0.344   6.442
26846WAT     H180780   2.262   0.274   6.388
26846WAT     H280781   2.274   0.435   6.418
26847WAT      O80782   4.058   5.963   4.303
26847WAT     H180783   4.057   6.052   4.257
26847WAT     H280784   4.085   5.892   4.238
26848WAT      O80785   4.660   8.053   7.020
26848WAT     H180786   4.714   8.072   7.102
26848WAT     H280787   4.567   8.028   7.046
26849WAT      O80788   0.393   2.788   1.218
26849WAT     H180789   0.382   2.829   1.128
26849WAT     H280790   0.488   2.760   1.231
26850WAT      O80791   9.461   6.392   2.051
26850WAT     H180792   9.369   6.357   2.070
26850WAT     H280793   9.463   6.491   2.068
26851WAT      O80794   3.561   7.176   6.668
26851WAT     H180795   3.637   7.118   6.696
26851WAT     H280796   3.491   7.120   6.624
26852WAT      O80797   2.100   2.494   1.705
26852WAT     H180798   2.145   2.406   1.687
26852WAT     H280799   2.006   2.490   1.673
26853WAT      O80800   9.323   4.078   6.513
26853WAT     H180801   9.271   4.001   6.474
26853WAT     H280802   9.264   4.128   6.577
26854WAT      O80803   8.547   3.062   1.854
26854WAT     H180804   8.511   2.972   1.879
26854WAT     H280805   8.509   3.090   1.766
26855WAT      O80806   6.844   0.209   1.689
26855WAT     H180807   6.797   0.206   1.777
26855WAT     H280808   6.911   0.284   1.689
26856WAT      O80809   9.434   1.445   7.108
26856WAT     H180810   9.371   1.436   7.031
26856WAT     H280811   9.385   1.478   7.188
26857WAT      O80812   3.380   4.358   1.422
26857WAT     H180813   3.348   4.302   1.498
26857WAT     H280814   3.394   4.301   1.341
26858WAT      O80815   6.905   3.841   2.171
26858WAT     H180816   6.963   3.871   2.094
26858WAT     H280817   6.921   3.901   2.249
26859WAT      O80818   0.465   6.721   3.730
26859WAT     H180819   0.386   6.768   3.690
26859WAT     H280820   0.506   6.778   3.800
26860WAT      O80821   5.873   3.325   8.081
26860WAT     H180822   5.895   3.422   8.065
26860WAT     H280823   5.942   3.285   8.141
26861WAT      O80824   2.479   3.724   7.920
26861WAT     H180825   2.386   3.691   7.905
26861WAT     H280826   2.532   3.654   7.968
26862WAT      O80827   2.936   2.509   4.458
26862WAT     H180828   2.976   2.600   4.450
26862WAT     H280829   3.005   2.440   4.436
26863WAT      O80830   0.175   8.816   1.999
26863WAT     H180831   0.251   8.771   2.047
26863WAT     H280832   0.161   8.771   1.911
26864WAT      O80833   5.045   0.352   1.295
26864WAT     H180834   5.115   0.418   1.323
26864WAT     H280835   5.024   0.364   1.198
26865WAT      O80836   1.858   9.213   7.049
26865WAT     H180837   1.836   9.157   7.129
26865WAT     H280838   1.922   9.164   6.990
26866WAT      O80839   5.858   0.930   9.301
26866WAT     H180840   5.776   0.877   9.324
26866WAT     H280841   5.862   0.944   9.202
26867WAT      O80842   5.936   2.271   1.316
26867WAT     H180843   5.840   2.279   1.291
26867WAT     H280844   5.945   2.221   1.402
26868WAT      O80845   3.140   9.457   2.070
26868WAT     H180846   3.201   9.534   2.091
26868WAT     H280847   3.048   9.491   2.055
26869WAT      O80848   8.165   2.493   6.175
26869WAT     H180849   8.127   2.562   6.237
26869WAT     H280850   8.264   2.505   6.168
26870WAT      O80851   8.885   3.187   3.540
26870WAT     H180852   8.828   3.105   3.540
26870WAT     H280853   8.921   3.204   3.448
26871WAT      O80854   1.941  -0.001   6.648
26871WAT     H180855   1.993   0.082   6.668
26871WAT     H280856   1.979  -0.046   6.568
26872WAT      O80857   4.324   5.905   9.428
26872WAT     H180858   4.266   5.980   9.459
26872WAT     H280859   4.375   5.868   9.506
26873WAT      O80860   7.551   9.667   8.973
26873WAT     H180861   7.643   9.655   8.938
26873WAT     H280862   7.554   9.673   9.073
26874WAT      O80863   4.429   5.169   2.174
26874WAT     H180864   4.430   5.128   2.083
26874WAT     H280865   4.492   5.247   2.176
26875WAT      O80866   3.569   7.757   9.206
26875WAT     H180867   3.573   7.800   9.116
26875WAT     H280868   3.626   7.808   9.270
26876WAT      O80869   8.292   0.978   5.238
26876WAT     H180870   8.285   1.033   5.155
26876WAT     H280871   8.384   0.940   5.246
26877WAT      O80872   0.637   9.735   5.679
26877WAT     H180873   0.638   9.766   5.584
26877WAT     H280874   0.694   9.794   5.735
26878WAT      O80875   0.646   1.275   4.991
26878WAT     H180876   0.675   1.247   4.900
26878WAT     H280877   0.557   1.321   4.984
26879WAT      O80878   7.068   1.128   3.360
26879WAT     H180879   7.080   1.196   3.287
26879WAT     H280880   6.970   1.108   3.370
26880WAT      O80881   7.048   7.949   1.058
26880WAT     H180882   7.074   7.879   0.992
26880WAT     H280883   6.954   7.979   1.039
26881WAT      O80884   7.986   3.606   8.853
26881WAT     H180885   7.938   3.572   8.772
26881WAT     H280886   7.992   3.532   8.920
26882WAT      O80887   0.771   9.847   3.545
26882WAT     H180888   0.804   9.860   3.639
26882WAT     H280889   0.802   9.759   3.510
26883WAT      O80890   2.809   1.320   5.056
26883WAT     H180891   2.778   1.392   5.118
26883WAT     H280892   2.732   1.260   5.032
26884WAT      O80893   6.754   0.113   7.720
26884WAT     H180894   6.732   0.210   7.717
26884WAT     H280895   6.707   0.070   7.796
26885WAT      O80896   4.691   1.852   6.016
26885WAT     H180897   4.675   1.782   6.085
26885WAT     H280898   4.790   1.862   6.001
26886WAT      O80899   6.896   7.367   5.255
26886WAT     H180900   6.976   7.370   5.194
26886WAT     H280901   6.843   7.284   5.237
26887WAT      O80902   6.445   9.228   0.958
26887WAT     H180903   6.513   9.234   0.885
26887WAT     H280904   6.395   9.142   0.950
26888WAT      O80905   7.096   4.415   6.779
26888WAT     H180906   7.055   4.393   6.867
26888WAT     H280907   7.025   4.443   6.715
26889WAT      O80908   0.538   8.921   1.475
26889WAT     H180909   0.553   8.847   1.409
26889WAT     H280910   0.601   8.996   1.457
26890WAT      O80911   2.165   1.109   7.061
26890WAT     H180912   2.099   1.178   7.034
26890WAT     H280913   2.243   1.110   6.998
26891WAT      O80914   7.596   1.437   0.597
26891WAT     H180915   7.657   1.493   0.541
26891WAT     H280916   7.646   1.358   0.631
26892WAT      O80917   4.406   7.702   4.508
26892WAT     H180918   4.359   7.614   4.519
26892WAT     H280919   4.505   7.687   4.500
26893WAT      O80920   4.963   0.754   3.513
26893WAT     H180921   5.030   0.757   3.588
26893WAT     H280922   5.002   0.797   3.431
26894WAT      O80923   8.471   1.653   3.819
26894WAT     H180924   8.391   1.653   3.878
26894WAT     H280925   8.474   1.568   3.766
26895WAT      O80926   3.278   6.591   0.167
26895WAT     H180927   3.360   6.634   0.206
26895WAT     H280928   3.274   6.495   0.195
26896WAT      O80929   0.132   7.687   5.512
26896WAT     H180930   0.076   7.758   5.552
26896WAT     H280931   0.185   7.724   5.435
26897WAT      O80932   8.300   3.182   3.570
26897WAT     H180933   8.374   3.229   3.522
26897WAT     H280934   8.277   3.233   3.654
26898WAT      O80935   3.917   2.093   0.660
26898WAT     H180936   3.983   2.167   0.646
26898WAT     H280937   3.966   2.008   0.679
26899WAT      O80938   0.050   5.938   6.601
26899WAT     H180939   0.144   5.966   6.615
26899WAT     H280940  -0.010   6.019   6.602
26900WAT      O80941   8.225   5.373   5.265
26900WAT     H180942   8.130   5.388   5.294
26900WAT     H280943   8.230   5.376   5.165
26901WAT      O80944   2.793   3.194   2.561
26901WAT     H180945   2.782   3.099   2.533
26901WAT     H280946   2.840   3.245   2.489
26902WAT      O80947   7.153   1.875   4.867
26902WAT     H180948   7.198   1.962   4.886
26902WAT     H280949   7.150   1.820   4.951
26903WAT      O80950   5.447   1.592   7.606
26903WAT     H180951   5.367   1.650   7.590
26903WAT     H280952   5.505   1.593   7.524
26904WAT      O80953   4.350   2.527   7.357
26904WAT     H180954   4.363   2.482   7.269
26904WAT     H280955   4.314   2.620   7.342
26905WAT      O80956   7.757   5.712   1.114
26905WAT     H180957   7.771   5.802   1.155
26905WAT     H280958   7.841   5.683   1.068
26906WAT      O80959   0.466   0.271   2.166
26906WAT     H180960   0.475   0.341   2.095
26906WAT     H280961   0.377   0.280   2.211
26907WAT      O80962   0.043   0.180   0.775
26907WAT     H180963   0.041   0.083   0.799
26907WAT     H280964  -0.048   0.209   0.745
26908WAT      O80965   0.052   6.065   8.045
26908WAT     H180966  -0.048   6.059   8.044
26908WAT     H280967   0.082   6.089   8.137
26909WAT      O80968   6.430   0.780   5.008
26909WAT     H180969   6.387   0.867   5.029
26909WAT     H280970   6.445   0.773   4.910
26910WAT      O80971   0.955   3.381   8.011
26910WAT     H180972   0.860   3.358   8.031
26910WAT     H280973   0.958   3.450   7.939
26911WAT      O80974   9.495   5.563   0.073
26911WAT     H180975   9.448   5.476   0.077
26911WAT     H280976   9.430   5.637   0.089
26912WAT      O80977   4.878   0.128   4.965
26912WAT     H180978   4.826   0.189   5.025
26912WAT     H280979   4.831   0.040   4.957
26913WAT      O80980   3.487   9.708   1.362
26913WAT     H180981   3.563   9.770   1.384
26913WAT     H280982   3.410   9.726   1.423
26914WAT      O80983   4.690   4.684   0.894
26914WAT     H180984   4.712   4.587   0.907
26914WAT     H280985   4.719   4.736   0.974
26915WAT      O80986   1.411   4.170   3.052
26915WAT     H180987   1.376   4.078   3.069
26915WAT     H280988   1.335   4.235   3.049
26916WAT      O80989   8.578   1.226   4.365
26916WAT     H180990   8.609   1.318   4.339
26916WAT     H280991   8.545   1.178   4.284
26917WAT      O80992   3.353   0.054   8.048
26917WAT     H180993   3.431   0.020   7.996
26917WAT     H280994   3.350   0.010   8.138
26918WAT      O80995   3.868   4.052   5.432
26918WAT     H180996   3.855   4.089   5.524
26918WAT     H280997   3.842   4.120   5.364
26919WAT      O80998   4.730   0.287   5.134
26919WAT     H180999   4.715   0.228   5.214
26919WAT     H281000   4.648   0.343   5.119
26920WAT      O81001   1.814   5.177   7.252
26920WAT     H181002   1.734   5.236   7.239
26920WAT     H281003   1.855   5.198   7.341
26921WAT      O81004   1.097   4.296   7.050
26921WAT     H181005   1.195   4.282   7.042
26921WAT     H281006   1.058   4.226   7.111
26922WAT      O81007   4.919   1.306   9.399
26922WAT     H181008   5.002   1.309   9.343
26922WAT     H281009   4.931   1.238   9.472
26923WAT      O81010   7.111   6.263   6.473
26923WAT     H181011   7.106   6.174   6.519
26923WAT     H281012   7.055   6.329   6.523
26924WAT      O81013   8.182   9.375   2.679
26924WAT     H181014   8.130   9.380   2.764
26924WAT     H281015   8.223   9.284   2.671
26925WAT      O81016   3.755   0.158   2.376
26925WAT     H181017   3.752   0.202   2.286
26925WAT     H281018   3.829   0.091   2.378
26926WAT      O81019   7.586   2.912   5.641
26926WAT     H181020   7.487   2.900   5.635
26926WAT     H281021   7.632   2.834   5.598
26927WAT      O81022   4.245   4.378   0.084
26927WAT     H181023   4.244   4.371   0.184
26927WAT     H281024   4.200   4.463   0.056
26928WAT      O81025   5.616   1.716   6.434
26928WAT     H181026   5.613   1.678   6.526
26928WAT     H281027   5.639   1.643   6.369
26929WAT      O81028   9.712   7.071   1.684
26929WAT     H181029   9.705   7.152   1.626
26929WAT     H281030   9.669   7.089   1.772
26930WAT      O81031   7.857   9.413   6.846
26930WAT     H181032   7.819   9.321   6.861
26930WAT     H281033   7.956   9.407   6.834
26931WAT      O81034   7.615   4.657   0.271
26931WAT     H181035   7.624   4.567   0.312
26931WAT     H281036   7.605   4.726   0.343
26932WAT      O81037   9.076   4.519   2.476
26932WAT     H181038   8.990   4.479   2.505
26932WAT     H281039   9.101   4.484   2.386
26933WAT      O81040   1.382   3.297   5.723
26933WAT     H181041   1.457   3.339   5.773
26933WAT     H281042   1.396   3.198   5.719
26934WAT      O81043   5.634   3.468   7.068
26934WAT     H181044   5.536   3.449   7.070
26934WAT     H281045   5.663   3.502   7.157
26935WAT      O81046   0.319   5.193   0.805
26935WAT     H181047   0.287   5.284   0.780
26935WAT     H281048   0.336   5.139   0.722
26936WAT      O81049   8.171   6.569   3.878
26936WAT     H181050   8.144   6.632   3.805
26936WAT     H281051   8.205   6.484   3.837
26937WAT      O81052   7.500   4.507   6.423
26937WAT     H181053   7.425   4.481   6.362
26937WAT     H281054   7.554   4.580   6.380
26938WAT      O81055   4.579   3.356   5.256
26938WAT     H181056   4.570   3.454   5.242
26938WAT     H281057   4.637   3.317   5.185
26939WAT      O81058   6.266   8.233   8.214
26939WAT     H181059   6.319   8.185   8.284
26939WAT     H281060   6.172   8.244   8.246
26940WAT      O81061   6.519   3.832   3.067
26940WAT     H181062   6.471   3.900   3.122
26940WAT     H281063   6.595   3.876   3.019
26941WAT      O81064   2.550   6.492   8.993
26941WAT     H181065   2.516   6.484   9.087
26941WAT     H281066   2.475   6.472   8.930
26942WAT      O81067   1.448   4.619   6.294
26942WAT     H181068   1.442   4.623   6.194
26942WAT     H281069   1.523   4.558   6.320
26943WAT      O81070   8.177   2.910   4.470
26943WAT     H181071   8.155   2.900   4.373
26943WAT     H281072   8.094   2.935   4.521
26944WAT      O81073   1.309   0.954   5.122
26944WAT     H181074   1.245   1.018   5.164
26944WAT     H281075   1.400   0.966   5.162
26945WAT      O81076   5.969   4.041   1.420
26945WAT     H181077   5.871   4.032   1.400
26945WAT     H281078   6.021   4.039   1.335
26946WAT      O81079   2.472   1.491   2.170
26946WAT     H181080   2.567   1.518   2.188
26946WAT     H281081   2.419   1.572   2.147
26947WAT      O81082   2.339   4.635   8.289
26947WAT     H181083   2.311   4.709   8.351
26947WAT     H281084   2.357   4.552   8.343
26948WAT      O81085   5.490   3.931   9.024
26948WAT     H181086   5.499   3.872   8.943
26948WAT     H281087   5.562   4.001   9.023
26949WAT      O81088   4.308   3.864   4.357
26949WAT     H181089   4.279   3.873   4.261
26949WAT     H281090   4.404   3.838   4.360
26950WAT      O81091   7.385   3.654   7.075
26950WAT     H181092   7.457   3.694   7.132
26950WAT     H281093   7.354   3.720   7.007
26951WAT      O81094   2.932   9.794   1.282
26951WAT     H181095   2.947   9.755   1.373
26951WAT     H281096   2.939   9.722   1.213
26952WAT      O81097   8.341   2.535   7.743
26952WAT     H181098   8.343   2.625   7.699
26952WAT     H281099   8.360   2.464   7.675
26953WAT      O81100   9.599   3.321   1.541
26953WAT     H181101   9.548   3.339   1.625
26953WAT     H281102   9.558   3.373   1.466
26954WAT      O81103   8.477   9.756   8.203
26954WAT     H181104   8.407   9.720   8.141
26954WAT     H281105   8.452   9.849   8.231
26955WAT      O81106   1.437   8.153   5.478
26955WAT     H181107   1.491   8.119   5.401
26955WAT     H281108   1.497   8.169   5.557
26956WAT      O81109   0.392   5.831   5.676
26956WAT     H181110   0.383   5.897   5.751
26956WAT     H281111   0.448   5.754   5.706
26957WAT      O81112   0.724   0.547   4.988
26957WAT     H181113   0.787   0.492   5.043
26957WAT     H281114   0.677   0.612   5.048
26958WAT      O81115   2.430   7.331   7.936
26958WAT     H181116   2.504   7.327   8.003
26958WAT     H281117   2.347   7.365   7.980
26959WAT      O81118   0.271   8.951   5.251
26959WAT     H181119   0.356   8.989   5.289
26959WAT     H281120   0.207   9.026   5.233
26960WAT      O81121   4.403   8.129   7.593
26960WAT     H181122   4.305   8.133   7.574
26960WAT     H281123   4.448   8.075   7.522
26961WAT      O81124   5.555   4.066   3.122
26961WAT     H181125   5.560   4.041   3.219
26961WAT     H281126   5.489   4.007   3.076
26962WAT      O81127   5.749   6.214   2.104
26962WAT     H181128   5.669   6.274   2.104
26962WAT     H281129   5.789   6.212   2.195
26963WAT      O81130   6.490   7.610   5.366
26963WAT     H181131   6.399   7.568   5.364
26963WAT     H281132   6.512   7.647   5.275
26964WAT      O81133   3.763   1.650   3.855
26964WAT     H181134   3.713   1.737   3.851
26964WAT     H281135   3.701   1.578   3.886
26965WAT      O81136   7.804   4.071   3.782
26965WAT     H181137   7.792   4.132   3.704
26965WAT     H281138   7.724   4.077   3.841
26966WAT      O81139   4.807   4.808   6.693
26966WAT     H181140   4.781   4.760   6.609
26966WAT     H281141   4.867   4.885   6.671
26967WAT      O81142   0.026   8.243   9.067
26967WAT     H181143   0.038   8.152   9.028
26967WAT     H281144  -0.067   8.276   9.048
26968WAT      O81145   0.630   0.846   0.645
26968WAT     H181146   0.536   0.879   0.635
26968WAT     H281147   0.645   0.768   0.584
26969WAT      O81148   8.643   5.226   0.885
26969WAT     H181149   8.552   5.266   0.875
26969WAT     H281150   8.695   5.275   0.955
26970WAT      O81151   6.653   0.831   4.048
26970WAT     H181152   6.672   0.929   4.055
26970WAT     H281153   6.736   0.783   4.020
26971WAT      O81154   0.626   8.223   3.125
26971WAT     H181155   0.721   8.206   3.099
26971WAT     H281156   0.568   8.218   3.044
26972WAT      O81157   6.058   5.648   8.222
26972WAT     H181158   6.124   5.588   8.266
26972WAT     H281159   6.066   5.740   8.261
26973WAT      O81160   0.189   4.176   2.277
26973WAT     H181161   0.156   4.133   2.193
26973WAT     H281162   0.113   4.226   2.320
26974WAT      O81163   3.903   8.074   4.149
26974WAT     H181164   3.949   8.085   4.237
26974WAT     H281165   3.858   8.160   4.124
26975WAT      O81166   6.889   3.323   6.918
26975WAT     H181167   6.925   3.317   6.825
26975WAT     H281168   6.964   3.313   6.983
26976WAT      O81169   5.917   4.103   1.811
26976WAT     H181170   5.848   4.121   1.881
26976WAT     H281171   5.874   4.063   1.730
26977WAT      O81172   7.347   0.330   4.156
26977WAT     H181173   7.309   0.243   4.127
26977WAT     H281174   7.404   0.369   4.083
26978WAT      O81175   2.845   0.316   0.531
26978WAT     H181176   2.841   0.218   0.511
26978WAT     H281177   2.912   0.332   0.604
26979WAT      O81178   3.673   0.486   4.675
26979WAT     H181179   3.680   0.581   4.706
26979WAT     H281180   3.764   0.449   4.657
26980WAT      O81181   8.269   7.605   9.592
26980WAT     H181182   8.252   7.563   9.681
26980WAT     H281183   8.184   7.610   9.540
26981WAT      O81184   5.869   1.084   9.686
26981WAT     H181185   5.912   1.122   9.768
26981WAT     H281186   5.782   1.129   9.670
26982WAT      O81187   2.692   1.718   8.256
26982WAT     H181188   2.664   1.775   8.179
26982WAT     H281189   2.614   1.703   8.317
26983WAT      O81190   2.833   0.113   6.321
26983WAT     H181191   2.780   0.061   6.254
26983WAT     H281192   2.819   0.211   6.306
26984WAT      O81193   0.812   7.465   8.803
26984WAT     H181194   0.768   7.442   8.890
26984WAT     H281195   0.910   7.448   8.810
26985WAT      O81196   3.981   1.817   4.621
26985WAT     H181197   3.937   1.785   4.705
26985WAT     H281198   3.914   1.819   4.547
26986WAT      O81199   8.532   8.873   1.929
26986WAT     H181200   8.579   8.859   1.842
26986WAT     H281201   8.433   8.874   1.914
26987WAT      O81202   9.136   1.632   5.615
26987WAT     H181203   9.040   1.658   5.604
26987WAT     H281204   9.155   1.552   5.557
26988WAT      O81205   9.466   1.137   9.735
26988WAT     H181206   9.378   1.107   9.699
26988WAT     H281207   9.470   1.237   9.736
26989WAT      O81208   8.886   7.851   3.280
26989WAT     H181209   8.921   7.869   3.371
26989WAT     H281210   8.786   7.839   3.284
26990WAT      O81211   9.638   4.326   7.931
26990WAT     H181212   9.618   4.232   7.902
26990WAT     H281213   9.737   4.335   7.947
26991WAT      O81214   3.805   3.141   6.642
26991WAT     H181215   3.897   3.136   6.679
26991WAT     H281216   3.804   3.199   6.560
26992WAT      O81217   9.348   7.012   5.300
26992WAT     H181218   9.248   7.022   5.295
26992WAT     H281219   9.378   6.938   5.240
26993WAT      O81220   8.933   9.587   6.999
26993WAT     H181221   8.862   9.575   6.930
26993WAT     H281222   8.983   9.672   6.981
26994WAT      O81223   9.547   6.848   4.418
26994WAT     H181224   9.581   6.941   4.405
26994WAT     H281225   9.585   6.789   4.347
26995WAT      O81226   8.160   4.435   2.851
26995WAT     H181227   8.129   4.377   2.776
26995WAT     H281228   8.091   4.504   2.871
26996WAT      O81229   1.298   7.406   0.557
26996WAT     H181230   1.211   7.391   0.603
26996WAT     H281231   1.374   7.386   0.620
26997WAT      O81232   1.966   2.753   5.080
26997WAT     H181233   2.042   2.785   5.136
26997WAT     H281234   1.887   2.813   5.092
26998WAT      O81235   8.036   3.508   9.448
26998WAT     H181236   8.039   3.436   9.518
26998WAT     H281237   8.108   3.575   9.464
26999WAT      O81238   8.259   8.312   1.905
26999WAT     H181239   8.175   8.340   1.952
26999WAT     H281240   8.336   8.320   1.968
27000WAT      O81241   1.041   9.825   5.704
27000WAT     H181242   0.967   9.818   5.637
27000WAT     H281243   1.094   9.740   5.705
27001WAT      O81244   5.477   2.790   8.185
27001WAT     H181245   5.500   2.790   8.088
27001WAT     H281246   5.561   2.785   8.239
27002WAT      O81247   9.235   9.058   7.836
27002WAT     H181248   9.149   9.092   7.801
27002WAT     H281249   9.244   9.081   7.933
27003WAT      O81250   0.615   5.116   4.951
27003WAT     H181251   0.579   5.183   4.887
27003WAT     H281252   0.621   5.026   4.907
27004WAT      O81253   4.690   5.767   0.446
27004WAT     H181254   4.712   5.670   0.452
27004WAT     H281255   4.599   5.779   0.408
27005WAT      O81256   0.915   2.255   1.322
27005WAT     H181257   0.901   2.202   1.238
27005WAT     H281258   0.865   2.211   1.397
27006WAT      O81259   3.610   9.834   7.593
27006WAT     H181260   3.540   9.877   7.536
27006WAT     H281261   3.699   9.877   7.576
27007WAT      O81262   8.196   9.080   3.448
27007WAT     H181263   8.243   9.039   3.370
27007WAT     H281264   8.262   9.095   3.522
27008WAT      O81265   1.475   9.410   1.970
27008WAT     H181266   1.509   9.495   1.930
27008WAT     H281267   1.529   9.333   1.936
27009WAT      O81268   5.291   6.005   7.350
27009WAT     H181269   5.228   5.927   7.339
27009WAT     H281270   5.384   5.971   7.361
27010WAT      O81271   2.751   7.311   0.561
27010WAT     H181272   2.849   7.299   0.574
27010WAT     H281273   2.704   7.303   0.649
27011WAT      O81274   9.416   0.039   0.779
27011WAT     H181275   9.379   0.022   0.688
27011WAT     H281276   9.451   0.133   0.784
27012WAT      O81277   7.604   8.749   8.007
27012WAT     H181278   7.641   8.840   7.988
27012WAT     H281279   7.639   8.685   7.938
27013WAT      O81280   2.086   0.644   3.946
27013WAT     H181281   2.033   0.565   3.976
27013WAT     H281282   2.164   0.657   4.006
27014WAT      O81283   0.197   4.572   9.364
27014WAT     H181284   0.240   4.507   9.427
27014WAT     H281285   0.128   4.524   9.309
27015WAT      O81286   8.917   8.254   8.676
27015WAT     H181287   8.893   8.288   8.585
27015WAT     H281288   9.013   8.275   8.695
27016WAT      O81289   5.214   7.359   6.203
27016WAT     H181290   5.129   7.368   6.256
27016WAT     H281291   5.277   7.431   6.229
27017WAT      O81292   3.641   2.361   9.342
27017WAT     H181293   3.715   2.426   9.327
27017WAT     H281294   3.608   2.368   9.436
27018WAT      O81295   8.321   8.435   4.120
27018WAT     H181296   8.274   8.512   4.164
27018WAT     H281297   8.264   8.400   4.046
27019WAT      O81298   8.750   3.564   0.214
27019WAT     H181299   8.706   3.653   0.226
27019WAT     H281300   8.847   3.578   0.192
27020WAT      O81301   0.138   9.010   3.253
27020WAT     H181302   0.235   9.008   3.279
27020WAT     H281303   0.093   9.088   3.296
27021WAT      O81304   8.882   9.343   6.496
27021WAT     H181305   8.836   9.281   6.560
27021WAT     H281306   8.926   9.289   6.424
27022WAT      O81307   7.657   9.281   9.399
27022WAT     H181308   7.627   9.217   9.469
27022WAT     H281309   7.578   9.319   9.352
27023WAT      O81310   5.009   2.943   5.229
27023WAT     H181311   5.102   2.973   5.249
27023WAT     H281312   4.997   2.848   5.258
27024WAT      O81313   1.874   1.940   7.693
27024WAT     H181314   1.911   1.886   7.618
27024WAT     H281315   1.844   2.029   7.659
27025WAT      O81316   0.691   3.045   1.066
27025WAT     H181317   0.677   2.947   1.053
27025WAT     H281318   0.788   3.066   1.055
27026WAT      O81319   9.072   8.165   0.430
27026WAT     H181320   8.996   8.218   0.392
27026WAT     H281321   9.037   8.087   0.481
27027WAT      O81322   9.388   1.877   3.430
27027WAT     H181323   9.301   1.829   3.425
27027WAT     H281324   9.456   1.827   3.376
27028WAT      O81325   4.295   4.859   2.403
27028WAT     H181326   4.303   4.949   2.447
27028WAT     H281327   4.286   4.788   2.473
27029WAT      O81328   3.645   9.303   8.484
27029WAT     H181329   3.575   9.232   8.488
27029WAT     H281330   3.637   9.362   8.564
27030WAT      O81331   1.052   3.840   5.300
27030WAT     H181332   1.007   3.753   5.279
27030WAT     H281333   1.149   3.834   5.276
27031WAT      O81334   7.130   4.342   1.697
27031WAT     H181335   7.200   4.271   1.689
27031WAT     H281336   7.174   4.431   1.705
27032WAT      O81337   5.995   7.882   0.744
27032WAT     H181338   5.995   7.787   0.711
27032WAT     H281339   5.915   7.930   0.708
27033WAT      O81340   0.839   4.718   2.097
27033WAT     H181341   0.855   4.814   2.118
27033WAT     H281342   0.830   4.707   1.998
27034WAT      O81343   8.838   0.405   5.506
27034WAT     H181344   8.934   0.416   5.481
27034WAT     H281345   8.784   0.479   5.465
27035WAT      O81346   7.689   5.959   9.362
27035WAT     H181347   7.640   5.874   9.343
27035WAT     H281348   7.780   5.938   9.397
27036WAT      O81349   6.600   5.288   0.824
27036WAT     H181350   6.576   5.300   0.728
27036WAT     H281351   6.663   5.361   0.852
27037WAT      O81352   7.584   2.040   2.278
27037WAT     H181353   7.581   2.140   2.281
27037WAT     H281354   7.491   2.004   2.273
27038WAT      O81355   0.709   6.533   4.176
27038WAT     H181356   0.799   6.494   4.156
27038WAT     H281357   0.683   6.512   4.270
27039WAT      O81358   4.563   4.625   7.695
27039WAT     H181359   4.652   4.626   7.650
27039WAT     H281360   4.551   4.709   7.747
27040WAT      O81361   4.266   0.341   3.571
27040WAT     H181362   4.340   0.398   3.609
27040WAT     H281363   4.181   0.394   3.569
27041WAT      O81364   0.094   2.348   3.966
27041WAT     H181365   0.116   2.374   3.872
27041WAT     H281366   0.156   2.397   4.028
27042WAT      O81367   6.322   7.268   9.116
27042WAT     H181368   6.384   7.344   9.098
27042WAT     H281369   6.270   7.286   9.200
27043WAT      O81370   8.736   0.660   1.442
27043WAT     H181371   8.765   0.570   1.473
27043WAT     H281372   8.661   0.650   1.377
27044WAT      O81373   3.459   3.761   4.318
27044WAT     H181374   3.386   3.758   4.387
27044WAT     H281375   3.482   3.856   4.299
27045WAT      O81376   1.448   2.976   4.859
27045WAT     H181377   1.537   2.930   4.856
27045WAT     H281378   1.401   2.951   4.944
27046WAT      O81379   7.109   8.836   4.951
27046WAT     H181380   7.122   8.747   4.995
27046WAT     H281381   7.019   8.872   4.974
27047WAT      O81382   7.332   5.143   3.411
27047WAT     H181383   7.292   5.202   3.341
27047WAT     H281384   7.326   5.188   3.500
27048WAT      O81385   2.162   2.682   1.889
27048WAT     H181386   2.243   2.730   1.856
27048WAT     H281387   2.145   2.602   1.832
27049WAT      O81388   3.397   2.369   5.938
27049WAT     H181389   3.463   2.315   5.885
27049WAT     H281390   3.418   2.361   6.035
27050WAT      O81391   3.953   0.962   7.180
27050WAT     H181392   3.971   1.051   7.139
27050WAT     H281393   4.024   0.897   7.152
27051WAT      O81394   2.120   1.378   1.957
27051WAT     H181395   2.091   1.284   1.939
27051WAT     H281396   2.072   1.414   2.037
27052WAT      O81397   9.344   0.719   4.556
27052WAT     H181398   9.360   0.816   4.574
27052WAT     H281399   9.287   0.680   4.628
27053WAT      O81400   3.080   7.150   9.195
27053WAT     H181401   3.172   7.144   9.234
27053WAT     H281402   3.077   7.225   9.129
27054WAT      O81403   2.493   8.107   8.842
27054WAT     H181404   2.576   8.161   8.860
27054WAT     H281405   2.451   8.137   8.757
27055WAT      O81406   7.018   4.063   2.948
27055WAT     H181407   7.037   4.001   3.023
27055WAT     H281408   7.032   4.158   2.977
27056WAT      O81409   1.168   7.093   2.184
27056WAT     H181410   1.191   7.118   2.279
27056WAT     H281411   1.069   7.094   2.173
27057WAT      O81412   8.194   4.751   1.094
27057WAT     H181413   8.247   4.827   1.057
27057WAT     H281414   8.154   4.777   1.181
27058WAT      O81415   0.799   3.116   4.539
27058WAT     H181416   0.753   3.166   4.613
27058WAT     H281417   0.737   3.048   4.501
27059WAT      O81418   0.691   0.160   3.980
27059WAT     H181419   0.757   0.111   3.924
27059WAT     H281420   0.708   0.258   3.973
27060WAT      O81421   9.112   0.050   9.676
27060WAT     H181422   9.040   0.072   9.610
27060WAT     H281423   9.074   0.050   9.768
27061WAT      O81424   8.046   2.941   3.933
27061WAT     H181425   8.052   3.034   3.897
27061WAT     H281426   7.951   2.918   3.952
27062WAT      O81427   4.211   4.251   3.702
27062WAT     H181428   4.145   4.307   3.652
27062WAT     H281429   4.298   4.251   3.653
27063WAT      O81430   4.108   0.937   2.246
27063WAT     H181431   4.170   0.886   2.305
27063WAT     H281432   4.161   0.986   2.177
27064WAT      O81433   1.628   3.773   1.037
27064WAT     H181434   1.620   3.673   1.027
27064WAT     H281435   1.704   3.794   1.099
27065WAT      O81436   2.305   8.605   5.152
27065WAT     H181437   2.399   8.629   5.176
27065WAT     H281438   2.244   8.624   5.229
27066WAT      O81439   3.784   5.745   9.592
27066WAT     H181440   3.697   5.716   9.553
27066WAT     H281441   3.857   5.733   9.524
27067WAT      O81442   8.443   4.416   9.443
27067WAT     H181443   8.372   4.465   9.493
27067WAT     H281444   8.500   4.364   9.507
27068WAT      O81445   7.024   8.580   9.658
27068WAT     H181446   7.057   8.550   9.568
27068WAT     H281447   7.091   8.554   9.728
27069WAT      O81448   5.378   6.033   2.232
27069WAT     H181449   5.464   6.033   2.284
27069WAT     H281450   5.354   5.940   2.207
27070WAT      O81451   5.195   3.551   9.278
27070WAT     H181452   5.196   3.563   9.179
27070WAT     H281453   5.215   3.455   9.300
27071WAT      O81454   2.216   6.805   6.225
27071WAT     H181455   2.205   6.767   6.317
27071WAT     H281456   2.313   6.814   6.204
27072WAT      O81457   7.741   1.468   5.150
27072WAT     H181458   7.667   1.483   5.085
27072WAT     H281459   7.706   1.419   5.229
27073WAT      O81460   3.524   0.443   2.664
27073WAT     H181461   3.426   0.465   2.655
27073WAT     H281462   3.560   0.484   2.747
27074WAT      O81463   3.604   4.824   4.103
27074WAT     H181464   3.654   4.785   4.025
27074WAT     H281465   3.620   4.768   4.184
27075WAT      O81466   4.881   2.196   7.163
27075WAT     H181467   4.824   2.278   7.166
27075WAT     H281468   4.850   2.131   7.233
27076WAT      O81469   3.602   5.767   6.897
27076WAT     H181470   3.603   5.714   6.982
27076WAT     H281471   3.527   5.833   6.899
27077WAT      O81472   4.292   8.530   5.007
27077WAT     H181473   4.351   8.457   4.971
27077WAT     H281474   4.324   8.557   5.097
27078WAT      O81475   7.637   5.959   5.780
27078WAT     H181476   7.711   6.022   5.801
27078WAT     H281477   7.587   5.991   5.700
27079WAT      O81478   1.043   7.125   9.373
27079WAT     H181479   1.118   7.154   9.314
27079WAT     H281480   1.079   7.075   9.451
27080WAT      O81481   4.459   7.096   5.407
27080WAT     H181482   4.540   7.071   5.461
27080WAT     H281483   4.445   7.195   5.412
27081WAT      O81484   2.586   8.199   6.302
27081WAT     H181485   2.570   8.279   6.244
27081WAT     H281486   2.500   8.149   6.314
27082WAT      O81487   8.085   6.879   8.015
27082WAT     H181488   8.098   6.966   7.969
27082WAT     H281489   8.158   6.865   8.082
27083WAT      O81490   9.595   6.216   7.276
27083WAT     H181491   9.628   6.291   7.333
27083WAT     H281492   9.668   6.184   7.215
27084WAT      O81493   1.663   3.809   2.089
27084WAT     H181494   1.712   3.735   2.042
27084WAT     H281495   1.570   3.816   2.053
27085WAT      O81496   0.471   1.758   8.420
27085WAT     H181497   0.442   1.670   8.384
27085WAT     H281498   0.553   1.746   8.477
27086WAT      O81499   2.426   6.064   8.742
27086WAT     H181500   2.440   6.028   8.835
27086WAT     H281501   2.337   6.110   8.738
27087WAT      O81502   1.742   7.675   5.250
27087WAT     H181503   1.668   7.646   5.189
27087WAT     H281504   1.814   7.719   5.197
27088WAT      O81505   0.063   6.097   5.900
27088WAT     H181506   0.096   6.181   5.857
27088WAT     H281507  -0.028   6.074   5.865
27089WAT      O81508   5.117   1.436   7.441
27089WAT     H181509   5.166   1.492   7.375
27089WAT     H281510   5.025   1.474   7.455
27090WAT      O81511   9.749   8.934   8.336
27090WAT     H181512   9.831   8.886   8.305
27090WAT     H281513   9.768   9.032   8.344
27091WAT      O81514   1.030   2.779   6.377
27091WAT     H181515   0.960   2.736   6.320
27091WAT     H281516   1.092   2.709   6.412
27092WAT      O81517   8.139   0.356   6.831
27092WAT     H181518   8.072   0.308   6.888
27092WAT     H281519   8.094   0.391   6.749
27093WAT      O81520   5.787   7.355   1.642
27093WAT     H181521   5.804   7.441   1.691
27093WAT     H281522   5.829   7.279   1.691
27094WAT      O81523   1.394   8.107   6.661
27094WAT     H181524   1.448   8.046   6.719
27094WAT     H281525   1.354   8.055   6.585
27095WAT      O81526   1.329   3.732   0.034
27095WAT     H181527   1.324   3.762   0.130
27095WAT     H281528   1.385   3.797  -0.018
27096WAT      O81529   2.762   9.398   4.571
27096WAT     H181530   2.856   9.363   4.578
27096WAT     H281531   2.755   9.458   4.491
27097WAT      O81532   1.466   9.728   9.298
27097WAT     H181533   1.481   9.826   9.312
27097WAT     H281534   1.447   9.710   9.202
27098WAT      O81535   0.448   4.133   4.350
27098WAT     H181536   0.403   4.050   4.318
27098WAT     H281537   0.523   4.109   4.411
27099WAT      O81538   3.327   3.909   8.958
27099WAT     H181539   3.254   3.862   9.008
27099WAT     H281540   3.286   3.972   8.891
27100WAT      O81541   2.963   6.913   4.575
27100WAT     H181542   2.979   6.877   4.667
27100WAT     H281543   2.960   6.837   4.510
27101WAT      O81544   7.947   3.053   3.259
27101WAT     H181545   7.860   3.047   3.209
27101WAT     H281546   8.023   3.058   3.194
27102WAT      O81547   2.191   9.418   1.236
27102WAT     H181548   2.141   9.423   1.150
27102WAT     H281549   2.286   9.390   1.217
27103WAT      O81550   7.448   2.810   6.255
27103WAT     H181551   7.509   2.738   6.289
27103WAT     H281552   7.498   2.897   6.251
27104WAT      O81553   9.440   8.185   5.792
27104WAT     H181554   9.416   8.256   5.726
27104WAT     H281555   9.416   8.095   5.754
27105WAT      O81556   5.512   6.047   7.674
27105WAT     H181557   5.578   5.997   7.729
27105WAT     H281558   5.553   6.133   7.643
27106WAT      O81559   9.024   5.343   3.859
27106WAT     H181560   8.961   5.418   3.840
27106WAT     H281561   8.980   5.276   3.918
27107WAT      O81562   6.936   4.039   8.368
27107WAT     H181563   6.916   4.061   8.273
27107WAT     H281564   6.851   4.017   8.415
27108WAT      O81565   3.084   5.108   3.742
27108WAT     H181566   3.113   5.085   3.835
27108WAT     H281567   3.093   5.028   3.683
27109WAT      O81568   9.509   5.781   4.968
27109WAT     H181569   9.604   5.791   4.941
27109WAT     H281570   9.503   5.777   5.068
27110WAT      O81571   6.032   6.045   3.253
27110WAT     H181572   6.031   6.097   3.339
27110WAT     H281573   6.049   5.949   3.272
27111WAT      O81574   1.002   1.841   9.719
27111WAT     H181575   1.037   1.762   9.770
27111WAT     H281576   0.903   1.832   9.708
27112WAT      O81577   3.304   2.920   7.174
27112WAT     H181578   3.287   2.822   7.159
27112WAT     H281579   3.396   2.943   7.143
27113WAT      O81580   8.311   9.021   3.209
27113WAT     H181581   8.243   9.051   3.142
27113WAT     H281582   8.401   9.019   3.166
27114WAT      O81583   4.213   1.870   6.812
27114WAT     H181584   4.244   1.777   6.827
27114WAT     H281585   4.256   1.931   6.879
27115WAT      O81586   7.977   0.077   3.855
27115WAT     H181587   8.062   0.114   3.893
27115WAT     H281588   7.914   0.153   3.836
27116WAT      O81589   4.947   1.116   4.485
27116WAT     H181590   4.933   1.140   4.389
27116WAT     H281591   5.002   1.033   4.491
27117WAT      O81592   5.172   2.232   6.058
27117WAT     H181593   5.269   2.210   6.069
27117WAT     H281594   5.140   2.198   5.969
27118WAT      O81595   9.768   2.476   9.726
27118WAT     H181596   9.864   2.479   9.697
27118WAT     H281597   9.711   2.524   9.660
27119WAT      O81598   2.315   8.665   7.415
27119WAT     H181599   2.301   8.584   7.357
27119WAT     H281600   2.376   8.729   7.369
27120WAT      O81601   4.678   8.096   0.656
27120WAT     H181602   4.767   8.091   0.610
27120WAT     H281603   4.638   8.004   0.660
27121WAT      O81604   0.460   0.070   2.896
27121WAT     H181605   0.385   0.027   2.845
27121WAT     H281606   0.486   0.155   2.850
27122WAT      O81607   9.698   7.627   5.961
27122WAT     H181608   9.697   7.699   6.030
27122WAT     H281609   9.619   7.638   5.901
27123WAT      O81610   8.726   3.885   5.027
27123WAT     H181611   8.663   3.807   5.023
27123WAT     H281612   8.705   3.941   5.107
27124WAT      O81613   3.066   2.829   2.569
27124WAT     H181614   3.166   2.833   2.560
27124WAT     H281615   3.038   2.884   2.648
27125WAT      O81616   9.347   3.265   4.646
27125WAT     H181617   9.265   3.303   4.603
27125WAT     H281618   9.349   3.289   4.743
27126WAT      O81619   6.685   8.881   6.229
27126WAT     H181620   6.785   8.875   6.230
27126WAT     H281621   6.657   8.949   6.160
27127WAT      O81622   3.131   0.966   2.744
27127WAT     H181623   3.182   0.992   2.826
27127WAT     H281624   3.170   1.014   2.665
27128WAT      O81625   5.005   8.328   3.830
27128WAT     H181626   5.058   8.255   3.786
27128WAT     H281627   4.983   8.301   3.924
27129WAT      O81628   5.545   1.316   4.208
27129WAT     H181629   5.620   1.373   4.241
27129WAT     H281630   5.514   1.254   4.281
27130WAT      O81631   0.133   9.245   6.949
27130WAT     H181632   0.045   9.237   6.996
27130WAT     H281633   0.194   9.304   7.003
27131WAT      O81634   4.298   9.192   2.814
27131WAT     H181635   4.346   9.191   2.902
27131WAT     H281636   4.255   9.103   2.798
27132WAT      O81637   9.080   8.256   0.782
27132WAT     H181638   9.077   8.161   0.816
27132WAT     H281639   9.172   8.277   0.750
27133WAT      O81640   1.414   1.777   4.163
27133WAT     H181641   1.368   1.711   4.222
27133WAT     H281642   1.513   1.770   4.176
27134WAT      O81643   8.676   8.274   4.019
27134WAT     H181644   8.752   8.294   3.956
27134WAT     H281645   8.631   8.189   3.992
27135WAT      O81646   1.200   9.296   2.498
27135WAT     H181647   1.155   9.267   2.583
27135WAT     H281648   1.159   9.381   2.466
27136WAT      O81649   8.732   1.545   8.104
27136WAT     H181650   8.820   1.505   8.128
27136WAT     H281651   8.730   1.566   8.006
27137WAT      O81652   6.058   5.078   6.143
27137WAT     H181653   6.135   5.108   6.087
27137WAT     H281654   5.980   5.140   6.130
27138WAT      O81655   5.536   5.314   4.444
27138WAT     H181656   5.493   5.275   4.526
27138WAT     H281657   5.636   5.306   4.452
27139WAT      O81658   9.059   8.571   1.104
27139WAT     H181659   9.097   8.488   1.145
27139WAT     H281660   9.028   8.552   1.011
27140WAT      O81661   7.303   1.110   4.054
27140WAT     H181662   7.345   1.073   3.971
27140WAT     H281663   7.374   1.134   4.120
27141WAT      O81664   0.135   7.975   3.062
27141WAT     H181665   0.216   8.033   3.065
27141WAT     H281666   0.055   8.027   3.091
27142WAT      O81667   0.279   2.218   7.461
27142WAT     H181668   0.365   2.237   7.509
27142WAT     H281669   0.288   2.247   7.366
27143WAT      O81670   8.446   2.321   0.111
27143WAT     H181671   8.408   2.408   0.077
27143WAT     H281672   8.473   2.332   0.207
27144WAT      O81673   1.486   6.768   6.699
27144WAT     H181674   1.512   6.686   6.749
27144WAT     H281675   1.491   6.847   6.761
27145WAT      O81676   2.657   2.170   7.882
27145WAT     H181677   2.576   2.113   7.893
27145WAT     H281678   2.739   2.115   7.902
27146WAT      O81679   4.148   3.609   8.190
27146WAT     H181680   4.206   3.678   8.235
27146WAT     H281681   4.151   3.524   8.243
27147WAT      O81682   3.072   2.616   1.280
27147WAT     H181683   3.147   2.569   1.328
27147WAT     H281684   3.019   2.550   1.228
27148WAT      O81685   6.975   0.240   9.574
27148WAT     H181686   6.959   0.322   9.628
27148WAT     H281687   6.993   0.163   9.635
27149WAT      O81688   7.022   0.884   0.005
27149WAT     H181689   7.099   0.924  -0.044
27149WAT     H281690   7.053   0.805   0.057
27150WAT      O81691   9.348   9.035   4.407
27150WAT     H181692   9.364   8.976   4.487
27150WAT     H281693   9.253   9.065   4.407
27151WAT      O81694   3.366   2.643   4.355
27151WAT     H181695   3.453   2.664   4.311
27151WAT     H281696   3.368   2.674   4.450
27152WAT      O81697   4.656   2.814   8.699
27152WAT     H181698   4.566   2.773   8.711
27152WAT     H281699   4.718   2.782   8.771
27153WAT      O81700   6.972   1.535   0.430
27153WAT     H181701   6.948   1.617   0.378
27153WAT     H281702   7.034   1.478   0.376
27154WAT      O81703   1.738   3.371   4.508
27154WAT     H181704   1.797   3.444   4.473
27154WAT     H281705   1.705   3.395   4.600
27155WAT      O81706   0.394   7.874   9.170
27155WAT     H181707   0.491   7.898   9.160
27155WAT     H281708   0.373   7.864   9.268
27156WAT      O81709   2.480   2.729   0.781
27156WAT     H181710   2.448   2.796   0.848
27156WAT     H281711   2.562   2.683   0.816
27157WAT      O81712   9.651   8.229   9.012
27157WAT     H181713   9.605   8.316   9.027
27157WAT     H281714   9.595   8.155   9.048
27158WAT      O81715   6.584   1.672   5.329
27158WAT     H181716   6.602   1.587   5.378
27158WAT     H281717   6.485   1.683   5.317
27159WAT      O81718   8.020   3.166   7.926
27159WAT     H181719   7.954   3.231   7.892
27159WAT     H281720   7.992   3.073   7.901
27160WAT      O81721   5.674   9.210   3.983
27160WAT     H181722   5.756   9.180   4.032
27160WAT     H281723   5.690   9.300   3.944
27161WAT      O81724   9.197   0.009   4.729
27161WAT     H181725   9.212   0.020   4.827
27161WAT     H281726   9.283  -0.018   4.685
27162WAT      O81727   2.401   5.176   7.468
27162WAT     H181728   2.386   5.127   7.553
27162WAT     H281729   2.498   5.200   7.460
27163WAT      O81730   7.685   4.292   2.146
27163WAT     H181731   7.759   4.351   2.114
27163WAT     H281732   7.598   4.324   2.108
27164WAT      O81733   7.436   4.966   8.160
27164WAT     H181734   7.358   4.906   8.181
27164WAT     H281735   7.445   4.976   8.061
27165WAT      O81736   8.842   6.727   9.665
27165WAT     H181737   8.849   6.638   9.620
27165WAT     H281738   8.924   6.743   9.720
27166WAT      O81739   2.573   0.911   3.200
27166WAT     H181740   2.575   0.928   3.299
27166WAT     H281741   2.480   0.928   3.166
27167WAT      O81742   7.672   8.386   4.537
27167WAT     H181743   7.635   8.299   4.569
27167WAT     H281744   7.625   8.413   4.453
27168WAT      O81745   7.958   8.248   4.540
27168WAT     H181746   7.950   8.162   4.591
27168WAT     H281747   7.868   8.291   4.533
27169WAT      O81748   0.496   1.406   6.140
27169WAT     H181749   0.472   1.439   6.232
27169WAT     H281750   0.583   1.357   6.144
27170WAT      O81751   4.785   0.595   7.484
27170WAT     H181752   4.818   0.630   7.396
27170WAT     H281753   4.690   0.623   7.497
27171WAT      O81754   3.154   8.822   4.640
27171WAT     H181755   3.209   8.839   4.558
27171WAT     H281756   3.057   8.817   4.613
27172WAT      O81757   1.291   6.721   7.519
27172WAT     H181758   1.247   6.720   7.609
27172WAT     H281759   1.389   6.701   7.529
27173WAT      O81760   5.285   0.609   5.500
27173WAT     H181761   5.257   0.697   5.540
27173WAT     H281762   5.210   0.573   5.445
27174WAT      O81763   1.838   5.388   4.635
27174WAT     H181764   1.934   5.373   4.655
27174WAT     H281765   1.823   5.382   4.536
27175WAT      O81766   9.015   6.215   5.215
27175WAT     H181767   9.016   6.241   5.311
27175WAT     H281768   9.081   6.272   5.165
27176WAT      O81769   8.621   0.527   2.277
27176WAT     H181770   8.556   0.517   2.202
27176WAT     H281771   8.611   0.450   2.340
27177WAT      O81772   8.749   4.543   6.719
27177WAT     H181773   8.764   4.447   6.698
27177WAT     H281774   8.666   4.553   6.773
27178WAT      O81775   3.281   0.772   5.399
27178WAT     H181776   3.257   0.862   5.438
27178WAT     H281777   3.356   0.733   5.451
27179WAT      O81778   1.709   6.719   8.969
27179WAT     H181779   1.684   6.636   9.018
27179WAT     H281780   1.664   6.721   8.880
27180WAT      O81781   7.582   2.401   7.085
27180WAT     H181782   7.591   2.304   7.107
27180WAT     H281783   7.505   2.414   7.022
27181WAT      O81784   6.160   9.510   2.696
27181WAT     H181785   6.254   9.482   2.678
27181WAT     H281786   6.146   9.602   2.662
27182WAT      O81787   3.178   9.484   5.773
27182WAT     H181788   3.119   9.550   5.727
27182WAT     H281789   3.217   9.526   5.855
27183WAT      O81790   0.487   7.184   1.287
27183WAT     H181791   0.435   7.251   1.340
27183WAT     H281792   0.479   7.094   1.330
27184WAT      O81793   6.337   8.614   8.645
27184WAT     H181794   6.299   8.702   8.618
27184WAT     H281795   6.266   8.558   8.687
27185WAT      O81796   0.663   4.498   2.156
27185WAT     H181797   0.584   4.515   2.097
27185WAT     H281798   0.739   4.558   2.129
27186WAT      O81799   5.282   9.360   8.187
27186WAT     H181800   5.378   9.382   8.170
27186WAT     H281801   5.252   9.403   8.273
27187WAT      O81802   3.811   1.738   0.649
27187WAT     H181803   3.880   1.804   0.678
27187WAT     H281804   3.769   1.695   0.729
27188WAT      O81805   2.578   5.868   4.175
27188WAT     H181806   2.509   5.905   4.237
27188WAT     H281807   2.550   5.776   4.145
27189WAT      O81808   2.742   8.856   5.519
27189WAT     H181809   2.726   8.934   5.457
27189WAT     H281810   2.799   8.886   5.595
27190WAT      O81811   7.151   6.546   7.381
27190WAT     H181812   7.057   6.530   7.411
27190WAT     H281813   7.167   6.499   7.295
27191WAT      O81814   7.759   5.558   8.037
27191WAT     H181815   7.760   5.554   8.137
27191WAT     H281816   7.668   5.586   8.006
27192WAT      O81817   6.479   5.782   7.654
27192WAT     H181818   6.427   5.747   7.576
27192WAT     H281819   6.548   5.847   7.622
27193WAT      O81820   0.747   8.378   5.314
27193WAT     H181821   0.766   8.327   5.398
27193WAT     H281822   0.680   8.327   5.260
27194WAT      O81823   7.128   6.501   7.083
27194WAT     H181824   7.029   6.493   7.079
27194WAT     H281825   7.156   6.592   7.052
27195WAT      O81826   0.212   7.536   3.122
27195WAT     H181827   0.182   7.459   3.177
27195WAT     H281828   0.282   7.505   3.057
27196WAT      O81829   6.665   0.601   9.480
27196WAT     H181830   6.650   0.507   9.510
27196WAT     H281831   6.686   0.602   9.382
27197WAT      O81832   6.801   1.598   3.196
27197WAT     H181833   6.850   1.683   3.177
27197WAT     H281834   6.707   1.617   3.221
27198WAT      O81835   2.239   8.437   9.535
27198WAT     H181836   2.283   8.524   9.556
27198WAT     H281837   2.153   8.453   9.487
27199WAT      O81838   9.785   3.117   7.104
27199WAT     H181839   9.816   3.195   7.159
27199WAT     H281840   9.749   3.046   7.164
27200WAT      O81841   4.167   3.209   4.917
27200WAT     H181842   4.258   3.173   4.896
27200WAT     H281843   4.117   3.142   4.971
27201WAT      O81844   5.801   7.175   2.688
27201WAT     H181845   5.708   7.211   2.691
27201WAT     H281846   5.865   7.249   2.666
27202WAT      O81847   3.243   5.612   1.810
27202WAT     H181848   3.211   5.667   1.734
27202WAT     H281849   3.343   5.618   1.816
27203WAT      O81850   1.515   0.611   5.672
27203WAT     H181851   1.570   0.582   5.750
27203WAT     H281852   1.574   0.636   5.596
27204WAT      O81853   5.824   0.211   1.487
27204WAT     H181854   5.918   0.211   1.521
27204WAT     H281855   5.822   0.171   1.396
27205WAT      O81856   5.443   8.985   8.888
27205WAT     H181857   5.448   9.055   8.816
27205WAT     H281858   5.465   9.026   8.976
27206WAT      O81859   1.615   2.663   3.724
27206WAT     H181860   1.559   2.673   3.642
27206WAT     H281861   1.559   2.682   3.805
27207WAT      O81862   2.437   0.288   5.843
27207WAT     H181863   2.427   0.349   5.765
27207WAT     H281864   2.437   0.193   5.811
27208WAT      O81865   1.133   6.610   0.850
27208WAT     H181866   1.067   6.536   0.858
27208WAT     H281867   1.201   6.602   0.922
27209WAT      O81868   1.108   4.652   5.822
27209WAT     H181869   1.131   4.572   5.766
27209WAT     H281870   1.145   4.734   5.778
27210WAT      O81871   0.175   0.273   6.021
27210WAT     H181872   0.236   0.287   6.098
27210WAT     H281873   0.092   0.228   6.051
27211WAT      O81874   5.297   2.310   8.754
27211WAT     H181875   5.338   2.280   8.667
27211WAT     H281876   5.292   2.410   8.755
27212WAT      O81877   7.504   0.070   5.342
27212WAT     H181878   7.480   0.159   5.381
27212WAT     H281879   7.560   0.083   5.261
27213WAT      O81880   7.896   9.269   6.001
27213WAT     H181881   7.882   9.191   6.063
27213WAT     H281882   7.892   9.353   6.054
27214WAT      O81883   4.325   0.247   3.126
27214WAT     H181884   4.361   0.337   3.150
27214WAT     H281885   4.284   0.251   3.034
27215WAT      O81886   1.551   4.192   9.304
27215WAT     H181887   1.506   4.109   9.340
27215WAT     H281888   1.520   4.271   9.356
27216WAT      O81889   1.327   1.391   5.337
27216WAT     H181890   1.343   1.328   5.261
27216WAT     H281891   1.401   1.381   5.404
27217WAT      O81892   6.964   8.215   6.074
27217WAT     H181893   6.954   8.121   6.107
27217WAT     H281894   7.039   8.218   6.007
27218WAT      O81895   2.732   7.603   7.295
27218WAT     H181896   2.723   7.639   7.388
27218WAT     H281897   2.764   7.508   7.299
27219WAT      O81898   7.224   6.933   6.804
27219WAT     H181899   7.273   6.909   6.721
27219WAT     H281900   7.127   6.944   6.784
27220WAT      O81901   5.024   6.527   0.046
27220WAT     H181902   5.048   6.606   0.102
27220WAT     H281903   5.012   6.447   0.104
27221WAT      O81904   1.425   8.620   3.456
27221WAT     H181905   1.376   8.648   3.374
27221WAT     H281906   1.406   8.685   3.530
27222WAT      O81907   2.029   0.034   5.899
27222WAT     H181908   2.047   0.007   5.993
27222WAT     H281909   1.931   0.046   5.885
27223WAT      O81910   6.435   5.428   1.001
27223WAT     H181911   6.484   5.367   0.939
27223WAT     H281912   6.422   5.517   0.956
27224WAT      O81913   0.633   9.522   6.461
27224WAT     H181914   0.645   9.450   6.392
27224WAT     H281915   0.552   9.501   6.517
27225WAT      O81916   1.278   2.365   3.941
27225WAT     H181917   1.320   2.282   3.906
27225WAT     H281918   1.190   2.343   3.984
27226WAT      O81919   8.857   1.084   7.613
27226WAT     H181920   8.796   1.007   7.632
27226WAT     H281921   8.819   1.139   7.540
27227WAT      O81922   9.173   7.235   6.416
27227WAT     H181923   9.198   7.209   6.322
27227WAT     H281924   9.202   7.329   6.433
27228WAT      O81925   9.758   5.428   5.447
27228WAT     H181926   9.786   5.519   5.480
27228WAT     H281927   9.833   5.386   5.397
27229WAT      O81928   1.538   2.663   4.301
27229WAT     H181929   1.566   2.723   4.226
27229WAT     H281930   1.582   2.693   4.385
27230WAT      O81931   8.234   3.360   2.882
27230WAT     H181932   8.308   3.297   2.856
27230WAT     H281933   8.149   3.330   2.839
27231WAT      O81934   7.077   8.462   1.504
27231WAT     H181935   7.072   8.533   1.433
27231WAT     H281936   7.093   8.505   1.593
27232WAT      O81937   3.657   6.001   9.106
27232WAT     H181938   3.634   6.097   9.090
27232WAT     H281939   3.739   5.997   9.163
27233WAT      O81940   3.335   7.093   9.322
27233WAT     H181941   3.412   7.062   9.267
27233WAT     H281942   3.312   7.022   9.389
27234WAT      O81943   9.419   3.622   4.720
27234WAT     H181944   9.375   3.569   4.647
27234WAT     H281945   9.352   3.685   4.760
27235WAT      O81946   2.512   1.591   3.795
27235WAT     H181947   2.521   1.584   3.894
27235WAT     H281948   2.416   1.586   3.769
27236WAT      O81949   2.791   9.627   8.795
27236WAT     H181950   2.765   9.724   8.792
27236WAT     H281951   2.805   9.594   8.702
27237WAT      O81952   9.762   3.005   6.033
27237WAT     H181953   9.836   3.069   6.049
27237WAT     H281954   9.681   3.032   6.086
27238WAT      O81955   4.761   6.552   8.946
27238WAT     H181956   4.690   6.557   8.875
27238WAT     H281957   4.848   6.584   8.909
27239WAT      O81958   4.232   1.636   5.444
27239WAT     H181959   4.204   1.553   5.396
27239WAT     H281960   4.319   1.620   5.491
27240WAT      O81961   9.507   0.491   3.255
27240WAT     H181962   9.538   0.401   3.226
27240WAT     H281963   9.409   0.501   3.238
27241WAT      O81964   3.247   2.282   7.355
27241WAT     H181965   3.300   2.365   7.374
27241WAT     H281966   3.181   2.300   7.282
27242WAT      O81967   5.462   6.318   4.629
27242WAT     H181968   5.555   6.287   4.608
27242WAT     H281969   5.396   6.256   4.585
27243WAT      O81970   5.954   4.064   7.642
27243WAT     H181971   5.860   4.040   7.619
27243WAT     H281972   5.974   4.036   7.736
27244WAT      O81973   4.471   3.682   7.409
27244WAT     H181974   4.498   3.771   7.372
27244WAT     H281975   4.372   3.671   7.400
27245WAT      O81976   1.185   7.142   5.935
27245WAT     H181977   1.262   7.169   5.878
27245WAT     H281978   1.216   7.073   6.001
27246WAT      O81979   3.021   7.588   6.011
27246WAT     H181980   2.993   7.617   5.920
27246WAT     H281981   2.990   7.654   6.079
27247WAT      O81982   7.599   0.267   1.371
27247WAT     H181983   7.694   0.257   1.340
27247WAT     H281984   7.564   0.356   1.341
27248WAT      O81985   9.214   7.948   0.095
27248WAT     H181986   9.260   8.016   0.153
27248WAT     H281987   9.128   7.921   0.137
27249WAT      O81988   6.488   4.880   6.767
27249WAT     H181989   6.530   4.831   6.690
27249WAT     H281990   6.418   4.823   6.809
27250WAT      O81991   8.689   6.258   3.150
27250WAT     H181992   8.779   6.219   3.128
27250WAT     H281993   8.622   6.230   3.081
27251WAT      O81994   4.134   2.435   1.471
27251WAT     H181995   4.120   2.340   1.498
27251WAT     H281996   4.050   2.487   1.487
27252WAT      O81997   3.749   0.397   7.489
27252WAT     H181998   3.751   0.315   7.432
27252WAT     H281999   3.758   0.478   7.431
27253WAT      O82000   2.209   7.053   7.673
27253WAT     H182001   2.298   7.045   7.719
27253WAT     H282002   2.163   7.135   7.704
27254WAT      O82003   2.894   2.100   7.977
27254WAT     H182004   2.934   2.090   7.886
27254WAT     H282005   2.936   2.033   8.039
27255WAT      O82006   7.123   2.427   4.744
27255WAT     H182007   7.169   2.501   4.793
27255WAT     H282008   7.174   2.406   4.661
27256WAT      O82009   2.133   3.484   3.514
27256WAT     H182010   2.088   3.463   3.427
27256WAT     H282011   2.213   3.424   3.524
27257WAT      O82012   4.182   4.961   4.300
27257WAT     H182013   4.220   4.958   4.393
27257WAT     H282014   4.205   4.877   4.252
27258WAT      O82015   4.873   3.273   9.173
27258WAT     H182016   4.855   3.311   9.264
27258WAT     H282017   4.869   3.346   9.105
27259WAT      O82018   4.011   7.123   0.800
27259WAT     H182019   4.013   7.175   0.886
27259WAT     H282020   4.040   7.029   0.817
27260WAT      O82021   4.997   8.788   6.532
27260WAT     H182022   4.989   8.828   6.623
27260WAT     H282023   5.021   8.860   6.467
27261WAT      O82024   2.347   5.146   3.713
27261WAT     H182025   2.295   5.223   3.676
27261WAT     H282026   2.387   5.093   3.638
27262WAT      O82027   4.654   6.951   0.987
27262WAT     H182028   4.707   7.026   1.026
27262WAT     H282029   4.563   6.949   1.029
27263WAT      O82030   3.235   0.667   8.871
27263WAT     H182031   3.256   0.615   8.788
27263WAT     H282032   3.195   0.755   8.846
27264WAT      O82033   5.656   6.099   3.592
27264WAT     H182034   5.579   6.049   3.553
27264WAT     H282035   5.655   6.194   3.559
27265WAT      O82036   7.558   5.081   3.195
27265WAT     H182037   7.646   5.062   3.151
27265WAT     H282038   7.568   5.070   3.294
27266WAT      O82039   9.110   3.908   9.872
27266WAT     H182040   9.056   3.856   9.806
27266WAT     H282041   9.048   3.957   9.933
27267WAT      O82042   6.568   1.939   2.899
27267WAT     H182043   6.598   1.906   2.988
27267WAT     H282044   6.549   2.037   2.904
27268WAT      O82045   6.039   6.181   5.224
27268WAT     H182046   6.121   6.197   5.169
27268WAT     H282047   6.041   6.087   5.259
27269WAT      O82048   1.737   5.535   8.186
27269WAT     H182049   1.739   5.566   8.281
27269WAT     H282050   1.670   5.589   8.135
27270WAT      O82051   7.328   6.551   0.160
27270WAT     H182052   7.233   6.558   0.190
27270WAT     H282053   7.375   6.638   0.178
27271WAT      O82054   0.622   2.153   7.896
27271WAT     H182055   0.680   2.234   7.889
27271WAT     H282056   0.677   2.076   7.929
27272WAT      O82057   4.949   4.453   9.797
27272WAT     H182058   5.027   4.460   9.735
27272WAT     H282059   4.976   4.400   9.878
27273WAT      O82060   9.622   9.014   1.237
27273WAT     H182061   9.677   9.060   1.168
27273WAT     H282062   9.681   8.986   1.313
27274WAT      O82063   4.457   5.387   5.441
27274WAT     H182064   4.502   5.353   5.358
27274WAT     H282065   4.379   5.444   5.415
27275WAT      O82066   6.048   4.744   6.408
27275WAT     H182067   6.080   4.838   6.421
27275WAT     H282068   5.974   4.724   6.472
27276WAT      O82069   4.002   9.023   1.928
27276WAT     H182070   3.986   9.122   1.925
27276WAT     H282071   4.087   9.004   1.977
27277WAT      O82072   2.051   6.163   4.760
27277WAT     H182073   2.054   6.063   4.754
27277WAT     H282074   1.957   6.193   4.773
27278WAT      O82075   6.710   0.142   9.778
27278WAT     H182076   6.773   0.065   9.767
27278WAT     H282077   6.690   0.155   9.875
27279WAT      O82078   2.823   9.747   1.962
27279WAT     H182079   2.743   9.728   2.018
27279WAT     H282080   2.866   9.662   1.933
27280WAT      O82081   7.896   1.300   9.160
27280WAT     H182082   7.810   1.269   9.119
27280WAT     H282083   7.930   1.379   9.110
27281WAT      O82084   3.664   4.466   5.338
27281WAT     H182085   3.566   4.484   5.352
27281WAT     H282086   3.685   4.473   5.240
27282WAT      O82087   2.243   3.431   6.223
27282WAT     H182088   2.155   3.384   6.230
27282WAT     H282089   2.255   3.491   6.302
27283WAT      O82090   5.895   8.317   6.723
27283WAT     H182091   5.859   8.374   6.797
27283WAT     H282092   5.994   8.314   6.729
27284WAT      O82093   2.433   7.882   9.847
27284WAT     H182094   2.392   7.858   9.759
27284WAT     H282095   2.418   7.979   9.865
27285WAT      O82096   3.552   8.217   1.054
27285WAT     H182097   3.636   8.246   1.100
27285WAT     H282098   3.473   8.243   1.110
27286WAT      O82099   9.003   9.115   1.004
27286WAT     H182100   9.004   9.126   0.905
27286WAT     H282101   9.070   9.045   1.031
27287WAT      O82102   6.626   4.016   3.409
27287WAT     H182103   6.580   4.023   3.497
27287WAT     H282104   6.694   4.088   3.400
27288WAT      O82105   5.117   8.551   9.085
27288WAT     H182106   5.215   8.567   9.072
27288WAT     H282107   5.084   8.602   9.164
27289WAT      O82108   8.669   7.284   0.759
27289WAT     H182109   8.617   7.369   0.765
27289WAT     H282110   8.616   7.217   0.707
27290WAT      O82111   6.467   7.765   9.423
27290WAT     H182112   6.386   7.732   9.472
27290WAT     H282113   6.503   7.846   9.469
27291WAT      O82114   6.763   0.557   1.770
27291WAT     H182115   6.819   0.633   1.738
27291WAT     H282116   6.708   0.522   1.694
27292WAT      O82117   6.120   6.992   4.337
27292WAT     H182118   6.026   7.017   4.313
27292WAT     H282119   6.161   6.941   4.261
27293WAT      O82120   5.472   0.886   2.171
27293WAT     H182121   5.567   0.870   2.199
27293WAT     H282122   5.430   0.798   2.146
27294WAT      O82123   8.805   4.322   7.878
27294WAT     H182124   8.865   4.385   7.829
27294WAT     H282125   8.715   4.321   7.835
27295WAT      O82126   4.512   6.673   7.906
27295WAT     H182127   4.588   6.724   7.865
27295WAT     H282128   4.466   6.730   7.974
27296WAT      O82129   0.860   1.016   2.991
27296WAT     H182130   0.863   0.987   3.086
27296WAT     H282131   0.892   0.942   2.932
27297WAT      O82132   9.363   0.644   2.554
27297WAT     H182133   9.302   0.717   2.587
27297WAT     H282134   9.455   0.660   2.588
27298WAT      O82135   1.881   6.225   4.531
27298WAT     H182136   1.896   6.292   4.604
27298WAT     H282137   1.789   6.187   4.540
27299WAT      O82138   7.862   2.338   7.388
27299WAT     H182139   7.874   2.253   7.335
27299WAT     H282140   7.813   2.405   7.332
27300WAT      O82141   4.731   3.080   8.582
27300WAT     H182142   4.797   3.119   8.646
27300WAT     H282143   4.696   2.993   8.619
27301WAT      O82144   9.764   3.233   8.370
27301WAT     H182145   9.799   3.308   8.313
27301WAT     H282146   9.814   3.149   8.350
27302WAT      O82147   0.490   8.927   3.728
27302WAT     H182148   0.411   8.904   3.671
27302WAT     H282149   0.479   8.884   3.818
27303WAT      O82150   7.542   7.677   7.607
27303WAT     H182151   7.603   7.681   7.686
27303WAT     H282152   7.453   7.717   7.631
27304WAT      O82153   8.898   1.483   3.384
27304WAT     H182154   8.836   1.446   3.315
27304WAT     H282155   8.988   1.440   3.375
27305WAT      O82156   3.875   0.196   3.587
27305WAT     H182157   3.781   0.188   3.553
27305WAT     H282158   3.902   0.109   3.629
27306WAT      O82159   3.871   8.062   0.013
27306WAT     H182160   3.937   7.989   0.032
27306WAT     H282161   3.819   8.040  -0.069
27307WAT      O82162   4.464   7.013   6.528
27307WAT     H182163   4.530   6.948   6.567
27307WAT     H282164   4.373   6.994   6.565
27308WAT      O82165   6.620   2.428   7.973
27308WAT     H182166   6.591   2.523   7.973
27308WAT     H282167   6.608   2.389   7.881
27309WAT      O82168   7.042   2.874   6.317
27309WAT     H182169   7.076   2.908   6.405
27309WAT     H282170   6.979   2.941   6.278
27310WAT      O82171   9.088   5.080   8.244
27310WAT     H182172   9.063   5.169   8.283
27310WAT     H282173   9.141   5.094   8.160
27311WAT      O82174   9.347   1.750   4.280
27311WAT     H182175   9.286   1.734   4.358
27311WAT     H282176   9.408   1.671   4.269
27312WAT      O82177   8.696   3.783   5.787
27312WAT     H182178   8.608   3.794   5.742
27312WAT     H282179   8.758   3.857   5.758
27313WAT      O82180   5.890   2.064   0.242
27313WAT     H182181   5.982   2.028   0.256
27313WAT     H282182   5.856   2.104   0.327
27314WAT      O82183   5.019   4.030   0.244
27314WAT     H182184   5.031   3.975   0.327
27314WAT     H282185   5.094   4.012   0.181
27315WAT      O82186   0.500   9.030   4.745
27315WAT     H182187   0.490   8.967   4.822
27315WAT     H282188   0.596   9.032   4.716
27316WAT      O82189   9.790   4.561   8.989
27316WAT     H182190   9.847   4.528   9.065
27316WAT     H282191   9.849   4.593   8.915
27317WAT      O82192   8.723   1.887   2.194
27317WAT     H182193   8.713   1.792   2.164
27317WAT     H282194   8.671   1.947   2.132
27318WAT      O82195   6.486   0.696   7.796
27318WAT     H182196   6.483   0.596   7.796
27318WAT     H282197   6.489   0.729   7.890
27319WAT      O82198   2.780   9.072   1.874
27319WAT     H182199   2.865   9.064   1.926
27319WAT     H282200   2.751   8.982   1.843
27320WAT      O82201   6.544   2.093   7.187
27320WAT     H182202   6.542   1.997   7.157
27320WAT     H282203   6.485   2.147   7.128
27321WAT      O82204   6.565   7.560   8.785
27321WAT     H182205   6.648   7.614   8.794
27321WAT     H282206   6.586   7.476   8.734
27322WAT      O82207   1.194   2.529   3.535
27322WAT     H182208   1.257   2.460   3.570
27322WAT     H282209   1.105   2.519   3.578
27323WAT      O82210   2.361   1.706   3.486
27323WAT     H182211   2.370   1.675   3.581
27323WAT     H282212   2.344   1.628   3.427
27324WAT      O82213   4.131   2.302   4.164
27324WAT     H182214   4.115   2.369   4.236
27324WAT     H282215   4.228   2.303   4.138
27325WAT      O82216   1.559   3.702   1.789
27325WAT     H182217   1.500   3.625   1.765
27325WAT     H282218   1.651   3.667   1.810
27326WAT      O82219   7.559   0.365   0.572
27326WAT     H182220   7.496   0.287   0.577
27326WAT     H282221   7.642   0.337   0.525
27327WAT      O82222   0.708   5.725   3.461
27327WAT     H182223   0.716   5.641   3.408
27327WAT     H282224   0.766   5.719   3.543
27328WAT      O82225   8.339   5.443   9.219
27328WAT     H182226   8.355   5.398   9.306
27328WAT     H282227   8.427   5.459   9.173
27329WAT      O82228   5.448   6.943   1.190
27329WAT     H182229   5.469   7.011   1.120
27329WAT     H282230   5.388   6.873   1.153
27330WAT      O82231   8.905   8.033   2.439
27330WAT     H182232   8.882   8.102   2.508
27330WAT     H282233   8.900   7.942   2.480
27331WAT      O82234   4.737   0.593   9.394
27331WAT     H182235   4.647   0.586   9.350
27331WAT     H282236   4.726   0.635   9.484
27332WAT      O82237   2.601   2.993   3.569
27332WAT     H182238   2.529   3.005   3.638
27332WAT     H282239   2.688   3.025   3.605
27333WAT      O82240   3.122   6.283   9.882
27333WAT     H182241   3.076   6.372   9.876
27333WAT     H282242   3.185   6.283   9.960
27334WAT      O82243   1.668   0.406   5.077
27334WAT     H182244   1.734   0.331   5.079
27334WAT     H282245   1.694   0.471   5.006
27335WAT      O82246   1.072   9.569   1.045
27335WAT     H182247   1.090   9.644   1.110
27335WAT     H282248   1.092   9.482   1.090
27336WAT      O82249   9.380   4.770   5.468
27336WAT     H182250   9.336   4.683   5.492
27336WAT     H282251   9.330   4.845   5.512
27337WAT      O82252   8.781   2.996   8.531
27337WAT     H182253   8.706   2.930   8.537
27337WAT     H282254   8.776   3.059   8.609
27338WAT      O82255   8.118   5.156   9.590
27338WAT     H182256   8.033   5.157   9.538
27338WAT     H282257   8.142   5.250   9.616
27339WAT      O82258   4.724   2.123   3.884
27339WAT     H182259   4.804   2.079   3.843
27339WAT     H282260   4.661   2.053   3.918
27340WAT      O82261   8.753   6.879   1.674
27340WAT     H182262   8.705   6.960   1.709
27340WAT     H282263   8.822   6.908   1.608
27341WAT      O82264   2.532   3.431   4.663
27341WAT     H182265   2.458   3.458   4.601
27341WAT     H282266   2.528   3.333   4.679
27342WAT      O82267   1.176   5.957   2.713
27342WAT     H182268   1.142   5.889   2.778
27342WAT     H282269   1.276   5.951   2.708
27343WAT      O82270   7.477   9.390   0.910
27343WAT     H182271   7.448   9.308   0.960
27343WAT     H282272   7.562   9.425   0.949
27344WAT      O82273   3.624   8.869   2.559
27344WAT     H182274   3.688   8.794   2.541
27344WAT     H282275   3.559   8.877   2.484
27345WAT      O82276   6.904   5.177   1.652
27345WAT     H182277   6.833   5.241   1.681
27345WAT     H282278   6.994   5.216   1.670
27346WAT      O82279   6.286   8.110   9.426
27346WAT     H182280   6.214   8.040   9.433
27346WAT     H282281   6.373   8.071   9.454
27347WAT      O82282   3.046   6.589   7.012
27347WAT     H182283   3.054   6.618   6.917
27347WAT     H282284   3.102   6.508   7.028
27348WAT      O82285   1.714   8.396   7.978
27348WAT     H182286   1.667   8.328   7.922
27348WAT     H282287   1.787   8.351   8.029
27349WAT      O82288   8.964   4.713   0.861
27349WAT     H182289   8.988   4.751   0.772
27349WAT     H282290   8.912   4.628   0.848
27350WAT      O82291   5.150   5.748   9.197
27350WAT     H182292   5.150   5.784   9.290
27350WAT     H282293   5.096   5.665   9.193
27351WAT      O82294   7.539   4.301   2.372
27351WAT     H182295   7.593   4.308   2.288
27351WAT     H282296   7.470   4.229   2.361
27352WAT      O82297   6.370   9.733   4.705
27352WAT     H182298   6.452   9.686   4.673
27352WAT     H282299   6.396   9.813   4.759
27353WAT      O82300   9.520   5.741   5.235
27353WAT     H182301   9.470   5.686   5.302
27353WAT     H282302   9.618   5.733   5.252
27354WAT      O82303   5.842   2.350   6.831
27354WAT     H182304   5.897   2.397   6.900
27354WAT     H282305   5.891   2.268   6.800
27355WAT      O82306   3.433   3.845   1.775
27355WAT     H182307   3.383   3.920   1.818
27355WAT     H282308   3.388   3.821   1.689
27356WAT      O82309   8.511   4.416   4.907
27356WAT     H182310   8.598   4.435   4.862
27356WAT     H282311   8.505   4.318   4.928
27357WAT      O82312   5.821   8.889   2.310
27357WAT     H182313   5.783   8.982   2.316
27357WAT     H282314   5.806   8.842   2.397
27358WAT      O82315   8.201   6.751   1.147
27358WAT     H182316   8.137   6.828   1.149
27358WAT     H282317   8.257   6.751   1.229
27359WAT      O82318   5.478   9.478   0.583
27359WAT     H182319   5.413   9.405   0.603
27359WAT     H282320   5.479   9.497   0.485
27360WAT      O82321   1.670   8.085   1.201
27360WAT     H182322   1.580   8.130   1.199
27360WAT     H282323   1.662   7.994   1.161
27361WAT      O82324   6.108   9.390   8.286
27361WAT     H182325   6.195   9.341   8.282
27361WAT     H282326   6.033   9.324   8.290
27362WAT      O82327   8.310   7.604   5.593
27362WAT     H182328   8.276   7.601   5.687
27362WAT     H282329   8.265   7.532   5.539
27363WAT      O82330   7.215   6.874   9.888
27363WAT     H182331   7.302   6.830   9.909
27363WAT     H282332   7.200   6.875   9.790
27364WAT      O82333   5.938   1.244   1.253
27364WAT     H182334   5.926   1.342   1.232
27364WAT     H282335   5.964   1.196   1.169
27365WAT      O82336   4.719   5.536   7.684
27365WAT     H182337   4.687   5.630   7.691
27365WAT     H282338   4.684   5.483   7.761
27366WAT      O82339   5.135   0.885   0.467
27366WAT     H182340   5.219   0.870   0.415
27366WAT     H282341   5.149   0.857   0.562
27367WAT      O82342   8.627   7.003   5.455
27367WAT     H182343   8.527   7.003   5.455
27367WAT     H282344   8.660   6.944   5.382
27368WAT      O82345   6.620   8.305   8.504
27368WAT     H182346   6.651   8.394   8.472
27368WAT     H282347   6.699   8.244   8.512
27369WAT      O82348   2.401   9.121   0.648
27369WAT     H182349   2.442   9.197   0.699
27369WAT     H282350   2.465   9.044   0.646
27370WAT      O82351   1.144   4.198   4.884
27370WAT     H182352   1.110   4.142   4.960
27370WAT     H282353   1.084   4.277   4.872
27371WAT      O82354   9.113   1.103   2.558
27371WAT     H182355   9.062   1.185   2.582
27371WAT     H282356   9.156   1.115   2.469
27372WAT      O82357   3.933   2.614   5.666
27372WAT     H182358   3.917   2.613   5.568
27372WAT     H282359   3.901   2.527   5.706
27373WAT      O82360   7.532   4.067   4.289
27373WAT     H182361   7.508   4.055   4.385
27373WAT     H282362   7.449   4.068   4.233
27374WAT      O82363   8.500   3.710   4.952
27374WAT     H182364   8.414   3.750   4.921
27374WAT     H282365   8.543   3.659   4.877
27375WAT      O82366   5.046   9.508   7.282
27375WAT     H182367   5.083   9.504   7.375
27375WAT     H282368   4.990   9.428   7.265
27376WAT      O82369   4.891   0.264   4.316
27376WAT     H182370   4.846   0.178   4.289
27376WAT     H282371   4.958   0.245   4.387
27377WAT      O82372   9.487   6.404   1.583
27377WAT     H182373   9.546   6.377   1.508
27377WAT     H282374   9.406   6.345   1.584
27378WAT      O82375   6.761   9.490   8.434
27378WAT     H182376   6.681   9.433   8.451
27378WAT     H282377   6.830   9.437   8.386
27379WAT      O82378   8.774   6.859   2.072
27379WAT     H182379   8.791   6.939   2.129
27379WAT     H282380   8.791   6.882   1.976
27380WAT      O82381   6.676   0.927   4.445
27380WAT     H182382   6.733   0.870   4.504
27380WAT     H282383   6.592   0.878   4.422
27381WAT      O82384   6.502   6.299   0.062
27381WAT     H182385   6.461   6.384   0.096
27381WAT     H282386   6.433   6.248   0.010
27382WAT      O82387   9.837   0.716   7.294
27382WAT     H182388   9.895   0.792   7.321
27382WAT     H282389   9.817   0.659   7.374
27383WAT      O82390   4.159   4.894   0.755
27383WAT     H182391   4.064   4.871   0.777
27383WAT     H282392   4.218   4.866   0.831
27384WAT      O82393   2.416   7.521   1.693
27384WAT     H182394   2.354   7.548   1.767
27384WAT     H282395   2.389   7.568   1.609
27385WAT      O82396   9.410   7.254   8.095
27385WAT     H182397   9.394   7.300   8.008
27385WAT     H282398   9.407   7.155   8.081
27386WAT      O82399   2.536   9.830   3.288
27386WAT     H182400   2.611   9.870   3.234
27386WAT     H282401   2.450   9.840   3.238
27387WAT      O82402   4.668   8.509   5.180
27387WAT     H182403   4.678   8.413   5.153
27387WAT     H282404   4.578   8.522   5.222
27388WAT      O82405   9.442   1.938   8.376
27388WAT     H182406   9.344   1.941   8.360
27388WAT     H282407   9.490   1.984   8.301
27389WAT      O82408   4.741   6.302   6.463
27389WAT     H182409   4.735   6.266   6.556
27389WAT     H282410   4.680   6.250   6.403
27390WAT      O82411   7.133   3.820   8.934
27390WAT     H182412   7.092   3.730   8.952
27390WAT     H282413   7.105   3.851   8.844
27391WAT      O82414   6.456   3.278   5.543
27391WAT     H182415   6.480   3.211   5.613
27391WAT     H282416   6.358   3.272   5.524
27392WAT      O82417   1.717   5.009   3.389
27392WAT     H182418   1.743   5.071   3.464
27392WAT     H282419   1.794   4.952   3.364
27393WAT      O82420   2.020   1.623   1.499
27393WAT     H182421   1.929   1.657   1.520
27393WAT     H282422   2.030   1.615   1.399
27394WAT      O82423   1.698   2.813   1.996
27394WAT     H182424   1.615   2.758   2.005
27394WAT     H282425   1.760   2.768   1.931
27395WAT      O82426   5.134   3.168   0.025
27395WAT     H182427   5.174   3.108   0.095
27395WAT     H282428   5.163   3.262   0.042
27396WAT      O82429   8.137   3.470   3.320
27396WAT     H182430   8.078   3.472   3.401
27396WAT     H282431   8.156   3.375   3.295
27397WAT      O82432   4.215   6.476   6.119
27397WAT     H182433   4.186   6.572   6.114
27397WAT     H282434   4.180   6.426   6.040
27398WAT      O82435   8.200   4.069   1.700
27398WAT     H182436   8.142   4.082   1.620
27398WAT     H282437   8.192   3.975   1.733
27399WAT      O82438   4.973   6.808   2.402
27399WAT     H182439   5.060   6.831   2.358
27399WAT     H282440   4.988   6.790   2.499
27400WAT      O82441   9.467   7.616   6.922
27400WAT     H182442   9.379   7.660   6.943
27400WAT     H282443   9.521   7.676   6.863
27401WAT      O82444   1.090   8.544   4.654
27401WAT     H182445   1.085   8.604   4.574
27401WAT     H282446   1.145   8.588   4.725
27402WAT      O82447   5.496   1.196   7.995
27402WAT     H182448   5.434   1.138   7.942
27402WAT     H282449   5.521   1.276   7.940
27403WAT      O82450   4.509   2.538   1.812
27403WAT     H182451   4.450   2.503   1.739
27403WAT     H282452   4.602   2.503   1.798
27404WAT      O82453   7.553   1.115   2.314
27404WAT     H182454   7.610   1.169   2.376
27404WAT     H282455   7.612   1.056   2.258
27405WAT      O82456   5.412   9.782   9.584
27405WAT     H182457   5.416   9.718   9.508
27405WAT     H282458   5.357   9.742   9.658
27406WAT      O82459   1.900   4.555   4.685
27406WAT     H182460   1.984   4.508   4.710
27406WAT     H282461   1.922   4.645   4.647
27407WAT      O82462   5.181   9.618   2.246
27407WAT     H182463   5.145   9.711   2.245
27407WAT     H282464   5.281   9.622   2.245
27408WAT      O82465   9.193   7.083   5.756
27408WAT     H182466   9.244   7.016   5.702
27408WAT     H282467   9.122   7.124   5.698
27409WAT      O82468   6.286   1.901   0.419
27409WAT     H182469   6.269   1.861   0.509
27409WAT     H282470   6.382   1.928   0.412
27410WAT      O82471   4.975   7.288   9.771
27410WAT     H182472   4.898   7.311   9.829
27410WAT     H282473   5.058   7.330   9.808
27411WAT      O82474   6.526   1.672   1.538
27411WAT     H182475   6.452   1.690   1.603
27411WAT     H282476   6.494   1.606   1.470
27412WAT      O82477   4.319   6.396   7.398
27412WAT     H182478   4.221   6.398   7.418
27412WAT     H282479   4.334   6.434   7.307
27413WAT      O82480   4.483   7.841   1.376
27413WAT     H182481   4.404   7.780   1.370
27413WAT     H282482   4.479   7.909   1.304
27414WAT      O82483   9.405   6.213   9.708
27414WAT     H182484   9.318   6.248   9.675
27414WAT     H282485   9.424   6.251   9.799
27415WAT      O82486   7.087   8.851   1.635
27415WAT     H182487   7.138   8.894   1.710
27415WAT     H282488   7.117   8.890   1.548
27416WAT      O82489   3.442   3.044   5.634
27416WAT     H182490   3.416   2.957   5.678
27416WAT     H282491   3.492   3.025   5.549
27417WAT      O82492   9.406   3.684   1.002
27417WAT     H182493   9.474   3.709   1.070
27417WAT     H282494   9.351   3.764   0.977
27418WAT      O82495   1.747   0.901   9.300
27418WAT     H182496   1.833   0.853   9.320
27418WAT     H282497   1.706   0.932   9.386
27419WAT      O82498   6.684   2.959   3.168
27419WAT     H182499   6.615   2.892   3.140
27419WAT     H282500   6.651   3.009   3.247
27420WAT      O82501   6.687   2.741   8.005
27420WAT     H182502   6.743   2.742   7.922
27420WAT     H282503   6.743   2.713   8.083
27421WAT      O82504   2.419   8.899   9.657
27421WAT     H182505   2.503   8.938   9.619
27421WAT     H282506   2.402   8.938   9.747
27422WAT      O82507   2.378   5.150   5.491
27422WAT     H182508   2.419   5.201   5.566
27422WAT     H282509   2.440   5.077   5.462
27423WAT      O82510   5.359   5.592   9.063
27423WAT     H182511   5.300   5.666   9.094
27423WAT     H282512   5.315   5.543   8.987
27424WAT      O82513   1.949   1.070   6.121
27424WAT     H182514   1.893   1.087   6.202
27424WAT     H282515   1.923   1.133   6.048
27425WAT      O82516   0.513   6.755   8.849
27425WAT     H182517   0.524   6.752   8.949
27425WAT     H282518   0.535   6.665   8.811
27426WAT      O82519   1.888   8.790   6.583
27426WAT     H182520   1.860   8.886   6.594
27426WAT     H282521   1.807   8.732   6.576
27427WAT      O82522   8.709   0.155   2.033
27427WAT     H182523   8.673   0.064   2.012
27427WAT     H282524   8.703   0.212   1.951
27428WAT      O82525   8.591   6.586   5.070
27428WAT     H182526   8.645   6.504   5.089
27428WAT     H282527   8.627   6.630   4.987
27429WAT      O82528   8.915   8.279   7.735
27429WAT     H182529   8.932   8.365   7.783
27429WAT     H282530   8.995   8.255   7.681
27430WAT      O82531   0.766   4.408   6.879
27430WAT     H182532   0.770   4.494   6.828
27430WAT     H282533   0.785   4.425   6.975
27431WAT      O82534   2.974   4.224   2.192
27431WAT     H182535   3.065   4.182   2.204
27431WAT     H282536   2.969   4.307   2.248
27432WAT      O82537   8.553   9.338   8.767
27432WAT     H182538   8.475   9.339   8.704
27432WAT     H282539   8.594   9.429   8.771
27433WAT      O82540   8.116   8.734   9.049
27433WAT     H182541   8.078   8.785   9.126
27433WAT     H282542   8.048   8.730   8.976
27434WAT      O82543   9.830   8.273   7.248
27434WAT     H182544   9.748   8.300   7.197
27434WAT     H282545   9.811   8.189   7.298
27435WAT      O82546   2.556   0.148   4.965
27435WAT     H182547   2.565   0.072   5.029
27435WAT     H282548   2.461   0.153   4.932
27436WAT      O82549   8.041   2.979   2.217
27436WAT     H182550   8.055   2.881   2.230
27436WAT     H282551   7.950   3.004   2.252
27437WAT      O82552   9.269   9.059   7.286
27437WAT     H182553   9.250   9.157   7.293
27437WAT     H282554   9.190   9.012   7.245
27438WAT      O82555   1.784   5.624   3.060
27438WAT     H182556   1.849   5.695   3.034
27438WAT     H282557   1.714   5.662   3.120
27439WAT      O82558   7.678   5.326   0.951
27439WAT     H182559   7.667   5.382   0.869
27439WAT     H282560   7.589   5.289   0.979
27440WAT      O82561   6.122   3.761   0.798
27440WAT     H182562   6.032   3.802   0.781
27440WAT     H282563   6.134   3.748   0.897
27441WAT      O82564   1.850   0.787   1.132
27441WAT     H182565   1.818   0.814   1.041
27441WAT     H282566   1.832   0.860   1.198
27442WAT      O82567   2.654   6.976   0.354
27442WAT     H182568   2.624   7.050   0.415
27442WAT     H282569   2.664   7.012   0.261
27443WAT      O82570   3.434   8.172   2.267
27443WAT     H182571   3.464   8.093   2.214
27443WAT     H282572   3.502   8.245   2.259
27444WAT      O82573   1.490   8.180   8.173
27444WAT     H182574   1.539   8.179   8.086
27444WAT     H282575   1.521   8.103   8.229
27445WAT      O82576   9.765   5.512   9.318
27445WAT     H182577   9.818   5.595   9.301
27445WAT     H282578   9.748   5.464   9.231
27446WAT      O82579   0.631   6.142   9.197
27446WAT     H182580   0.639   6.056   9.249
27446WAT     H282581   0.564   6.131   9.124
27447WAT      O82582   1.687   3.184   7.715
27447WAT     H182583   1.770   3.172   7.768
27447WAT     H282584   1.640   3.096   7.705
27448WAT      O82585   7.777   3.540   1.006
27448WAT     H182586   7.689   3.544   1.054
27448WAT     H282587   7.820   3.630   1.009
27449WAT      O82588   9.284   5.179   5.134
27449WAT     H182589   9.271   5.271   5.097
27449WAT     H282590   9.200   5.147   5.177
27450WAT      O82591   2.915   7.685   1.974
27450WAT     H182592   2.873   7.700   1.885
27450WAT     H282593   2.973   7.763   1.997
27451WAT      O82594   1.288   0.518   3.915
27451WAT     H182595   1.196   0.501   3.950
27451WAT     H282596   1.283   0.574   3.833
27452WAT      O82597   8.982   6.959   6.997
27452WAT     H182598   8.955   6.920   6.909
27452WAT     H282599   9.072   6.923   7.024
27453WAT      O82600   4.427   5.863   4.721
27453WAT     H182601   4.427   5.904   4.630
27453WAT     H282602   4.333   5.843   4.749
27454WAT      O82603   1.016   2.014   5.717
27454WAT     H182604   0.969   2.095   5.681
27454WAT     H282605   0.983   1.996   5.810
27455WAT      O82606   6.967   1.429   1.840
27455WAT     H182607   6.876   1.389   1.852
27455WAT     H282608   7.017   1.377   1.770
27456WAT      O82609   9.807   1.891   6.660
27456WAT     H182610   9.796   1.893   6.561
27456WAT     H282611   9.815   1.796   6.691
27457WAT      O82612   9.303   4.764   9.604
27457WAT     H182613   9.360   4.800   9.678
27457WAT     H282614   9.361   4.734   9.529
27458WAT      O82615   6.191   2.627   4.442
27458WAT     H182616   6.097   2.638   4.410
27458WAT     H282617   6.223   2.714   4.480
27459WAT      O82618   9.346   6.175   5.438
27459WAT     H182619   9.356   6.079   5.464
27459WAT     H282620   9.345   6.183   5.338
27460WAT      O82621   1.828   2.203   3.744
27460WAT     H182622   1.850   2.258   3.665
27460WAT     H282623   1.767   2.254   3.805
27461WAT      O82624   6.310   5.174   0.344
27461WAT     H182625   6.273   5.266   0.359
27461WAT     H282626   6.398   5.181   0.297
27462WAT      O82627   8.986   0.804   2.281
27462WAT     H182628   8.972   0.804   2.380
27462WAT     H282629   8.946   0.721   2.242
27463WAT      O82630   5.877   2.548   3.070
27463WAT     H182631   5.918   2.493   2.997
27463WAT     H282632   5.893   2.645   3.052
27464WAT      O82633   8.114   8.327   2.146
27464WAT     H182634   8.213   8.328   2.136
27464WAT     H282635   8.082   8.233   2.157
27465WAT      O82636   3.662   5.491   6.720
27465WAT     H182637   3.584   5.524   6.668
27465WAT     H282638   3.704   5.413   6.673
27466WAT      O82639   5.169   6.486   1.100
27466WAT     H182640   5.109   6.414   1.135
27466WAT     H282641   5.254   6.486   1.153
27467WAT      O82642   4.485   3.827   0.830
27467WAT     H182643   4.511   3.826   0.927
27467WAT     H282644   4.430   3.908   0.811
27468WAT      O82645   7.181   3.797   1.820
27468WAT     H182646   7.253   3.780   1.753
27468WAT     H282647   7.141   3.710   1.849
27469WAT      O82648   2.631   3.075   0.520
27469WAT     H182649   2.563   3.016   0.563
27469WAT     H282650   2.600   3.099   0.428
27470WAT      O82651   9.114   8.811   0.800
27470WAT     H182652   9.073   8.900   0.783
27470WAT     H282653   9.042   8.743   0.817
27471WAT      O82654   7.422   2.106   1.751
27471WAT     H182655   7.379   2.091   1.662
27471WAT     H282656   7.492   2.036   1.767
27472WAT      O82657   7.177   1.361   3.950
27472WAT     H182658   7.233   1.372   3.868
27472WAT     H282659   7.184   1.267   3.983
27473WAT      O82660   5.616   4.792   2.458
27473WAT     H182661   5.550   4.763   2.526
27473WAT     H282662   5.708   4.789   2.496
27474WAT      O82663   4.545   7.452   5.721
27474WAT     H182664   4.456   7.485   5.688
27474WAT     H282665   4.611   7.452   5.646
27475WAT      O82666   6.361   1.315   9.189
27475WAT     H182667   6.348   1.326   9.287
27475WAT     H282668   6.272   1.313   9.143
27476WAT      O82669   1.389   0.192   0.177
27476WAT     H182670   1.312   0.133   0.154
27476WAT     H282671   1.458   0.186   0.104
27477WAT      O82672   6.348   8.959   0.610
27477WAT     H182673   6.386   9.025   0.545
27477WAT     H282674   6.361   8.867   0.574
27478WAT      O82675   1.557   7.770   9.646
27478WAT     H182676   1.645   7.722   9.655
27478WAT     H282677   1.510   7.768   9.734
27479WAT      O82678   2.094   8.998   6.342
27479WAT     H182679   2.189   9.014   6.316
27479WAT     H282680   2.080   9.024   6.437
27480WAT      O82681   5.549   5.980   8.084
27480WAT     H182682   5.606   6.048   8.129
27480WAT     H282683   5.591   5.952   7.998
27481WAT      O82684   3.237   9.133   3.002
27481WAT     H182685   3.188   9.162   2.919
27481WAT     H282686   3.227   9.204   3.072
27482WAT      O82687   3.176   3.767   1.116
27482WAT     H182688   3.232   3.683   1.118
27482WAT     H282689   3.233   3.843   1.085
27483WAT      O82690   0.538   9.148   0.187
27483WAT     H182691   0.562   9.125   0.281
27483WAT     H282692   0.449   9.109   0.164
27484WAT      O82693   7.118   3.308   8.493
27484WAT     H182694   7.149   3.214   8.508
27484WAT     H282695   7.193   3.363   8.457
27485WAT      O82696   8.540   2.583   3.389
27485WAT     H182697   8.549   2.512   3.459
27485WAT     H282698   8.485   2.549   3.313
27486WAT      O82699   1.516   3.064   3.069
27486WAT     H182700   1.577   3.076   2.990
27486WAT     H282701   1.426   3.037   3.036
27487WAT      O82702   2.674   9.398   0.934
27487WAT     H182703   2.615   9.475   0.909
27487WAT     H282704   2.619   9.326   0.976
27488WAT      O82705   3.336   8.441   7.291
27488WAT     H182706   3.260   8.377   7.281
27488WAT     H282707   3.301   8.535   7.287
27489WAT      O82708   8.202   1.297   3.667
27489WAT     H182709   8.222   1.315   3.763
27489WAT     H282710   8.182   1.200   3.654
27490WAT      O82711   5.957   0.370   7.732
27490WAT     H182712   5.924   0.432   7.662
27490WAT     H282713   5.922   0.278   7.715
27491WAT      O82714   7.253   4.705   7.069
27491WAT     H182715   7.275   4.743   7.159
27491WAT     H282716   7.158   4.674   7.068
27492WAT      O82717   0.031   3.043   7.823
27492WAT     H182718   0.120   3.070   7.786
27492WAT     H282719  -0.013   3.123   7.864
27493WAT      O82720   6.770   4.417   9.556
27493WAT     H182721   6.704   4.342   9.561
27493WAT     H282722   6.826   4.417   9.639
27494WAT      O82723   3.473   8.476   2.739
27494WAT     H182724   3.491   8.574   2.753
27494WAT     H282725   3.446   8.435   2.826
27495WAT      O82726   6.125   7.390   2.851
27495WAT     H182727   6.046   7.389   2.790
27495WAT     H282728   6.125   7.475   2.903
27496WAT      O82729   0.984   0.221   5.374
27496WAT     H182730   0.930   0.302   5.400
27496WAT     H282731   1.075   0.228   5.415
27497WAT      O82732   7.832   9.776   2.002
27497WAT     H182733   7.890   9.748   1.925
27497WAT     H282734   7.887   9.777   2.086
27498WAT      O82735   0.638   6.894   9.356
27498WAT     H182736   0.607   6.888   9.451
27498WAT     H282737   0.562   6.923   9.298
27499WAT      O82738   4.122   0.836   3.766
27499WAT     H182739   4.140   0.914   3.706
27499WAT     H282740   4.169   0.755   3.730
27500WAT      O82741   8.587   2.453   4.995
27500WAT     H182742   8.631   2.369   5.025
27500WAT     H282743   8.597   2.461   4.896
27501WAT      O82744   8.978   8.749   2.708
27501WAT     H182745   8.972   8.823   2.775
27501WAT     H282746   9.000   8.664   2.755
27502WAT      O82747   7.497   8.015   8.836
27502WAT     H182748   7.422   7.991   8.898
27502WAT     H282749   7.582   8.022   8.888
27503WAT      O82750   5.374   3.491   4.065
27503WAT     H182751   5.298   3.453   4.117
27503WAT     H282752   5.364   3.590   4.059
27504WAT      O82753   2.084   3.991   0.525
27504WAT     H182754   2.082   3.910   0.585
27504WAT     H282755   2.153   4.055   0.558
27505WAT      O82756   9.422   0.252   8.881
27505WAT     H182757   9.468   0.248   8.970
27505WAT     H282758   9.336   0.201   8.885
27506WAT      O82759   8.020   0.690   1.588
27506WAT     H182760   8.099   0.637   1.560
27506WAT     H282761   8.035   0.787   1.567
27507WAT      O82762   1.309   6.073   0.284
27507WAT     H182763   1.400   6.110   0.305
27507WAT     H282764   1.313   6.017   0.201
27508WAT      O82765   1.768   4.806   7.671
27508WAT     H182766   1.745   4.843   7.582
27508WAT     H282767   1.684   4.797   7.726
27509WAT      O82768   4.766   5.298   9.162
27509WAT     H182769   4.800   5.277   9.254
27509WAT     H282770   4.705   5.224   9.132
27510WAT      O82771   5.489   9.087   7.530
27510WAT     H182772   5.524   9.005   7.484
27510WAT     H282773   5.424   9.061   7.601
27511WAT      O82774   2.245   2.921   4.728
27511WAT     H182775   2.167   2.874   4.769
27511WAT     H282776   2.249   2.900   4.630
27512WAT      O82777   9.573   0.219   4.121
27512WAT     H182778   9.555   0.198   4.218
27512WAT     H282779   9.671   0.231   4.107
27513WAT      O82780   4.959   4.071   5.915
27513WAT     H182781   4.953   4.054   6.013
27513WAT     H282782   5.023   4.146   5.898
27514WAT      O82783   4.564   4.986   0.496
27514WAT     H182784   4.656   4.980   0.457
27514WAT     H282785   4.546   4.906   0.553
27515WAT      O82786   0.031   8.637   8.817
27515WAT     H182787   0.119   8.665   8.855
27515WAT     H282788   0.008   8.695   8.739
27516WAT      O82789   1.005   0.761   9.868
27516WAT     H182790   1.091   0.760   9.815
27516WAT     H282791   0.929   0.734   9.809
27517WAT      O82792   4.037   8.986   3.218
27517WAT     H182793   4.089   9.056   3.269
27517WAT     H282794   4.020   8.908   3.278
27518WAT      O82795   0.865   8.203   0.010
27518WAT     H182796   0.943   8.141   0.009
27518WAT     H282797   0.894   8.292   0.046
27519WAT      O82798   9.225   5.507   2.853
27519WAT     H182799   9.285   5.516   2.773
27519WAT     H282800   9.175   5.593   2.868
27520WAT      O82801   1.459   8.711   0.793
27520WAT     H182802   1.543   8.728   0.845
27520WAT     H282803   1.408   8.636   0.836
27521WAT      O82804   7.488   7.531   5.993
27521WAT     H182805   7.512   7.597   6.063
27521WAT     H282806   7.395   7.549   5.960
27522WAT      O82807   4.174   4.954   9.789
27522WAT     H182808   4.192   4.915   9.879
27522WAT     H282809   4.220   5.043   9.781
27523WAT      O82810   7.654   2.994   6.078
27523WAT     H182811   7.693   2.974   5.987
27523WAT     H282812   7.607   3.082   6.075
27524WAT      O82813   2.211   4.911   7.058
27524WAT     H182814   2.158   4.996   7.059
27524WAT     H282815   2.221   4.877   7.151
27525WAT      O82816   4.189   6.345   2.730
27525WAT     H182817   4.228   6.434   2.753
27525WAT     H282818   4.128   6.314   2.803
27526WAT      O82819   3.047   2.079   7.761
27526WAT     H182820   3.061   2.168   7.718
27526WAT     H282821   3.130   2.053   7.811
27527WAT      O82822   6.351   4.431   0.888
27527WAT     H182823   6.388   4.393   0.804
27527WAT     H282824   6.251   4.425   0.887
27528WAT      O82825   2.193   3.368   8.984
27528WAT     H182826   2.196   3.300   9.057
27528WAT     H282827   2.268   3.433   8.995
27529WAT      O82828   1.155   8.495   5.065
27529WAT     H182829   1.163   8.395   5.059
27529WAT     H282830   1.082   8.519   5.129
27530WAT      O82831   4.526   3.965   5.864
27530WAT     H182832   4.549   3.884   5.810
27530WAT     H282833   4.567   3.956   5.955
27531WAT      O82834   5.318   3.509   7.837
27531WAT     H182835   5.317   3.578   7.910
27531WAT     H282836   5.399   3.451   7.847
27532WAT      O82837   2.563   8.044   3.845
27532WAT     H182838   2.562   7.960   3.899
27532WAT     H282839   2.575   8.021   3.748
27533WAT      O82840   5.648   8.993   8.067
27533WAT     H182841   5.734   8.942   8.065
27533WAT     H282842   5.654   9.072   8.006
27534WAT      O82843   9.051   7.918   7.693
27534WAT     H182844   9.057   7.819   7.679
27534WAT     H282845   8.996   7.958   7.620
27535WAT      O82846   7.162   7.079   6.457
27535WAT     H182847   7.071   7.050   6.485
27535WAT     H282848   7.175   7.061   6.360
27536WAT      O82849   3.837   7.154   0.040
27536WAT     H182850   3.819   7.108   0.127
27536WAT     H282851   3.771   7.229   0.028
27537WAT      O82852   5.294   5.106   0.438
27537WAT     H182853   5.330   5.080   0.349
27537WAT     H282854   5.279   5.024   0.493
27538WAT      O82855   0.270   7.642   4.961
27538WAT     H182856   0.217   7.568   4.919
27538WAT     H282857   0.219   7.679   5.039
27539WAT      O82858   8.748   6.624   3.917
27539WAT     H182859   8.776   6.558   3.987
27539WAT     H282860   8.763   6.585   3.827
27540WAT      O82861   6.928   6.294   8.829
27540WAT     H182862   6.865   6.224   8.795
27540WAT     H282863   6.887   6.384   8.818
27541WAT      O82864   7.842   2.931   2.588
27541WAT     H182865   7.763   2.974   2.631
27541WAT     H282866   7.842   2.952   2.490
27542WAT      O82867   6.598   1.449   5.482
27542WAT     H182868   6.590   1.511   5.560
27542WAT     H282869   6.695   1.434   5.462
27543WAT      O82870   6.190   5.499   7.742
27543WAT     H182871   6.153   5.565   7.808
27543WAT     H282872   6.272   5.456   7.780
27544WAT      O82873   7.805   1.485   9.543
27544WAT     H182874   7.731   1.538   9.584
27544WAT     H282875   7.869   1.548   9.498
27545WAT      O82876   8.942   6.292   2.606
27545WAT     H182877   8.934   6.296   2.706
27545WAT     H282878   8.972   6.200   2.579
27546WAT      O82879   4.014   3.886   4.825
27546WAT     H182880   4.081   3.838   4.882
27546WAT     H282881   3.932   3.904   4.879
27547WAT      O82882   8.976   8.329   8.125
27547WAT     H182883   8.908   8.359   8.193
27547WAT     H282884   9.041   8.267   8.168
27548WAT      O82885   1.544   1.106   0.956
27548WAT     H182886   1.515   1.086   0.863
27548WAT     H282887   1.509   1.196   0.983
27549WAT      O82888   2.470   4.914   4.198
27549WAT     H182889   2.548   4.975   4.185
27549WAT     H282890   2.412   4.916   4.117
27550WAT      O82891   3.751   1.959   3.456
27550WAT     H182892   3.824   2.022   3.428
27550WAT     H282893   3.687   1.947   3.380
27551WAT      O82894   4.713   0.110   8.077
27551WAT     H182895   4.686   0.094   8.172
27551WAT     H282896   4.664   0.189   8.042
27552WAT      O82897   9.333   2.699   3.037
27552WAT     H182898   9.432   2.703   3.048
27552WAT     H282899   9.306   2.753   2.958
27553WAT      O82900   7.763   2.511   5.693
27553WAT     H182901   7.706   2.431   5.674
27553WAT     H282902   7.771   2.523   5.792
27554WAT      O82903   0.522   3.892   4.059
27554WAT     H182904   0.548   3.797   4.040
27554WAT     H282905   0.458   3.924   3.990
27555WAT      O82906   5.183   3.782   7.222
27555WAT     H182907   5.252   3.781   7.150
27555WAT     H282908   5.165   3.877   7.248
27556WAT      O82909   3.106   5.946   0.386
27556WAT     H182910   3.081   5.873   0.322
27556WAT     H282911   3.070   5.924   0.477
27557WAT      O82912   5.946   7.837   3.462
27557WAT     H182913   5.926   7.810   3.556
27557WAT     H282914   5.990   7.926   3.462
27558WAT      O82915   1.073   5.513   1.454
27558WAT     H182916   0.993   5.570   1.473
27558WAT     H282917   1.151   5.546   1.507
27559WAT      O82918   8.131   3.001   6.786
27559WAT     H182919   8.074   3.053   6.850
27559WAT     H282920   8.080   2.921   6.754
27560WAT      O82921   5.715   3.644   6.884
27560WAT     H182922   5.699   3.584   6.962
27560WAT     H282923   5.689   3.737   6.908
27561WAT      O82924   5.274   1.759   7.786
27561WAT     H182925   5.360   1.710   7.772
27561WAT     H282926   5.276   1.804   7.875
27562WAT      O82927   9.722   6.968   3.049
27562WAT     H182928   9.796   6.940   2.989
27562WAT     H282929   9.634   6.945   3.006
27563WAT      O82930   3.525   0.333   7.975
27563WAT     H182931   3.506   0.235   7.976
27563WAT     H282932   3.575   0.357   7.892
27564WAT      O82933   5.666   0.688   1.005
27564WAT     H182934   5.697   0.628   0.932
27564WAT     H282935   5.590   0.744   0.973
27565WAT      O82936   1.024   4.549   2.509
27565WAT     H182937   0.935   4.587   2.535
27565WAT     H282938   1.028   4.542   2.409
27566WAT      O82939   7.244   9.246   8.892
27566WAT     H182940   7.318   9.311   8.908
27566WAT     H282941   7.238   9.227   8.794
27567WAT      O82942   5.857   7.286   9.408
27567WAT     H182943   5.763   7.276   9.441
27567WAT     H282944   5.858   7.347   9.329
27568WAT      O82945   6.679   6.450   8.997
27568WAT     H182946   6.756   6.459   9.060
27568WAT     H282947   6.614   6.524   9.012
27569WAT      O82948   8.387   8.790   2.462
27569WAT     H182949   8.367   8.887   2.476
27569WAT     H282950   8.353   8.762   2.372
27570WAT      O82951   2.090   5.840   2.250
27570WAT     H182952   2.066   5.894   2.331
27570WAT     H282953   2.172   5.878   2.208
27571WAT      O82954   0.814   2.259   0.493
27571WAT     H182955   0.773   2.350   0.483
27571WAT     H282956   0.788   2.221   0.582
27572WAT      O82957   8.693   4.962   0.681
27572WAT     H182958   8.610   4.931   0.634
27572WAT     H282959   8.687   5.061   0.697
27573WAT      O82960   1.526   2.587   1.730
27573WAT     H182961   1.544   2.536   1.814
27573WAT     H282962   1.589   2.557   1.658
27574WAT      O82963   0.447   4.547   7.736
27574WAT     H182964   0.410   4.626   7.785
27574WAT     H282965   0.518   4.577   7.673
27575WAT      O82966   0.989   6.500   8.950
27575WAT     H182967   0.924   6.425   8.961
27575WAT     H282968   1.035   6.518   9.037
27576WAT      O82969   7.090   5.109   4.895
27576WAT     H182970   7.090   5.127   4.994
27576WAT     H282971   7.138   5.183   4.848
27577WAT      O82972   2.200   4.007   1.444
27577WAT     H182973   2.165   4.066   1.516
27577WAT     H282974   2.162   4.036   1.356
27578WAT      O82975   9.044   0.259   1.288
27578WAT     H182976   9.027   0.186   1.354
27578WAT     H282977   9.009   0.232   1.198
27579WAT      O82978   2.884   2.047   1.790
27579WAT     H182979   2.883   1.991   1.707
27579WAT     H282980   2.899   2.143   1.767
27580WAT      O82981   8.291   3.662   0.454
27580WAT     H182982   8.230   3.584   0.435
27580WAT     H282983   8.348   3.641   0.534
27581WAT      O82984   9.034   6.469   5.925
27581WAT     H182985   9.074   6.555   5.893
27581WAT     H282986   9.107   6.406   5.951
27582WAT      O82987   2.096   3.765   4.167
27582WAT     H182988   2.011   3.815   4.155
27582WAT     H282989   2.172   3.829   4.175
27583WAT      O82990   0.761   0.041   0.093
27583WAT     H182991   0.802   0.131   0.080
27583WAT     H282992   0.813  -0.028   0.043
27584WAT      O82993   4.477   5.874   1.057
27584WAT     H182994   4.515   5.802   1.115
27584WAT     H282995   4.380   5.886   1.078
27585WAT      O82996   2.531   6.853   4.178
27585WAT     H182997   2.573   6.901   4.100
27585WAT     H282998   2.601   6.797   4.223
27586WAT      O82999   1.004   0.510   3.991
27586WAT     H183000   0.928   0.573   3.975
27586WAT     H283001   0.992   0.464   4.079
27587WAT      O83002   2.297   2.319   1.191
27587WAT     H183003   2.310   2.223   1.215
27587WAT     H283004   2.374   2.350   1.136
27588WAT      O83005   0.537   3.699   8.216
27588WAT     H183006   0.616   3.738   8.264
27588WAT     H283007   0.569   3.632   8.149
27589WAT      O83008   1.904   0.785   0.581
27589WAT     H183009   1.833   0.856   0.582
27589WAT     H283010   1.908   0.742   0.671
27590WAT      O83011   1.113   5.973   0.957
27590WAT     H183012   1.053   5.967   0.877
27590WAT     H283013   1.179   5.898   0.954
27591WAT      O83014   1.749   6.743   2.868
27591WAT     H183015   1.826   6.687   2.839
27591WAT     H283016   1.672   6.730   2.805
27592WAT      O83017   8.296   9.182   3.686
27592WAT     H183018   8.241   9.132   3.752
27592WAT     H283019   8.269   9.278   3.686
27593WAT      O83020   9.137   9.432   4.630
27593WAT     H183021   9.171   9.455   4.539
27593WAT     H283022   9.209   9.385   4.682
27594WAT      O83023   1.600   2.080   7.855
27594WAT     H183024   1.537   2.039   7.789
27594WAT     H283025   1.688   2.098   7.811
27595WAT      O83026   0.352   0.179   4.349
27595WAT     H183027   0.330   0.223   4.437
27595WAT     H283028   0.341   0.246   4.275
27596WAT      O83029   5.047   4.558   0.314
27596WAT     H183030   4.973   4.490   0.321
27596WAT     H283031   5.030   4.632   0.378
27597WAT      O83032   7.942   8.425   6.316
27597WAT     H183033   7.882   8.499   6.287
27597WAT     H283034   7.963   8.434   6.413
27598WAT      O83035   4.812   4.556   2.250
27598WAT     H183036   4.748   4.626   2.280
27598WAT     H283037   4.828   4.492   2.325
27599WAT      O83038   7.657   0.711   5.589
27599WAT     H183039   7.583   0.753   5.642
27599WAT     H283040   7.742   0.717   5.641
27600WAT      O83041   0.202   4.745   9.745
27600WAT     H183042   0.118   4.774   9.700
27600WAT     H283043   0.181   4.676   9.815
27601WAT      O83044   2.754   0.949   5.653
27601WAT     H183045   2.853   0.940   5.663
27601WAT     H283046   2.720   0.880   5.589
27602WAT      O83047   1.520   5.943   6.208
27602WAT     H183048   1.620   5.940   6.208
27602WAT     H283049   1.490   6.038   6.195
27603WAT      O83050   2.887   8.648   2.474
27603WAT     H183051   2.903   8.747   2.473
27603WAT     H283052   2.842   8.620   2.390
27604WAT      O83053   4.789   0.835   3.896
27604WAT     H183054   4.789   0.922   3.847
27604WAT     H283055   4.858   0.837   3.968
27605WAT      O83056   3.794   2.580   0.338
27605WAT     H183057   3.865   2.511   0.349
27605WAT     H283058   3.706   2.544   0.371
27606WAT      O83059   9.583   2.887   3.826
27606WAT     H183060   9.538   2.930   3.748
27606WAT     H283061   9.594   2.955   3.899
27607WAT      O83062   0.128   4.833   2.523
27607WAT     H183063   0.191   4.842   2.600
27607WAT     H283064   0.146   4.746   2.476
27608WAT      O83065   3.959   9.298   1.930
27608WAT     H183066   4.036   9.358   1.949
27608WAT     H283067   3.915   9.326   1.845
27609WAT      O83068   8.596   8.422   0.653
27609WAT     H183069   8.561   8.378   0.735
27609WAT     H283070   8.683   8.468   0.674
27610WAT      O83071   5.937   8.280   9.074
27610WAT     H183072   5.999   8.350   9.109
27610WAT     H283073   5.884   8.241   9.149
27611WAT      O83074   5.926   8.894   2.786
27611WAT     H183075   5.901   8.939   2.872
27611WAT     H283076   5.961   8.802   2.805
27612WAT      O83077   5.100   0.186   0.191
27612WAT     H183078   5.090   0.208   0.288
27612WAT     H283079   5.114   0.088   0.180
27613WAT      O83080   4.617   0.170   9.500
27613WAT     H183081   4.673   0.251   9.517
27613WAT     H283082   4.669   0.104   9.445
27614WAT      O83083   4.875   8.177   9.052
27614WAT     H183084   4.866   8.267   9.011
27614WAT     H283085   4.813   8.168   9.130
27615WAT      O83086   7.680   5.795   8.773
27615WAT     H183087   7.711   5.733   8.845
27615WAT     H283088   7.734   5.781   8.691
27616WAT      O83089   5.514   8.126   8.158
27616WAT     H183090   5.579   8.056   8.189
27616WAT     H283091   5.555   8.178   8.083
27617WAT      O83092   1.100   5.918   7.356
27617WAT     H183093   1.193   5.953   7.344
27617WAT     H283094   1.039   5.961   7.290
27618WAT      O83095   8.707   5.331   8.878
27618WAT     H183096   8.799   5.295   8.895
27618WAT     H283097   8.656   5.268   8.821
27619WAT      O83098   2.389   6.838   5.467
27619WAT     H183099   2.441   6.802   5.390
27619WAT     H283100   2.376   6.767   5.535
27620WAT      O83101   6.026   0.969   8.213
27620WAT     H183102   5.947   0.938   8.266
27620WAT     H283103   6.029   1.069   8.211
27621WAT      O83104   9.376   1.113   9.290
27621WAT     H183105   9.430   1.194   9.314
27621WAT     H283106   9.367   1.054   9.370
27622WAT      O83107   5.390   9.273   3.328
27622WAT     H183108   5.390   9.367   3.363
27622WAT     H283109   5.466   9.260   3.265
27623WAT      O83110   3.755   2.552   1.253
27623WAT     H183111   3.708   2.509   1.330
27623WAT     H283112   3.705   2.634   1.226
27624WAT      O83113   4.852   1.755   3.089
27624WAT     H183114   4.884   1.790   3.001
27624WAT     H283115   4.810   1.829   3.141
27625WAT      O83116   1.592   3.520   8.208
27625WAT     H183117   1.549   3.521   8.298
27625WAT     H283118   1.535   3.470   8.144
27626WAT      O83119   5.709   2.850   6.353
27626WAT     H183120   5.621   2.808   6.331
27626WAT     H283121   5.697   2.949   6.364
27627WAT      O83122   1.285   1.612   1.220
27627WAT     H183123   1.356   1.609   1.149
27627WAT     H283124   1.280   1.705   1.257
27628WAT      O83125   2.743   0.402   7.218
27628WAT     H183126   2.649   0.383   7.247
27628WAT     H283127   2.805   0.386   7.294
27629WAT      O83128   9.184   4.982   2.357
27629WAT     H183129   9.203   5.035   2.440
27629WAT     H283130   9.085   4.974   2.345
27630WAT      O83131   9.781   7.279   3.485
27630WAT     H183132   9.841   7.321   3.553
27630WAT     H283133   9.753   7.188   3.517
27631WAT      O83134   1.452   4.893   6.908
27631WAT     H183135   1.533   4.863   6.856
27631WAT     H283136   1.460   4.864   7.003
27632WAT      O83137   7.172   5.075   8.650
27632WAT     H183138   7.171   5.000   8.583
27632WAT     H283139   7.220   5.046   8.732
27633WAT      O83140   2.311   8.298   7.625
27633WAT     H183141   2.359   8.274   7.541
27633WAT     H283142   2.217   8.324   7.604
27634WAT      O83143   5.912   1.327   5.485
27634WAT     H183144   5.876   1.415   5.515
27634WAT     H283145   6.006   1.337   5.453
27635WAT      O83146   8.987   0.775   9.295
27635WAT     H183147   9.006   0.863   9.338
27635WAT     H283148   8.981   0.787   9.196
27636WAT      O83149   7.974   7.103   5.017
27636WAT     H183150   8.049   7.041   5.038
27636WAT     H283151   7.888   7.061   5.045
27637WAT      O83152   7.933   8.190   4.912
27637WAT     H183153   7.912   8.132   4.991
27637WAT     H283154   7.889   8.153   4.831
27638WAT      O83155   3.466   3.145   4.456
27638WAT     H183156   3.495   3.212   4.389
27638WAT     H283157   3.385   3.178   4.504
27639WAT      O83158   5.213   7.091   3.276
27639WAT     H183159   5.211   7.023   3.349
27639WAT     H283160   5.196   7.182   3.316
27640WAT      O83161   2.703   9.121   7.642
27640WAT     H183162   2.683   9.023   7.633
27640WAT     H283163   2.733   9.157   7.554
27641WAT      O83164   8.733   6.234   7.043
27641WAT     H183165   8.654   6.272   6.995
27641WAT     H283166   8.747   6.139   7.014
27642WAT      O83167   8.676   2.710   1.747
27642WAT     H183168   8.606   2.779   1.763
27642WAT     H283169   8.633   2.624   1.722
27643WAT      O83170   6.987   0.899   1.092
27643WAT     H183171   7.018   0.993   1.107
27643WAT     H283172   6.971   0.885   0.995
27644WAT      O83173   7.970   7.749   6.356
27644WAT     H183174   7.888   7.725   6.407
27644WAT     H283175   7.945   7.782   6.265
27645WAT      O83176   3.045   8.990   3.123
27645WAT     H183177   3.119   9.037   3.074
27645WAT     H283178   2.957   9.020   3.088
27646WAT      O83179   9.322   1.657   2.213
27646WAT     H183180   9.401   1.658   2.151
27646WAT     H283181   9.343   1.712   2.294
27647WAT      O83182   8.702   5.775   7.187
27647WAT     H183183   8.773   5.709   7.165
27647WAT     H283184   8.690   5.780   7.286
27648WAT      O83185   0.400   1.517   8.051
27648WAT     H183186   0.473   1.453   8.076
27648WAT     H283187   0.419   1.556   7.961
27649WAT      O83188   2.648   8.567   4.331
27649WAT     H183189   2.641   8.469   4.314
27649WAT     H283190   2.638   8.618   4.245
27650WAT      O83191   2.686   9.243   7.389
27650WAT     H183192   2.732   9.329   7.368
27650WAT     H283193   2.589   9.250   7.366
27651WAT      O83194   9.026   3.631   9.315
27651WAT     H183195   9.005   3.601   9.222
27651WAT     H283196   9.009   3.729   9.323
27652WAT      O83197   1.588   9.201   1.293
27652WAT     H183198   1.577   9.186   1.391
27652WAT     H283199   1.683   9.225   1.274
27653WAT      O83200   2.217   7.997   6.598
27653WAT     H183201   2.297   7.989   6.658
27653WAT     H283202   2.178   7.906   6.582
27654WAT      O83203   2.623   8.707   5.744
27654WAT     H183204   2.533   8.710   5.787
27654WAT     H283205   2.616   8.740   5.650
27655WAT      O83206   6.636   5.135   6.923
27655WAT     H183207   6.636   5.212   6.986
27655WAT     H283208   6.580   5.157   6.843
27656WAT      O83209   6.162   9.351   9.211
27656WAT     H183210   6.122   9.308   9.130
27656WAT     H283211   6.096   9.413   9.252
27657WAT      O83212   5.839   0.981   1.819
27657WAT     H183213   5.928   1.003   1.860
27657WAT     H283214   5.766   1.028   1.868
27658WAT      O83215   6.348   8.998   9.373
27658WAT     H183216   6.326   9.066   9.444
27658WAT     H283217   6.388   9.044   9.294
27659WAT      O83218   1.377   0.982   4.360
27659WAT     H183219   1.458   0.928   4.384
27659WAT     H283220   1.405   1.060   4.305
27660WAT      O83221   7.054   2.548   3.384
27660WAT     H183222   7.124   2.493   3.429
27660WAT     H283223   7.032   2.628   3.439
27661WAT      O83224   3.637   4.799   1.315
27661WAT     H183225   3.573   4.726   1.293
27661WAT     H283226   3.663   4.793   1.411
27662WAT      O83227   9.571   9.263   5.943
27662WAT     H183228   9.553   9.184   5.884
27662WAT     H283229   9.593   9.231   6.035
27663WAT      O83230   3.247   7.837   7.316
27663WAT     H183231   3.296   7.757   7.281
27663WAT     H283232   3.154   7.837   7.281
27664WAT      O83233   7.617   0.662   1.029
27664WAT     H183234   7.644   0.592   1.095
27664WAT     H283235   7.571   0.737   1.077
27665WAT      O83236   3.764   6.993   2.173
27665WAT     H183237   3.672   7.029   2.191
27665WAT     H283238   3.756   6.902   2.131
27666WAT      O83239   0.138   6.391   3.711
27666WAT     H183240   0.193   6.434   3.639
27666WAT     H283241   0.114   6.298   3.684
27667WAT      O83242   3.695   3.006   8.532
27667WAT     H183243   3.604   2.966   8.532
27667WAT     H283244   3.764   2.934   8.522
27668WAT      O83245   1.272   1.409   7.530
27668WAT     H183246   1.183   1.430   7.488
27668WAT     H283247   1.336   1.484   7.512
27669WAT      O83248   6.231   8.576   7.875
27669WAT     H183249   6.150   8.518   7.887
27669WAT     H283250   6.254   8.581   7.778
27670WAT      O83251   7.450   9.272   6.923
27670WAT     H183252   7.431   9.183   6.965
27670WAT     H283253   7.385   9.339   6.959
27671WAT      O83254   6.320   6.216   9.503
27671WAT     H183255   6.345   6.292   9.444
27671WAT     H283256   6.384   6.141   9.490
27672WAT      O83257   9.029   0.669   3.474
27672WAT     H183258   8.949   0.682   3.533
27672WAT     H283259   9.110   0.705   3.520
27673WAT      O83260   3.095   4.520   6.201
27673WAT     H183261   3.088   4.421   6.191
27673WAT     H283262   3.068   4.547   6.293
27674WAT      O83263   7.173   7.000   4.966
27674WAT     H183264   7.088   6.960   5.001
27674WAT     H283265   7.193   7.084   5.016
27675WAT      O83266   9.814   8.315   9.403
27675WAT     H183267   9.804   8.216   9.406
27675WAT     H283268   9.737   8.355   9.353
27676WAT      O83269   8.398   7.863   4.966
27676WAT     H183270   8.481   7.906   4.930
27676WAT     H283271   8.338   7.837   4.890
27677WAT      O83272   9.306   0.704   8.618
27677WAT     H183273   9.227   0.762   8.603
27677WAT     H283274   9.276   0.613   8.647
27678WAT      O83275   1.825   8.842   5.527
27678WAT     H183276   1.890   8.916   5.512
27678WAT     H283277   1.732   8.877   5.518
27679WAT      O83278   8.421   0.570   2.777
27679WAT     H183279   8.411   0.658   2.823
27679WAT     H283280   8.334   0.521   2.780
27680WAT      O83281   9.736   1.905   9.660
27680WAT     H183282   9.806   1.977   9.660
27680WAT     H283283   9.672   1.920   9.734
27681WAT      O83284   7.415   3.319   0.896
27681WAT     H183285   7.505   3.277   0.909
27681WAT     H283286   7.385   3.360   0.982
27682WAT      O83287   8.311   1.101   4.965
27682WAT     H183288   8.225   1.133   4.925
27682WAT     H283289   8.387   1.147   4.920
27683WAT      O83290   7.389   0.833   7.516
27683WAT     H183291   7.322   0.819   7.444
27683WAT     H283292   7.386   0.929   7.546
27684WAT      O83293   4.167   0.241   1.113
27684WAT     H183294   4.198   0.334   1.096
27684WAT     H283295   4.121   0.206   1.031
27685WAT      O83296   8.580   9.041   0.047
27685WAT     H183297   8.609   8.963   0.102
27685WAT     H283298   8.628   9.124   0.078
27686WAT      O83299   4.925   9.001   4.156
27686WAT     H183300   4.903   8.995   4.253
27686WAT     H283301   4.957   8.912   4.124
27687WAT      O83302   5.225   2.010   7.679
27687WAT     H183303   5.265   1.941   7.740
27687WAT     H283304   5.201   2.091   7.732
27688WAT      O83305   4.180   1.094   2.548
27688WAT     H183306   4.180   1.146   2.462
27688WAT     H283307   4.224   1.005   2.532
27689WAT      O83308   1.822   9.831   8.660
27689WAT     H183309   1.731   9.798   8.687
27689WAT     H283310   1.820   9.859   8.565
27690WAT      O83311   5.489   7.931   1.660
27690WAT     H183312   5.493   7.834   1.685
27690WAT     H283313   5.465   7.985   1.741
27691WAT      O83314   7.701   0.247   3.623
27691WAT     H183315   7.648   0.260   3.539
27691WAT     H283316   7.773   0.317   3.627
27692WAT      O83317   6.987   3.851   7.294
27692WAT     H183318   7.040   3.936   7.281
27692WAT     H283319   7.008   3.788   7.219
27693WAT      O83320   3.595   9.343   9.277
27693WAT     H183321   3.648   9.269   9.320
27693WAT     H283322   3.651   9.426   9.272
27694WAT      O83323   5.164   2.779   1.809
27694WAT     H183324   5.202   2.686   1.819
27694WAT     H283325   5.084   2.789   1.867
27695WAT      O83326   9.410   9.403   4.764
27695WAT     H183327   9.471   9.416   4.686
27695WAT     H283328   9.396   9.305   4.780
27696WAT      O83329   7.486   9.018   7.026
27696WAT     H183330   7.457   9.040   7.119
27696WAT     H283331   7.561   8.952   7.029
27697WAT      O83332   2.289   9.527   3.032
27697WAT     H183333   2.283   9.600   2.964
27697WAT     H283334   2.198   9.488   3.047
27698WAT      O83335   6.189   0.585   6.925
27698WAT     H183336   6.197   0.542   6.836
27698WAT     H283337   6.125   0.534   6.982
27699WAT      O83338   4.333   0.754   5.250
27699WAT     H183339   4.428   0.727   5.236
27699WAT     H283340   4.278   0.726   5.171
27700WAT      O83341   0.374   4.586   7.293
27700WAT     H183342   0.311   4.594   7.370
27700WAT     H283343   0.423   4.499   7.299
27701WAT      O83344   7.779   0.314   2.319
27701WAT     H183345   7.703   0.277   2.371
27701WAT     H283346   7.839   0.239   2.290
27702WAT      O83347   5.106   4.430   1.654
27702WAT     H183348   5.162   4.462   1.578
27702WAT     H283349   5.166   4.399   1.729
27703WAT      O83350   0.900   7.145   2.102
27703WAT     H183351   0.883   7.178   2.009
27703WAT     H283352   0.814   7.140   2.152
27704WAT      O83353   3.706   3.588   9.861
27704WAT     H183354   3.676   3.493   9.868
27704WAT     H283355   3.634   3.648   9.895
27705WAT      O83356   2.232   0.678   6.103
27705WAT     H183357   2.290   0.605   6.067
27705WAT     H283358   2.154   0.638   6.152
27706WAT      O83359   3.493   6.455   2.738
27706WAT     H183360   3.433   6.535   2.737
27706WAT     H283361   3.508   6.423   2.644
27707WAT      O83362   6.188   8.557   6.818
27707WAT     H183363   6.260   8.609   6.773
27707WAT     H283364   6.136   8.617   6.879
27708WAT      O83365   8.988   4.801   1.326
27708WAT     H183366   8.929   4.833   1.251
27708WAT     H283367   9.037   4.719   1.298
27709WAT      O83368   6.005   0.084   2.081
27709WAT     H183369   5.999  -0.009   2.117
27709WAT     H283370   6.027   0.147   2.155
27710WAT      O83371   7.068   0.464   5.146
27710WAT     H183372   7.022   0.381   5.115
27710WAT     H283373   7.000   0.530   5.179
27711WAT      O83374   1.118   4.950   4.425
27711WAT     H183375   1.168   5.037   4.431
27711WAT     H283376   1.144   4.903   4.340
27712WAT      O83377   5.952   0.808   5.345
27712WAT     H183378   5.976   0.846   5.256
27712WAT     H283379   5.864   0.845   5.374
27713WAT      O83380   2.842   7.662   3.709
27713WAT     H183381   2.850   7.738   3.772
27713WAT     H283382   2.758   7.671   3.655
27714WAT      O83383   4.598   5.884   2.672
27714WAT     H183384   4.554   5.816   2.729
27714WAT     H283385   4.619   5.965   2.726
27715WAT      O83386   2.862   0.775   4.187
27715WAT     H183387   2.805   0.794   4.107
27715WAT     H283388   2.842   0.682   4.220
27716WAT      O83389   1.330   9.555   8.395
27716WAT     H183390   1.328   9.540   8.493
27716WAT     H283391   1.266   9.628   8.370
27717WAT      O83392   3.057   7.444   0.360
27717WAT     H183393   2.988   7.451   0.288
27717WAT     H283394   3.049   7.522   0.422
27718WAT      O83395   4.854   4.787   9.627
27718WAT     H183396   4.949   4.779   9.595
27718WAT     H283397   4.795   4.811   9.551
27719WAT      O83398   9.472   1.515   9.554
27719WAT     H183399   9.494   1.470   9.641
27719WAT     H283400   9.551   1.568   9.523
27720WAT      O83401   2.822   8.663   8.609
27720WAT     H183402   2.829   8.694   8.704
27720WAT     H283403   2.742   8.704   8.566
27721WAT      O83404   9.358   6.329   2.422
27721WAT     H183405   9.314   6.298   2.506
27721WAT     H283406   9.353   6.258   2.352
27722WAT      O83407   3.773   4.766   9.023
27722WAT     H183408   3.797   4.836   8.957
27722WAT     H283409   3.733   4.687   8.976
27723WAT      O83410   6.759   8.608   3.894
27723WAT     H183411   6.852   8.621   3.927
27723WAT     H283412   6.760   8.591   3.796
27724WAT      O83413   0.971   9.113   4.613
27724WAT     H183414   0.929   9.118   4.522
27724WAT     H283415   1.048   9.049   4.610
27725WAT      O83416   1.946   7.698   6.150
27725WAT     H183417   1.991   7.760   6.086
27725WAT     H283418   1.853   7.730   6.167
27726WAT      O83419   2.926   3.251   4.508
27726WAT     H183420   2.844   3.249   4.450
27726WAT     H283421   2.979   3.333   4.486
27727WAT      O83422   9.632   3.266   4.667
27727WAT     H183423   9.647   3.189   4.729
27727WAT     H283424   9.535   3.272   4.644
27728WAT      O83425   6.637   9.724   8.458
27728WAT     H183426   6.690   9.644   8.433
27728WAT     H283427   6.566   9.699   8.524
27729WAT      O83428   9.393   0.611   5.842
27729WAT     H183429   9.400   0.603   5.743
27729WAT     H283430   9.345   0.531   5.879
27730WAT      O83431   6.806   4.031   9.154
27730WAT     H183432   6.879   4.031   9.223
27730WAT     H283433   6.845   4.055   9.065
27731WAT      O83434   1.850   8.291   2.949
27731WAT     H183435   1.763   8.331   2.921
27731WAT     H283436   1.919   8.364   2.956
27732WAT      O83437   7.470   9.197   5.145
27732WAT     H183438   7.388   9.253   5.156
27732WAT     H283439   7.509   9.214   5.054
27733WAT      O83440   8.772   2.257   5.127
27733WAT     H183441   8.761   2.276   5.225
27733WAT     H283442   8.861   2.289   5.096
27734WAT      O83443   8.082   9.720   3.687
27734WAT     H183444   8.044   9.783   3.754
27734WAT     H283445   8.181   9.715   3.698
27735WAT      O83446   3.448   2.698   1.502
27735WAT     H183447   3.393   2.660   1.577
27735WAT     H283448   3.387   2.728   1.429
27736WAT      O83449   3.020   0.889   9.276
27736WAT     H183450   3.060   0.823   9.212
27736WAT     H283451   3.090   0.918   9.341
27737WAT      O83452   5.726   1.737   7.610
27737WAT     H183453   5.825   1.736   7.619
27737WAT     H283454   5.699   1.690   7.526
27738WAT      O83455   4.252   5.099   0.496
27738WAT     H183456   4.221   5.022   0.553
27738WAT     H283457   4.307   5.064   0.421
27739WAT      O83458   4.358   1.356   7.008
27739WAT     H183459   4.270   1.307   7.007
27739WAT     H283460   4.432   1.290   7.023
27740WAT      O83461   0.804   1.111   7.086
27740WAT     H183462   0.816   1.045   7.012
27740WAT     H283463   0.714   1.097   7.127
27741WAT      O83464   0.688   1.810   0.864
27741WAT     H183465   0.611   1.872   0.850
27741WAT     H283466   0.767   1.842   0.812
27742WAT      O83467   9.430   4.421   4.589
27742WAT     H183468   9.413   4.470   4.675
27742WAT     H283469   9.436   4.323   4.608
27743WAT      O83470   6.099   7.259   7.316
27743WAT     H183471   6.179   7.262   7.255
27743WAT     H283472   6.016   7.255   7.261
27744WAT      O83473   8.873   2.190   0.033
27744WAT     H183474   8.937   2.162  -0.038
27744WAT     H283475   8.881   2.289   0.048
27745WAT      O83476   4.525   5.262   6.997
27745WAT     H183477   4.495   5.168   7.010
27745WAT     H283478   4.583   5.267   6.916
27746WAT      O83479   4.020   1.563   1.518
27746WAT     H183480   4.058   1.525   1.433
27746WAT     H283481   4.006   1.662   1.506
27747WAT      O83482   6.790   2.736   5.189
27747WAT     H183483   6.781   2.835   5.200
27747WAT     H283484   6.700   2.693   5.191
27748WAT      O83485   3.557   5.119   1.659
27748WAT     H183486   3.516   5.090   1.572
27748WAT     H283487   3.499   5.090   1.735
27749WAT      O83488   7.839   3.719   1.493
27749WAT     H183489   7.888   3.701   1.578
27749WAT     H283490   7.814   3.632   1.450
27750WAT      O83491   3.420   8.582   1.143
27750WAT     H183492   3.328   8.618   1.127
27750WAT     H283493   3.455   8.614   1.231
27751WAT      O83494   3.954   7.521   6.930
27751WAT     H183495   3.968   7.462   6.851
27751WAT     H283496   3.868   7.570   6.919
27752WAT      O83497   8.181   3.612   5.625
27752WAT     H183498   8.130   3.529   5.602
27752WAT     H283499   8.204   3.611   5.723
27753WAT      O83500   5.360   2.479   3.337
27753WAT     H183501   5.342   2.486   3.239
27753WAT     H283502   5.453   2.510   3.356
27754WAT      O83503   4.619   4.531   1.602
27754WAT     H183504   4.584   4.478   1.524
27754WAT     H283505   4.656   4.618   1.569
27755WAT      O83506   4.988   9.830   4.726
27755WAT     H183507   5.087   9.826   4.734
27755WAT     H283508   4.951   9.887   4.800
27756WAT      O83509   9.153   0.731   5.144
27756WAT     H183510   9.065   0.780   5.141
27756WAT     H283511   9.147   0.648   5.089
27757WAT      O83512   3.121   4.500   5.752
27757WAT     H183513   3.094   4.404   5.745
27757WAT     H283514   3.047   4.558   5.717
27758WAT      O83515   7.289   8.554   9.191
27758WAT     H183516   7.227   8.555   9.269
27758WAT     H283517   7.263   8.481   9.128
27759WAT      O83518   7.754   4.694   5.118
27759WAT     H183519   7.700   4.774   5.093
27759WAT     H283520   7.729   4.617   5.059
27760WAT      O83521   7.787   3.776   5.207
27760WAT     H183522   7.874   3.822   5.229
27760WAT     H283523   7.780   3.766   5.108
27761WAT      O83524   8.210   0.185   3.924
27761WAT     H183525   8.188   0.282   3.915
27761WAT     H283526   8.259   0.153   3.842
27762WAT      O83527   1.091   1.849   3.148
27762WAT     H183528   1.046   1.889   3.068
27762WAT     H283529   1.076   1.908   3.227
27763WAT      O83530   4.434   7.859   3.850
27763WAT     H183531   4.477   7.801   3.780
27763WAT     H283532   4.492   7.860   3.932
27764WAT      O83533   4.161   0.472   1.969
27764WAT     H183534   4.211   0.387   1.985
27764WAT     H283535   4.119   0.503   2.054
27765WAT      O83536   0.293   6.517   2.292
27765WAT     H183537   0.379   6.508   2.342
27765WAT     H283538   0.217   6.494   2.353
27766WAT      O83539   2.605   7.647   3.580
27766WAT     H183540   2.535   7.702   3.533
27766WAT     H283541   2.567   7.557   3.602
27767WAT      O83542   0.896   8.508   0.118
27767WAT     H183543   0.820   8.553   0.071
27767WAT     H283544   0.979   8.563   0.108
27768WAT      O83545   3.741   3.887   2.892
27768WAT     H183546   3.651   3.926   2.870
27768WAT     H283547   3.812   3.939   2.845
27769WAT      O83548   0.048   7.413   5.417
27769WAT     H183549  -0.022   7.372   5.475
27769WAT     H283550   0.053   7.512   5.435
27770WAT      O83551   2.291   9.574   5.113
27770WAT     H183552   2.365   9.570   5.180
27770WAT     H283553   2.208   9.534   5.153
27771WAT      O83554   4.696   6.995   1.667
27771WAT     H183555   4.649   7.064   1.613
27771WAT     H283556   4.678   7.011   1.764
27772WAT      O83557   4.438   9.296   4.363
27772WAT     H183558   4.464   9.254   4.450
27772WAT     H283559   4.349   9.260   4.334
27773WAT      O83560   7.635   1.561   3.074
27773WAT     H183561   7.618   1.658   3.090
27773WAT     H283562   7.607   1.509   3.154
27774WAT      O83563   5.688   6.866   1.290
27774WAT     H183564   5.725   6.927   1.360
27774WAT     H283565   5.603   6.904   1.254
27775WAT      O83566   5.353   0.495   6.866
27775WAT     H183567   5.268   0.511   6.816
27775WAT     H283568   5.337   0.429   6.939
27776WAT      O83569   8.172   5.036   3.911
27776WAT     H183570   8.217   4.960   3.863
27776WAT     H283571   8.131   5.002   3.995
27777WAT      O83572   8.226   9.480   6.030
27777WAT     H183573   8.286   9.465   6.109
27777WAT     H283574   8.230   9.400   5.969
27778WAT      O83575   2.345   2.615   4.283
27778WAT     H183576   2.389   2.658   4.204
27778WAT     H283577   2.409   2.551   4.326
27779WAT      O83578   2.347   9.626   4.069
27779WAT     H183579   2.277   9.569   4.025
27779WAT     H283580   2.433   9.619   4.017
27780WAT      O83581   8.176   2.618   7.516
27780WAT     H183582   8.079   2.632   7.493
27780WAT     H283583   8.216   2.704   7.545
27781WAT      O83584   1.900   9.526   4.163
27781WAT     H183585   1.955   9.586   4.105
27781WAT     H283586   1.956   9.495   4.240
27782WAT      O83587   8.350   8.672   4.959
27782WAT     H183588   8.293   8.610   5.012
27782WAT     H283589   8.362   8.635   4.866
27783WAT      O83590   8.933   0.893   5.114
27783WAT     H183591   8.940   0.946   5.199
27783WAT     H283592   8.931   0.956   5.036
27784WAT      O83593   5.656   4.141   1.351
27784WAT     H183594   5.569   4.164   1.396
27784WAT     H283595   5.666   4.041   1.350
27785WAT      O83596   6.264   6.667   7.085
27785WAT     H183597   6.355   6.627   7.072
27785WAT     H283598   6.199   6.594   7.105
27786WAT      O83599   4.463   6.740   2.338
27786WAT     H183600   4.458   6.655   2.287
27786WAT     H283601   4.550   6.785   2.321
27787WAT      O83602   0.214   2.518   6.477
27787WAT     H183603   0.257   2.608   6.467
27787WAT     H283604   0.190   2.503   6.572
27788WAT      O83605   3.187   1.937   8.661
27788WAT     H183606   3.111   1.999   8.677
27788WAT     H283607   3.158   1.842   8.676
27789WAT      O83608   4.446   7.354   4.100
27789WAT     H183609   4.478   7.363   4.195
27789WAT     H283610   4.465   7.439   4.051
27790WAT      O83611   7.704   2.172   1.969
27790WAT     H183612   7.791   2.155   2.014
27790WAT     H283613   7.647   2.090   1.973
27791WAT      O83614   9.564   4.602   2.475
27791WAT     H183615   9.643   4.597   2.537
27791WAT     H283616   9.480   4.597   2.528
27792WAT      O83617   0.619   7.814   1.858
27792WAT     H183618   0.661   7.791   1.770
27792WAT     H283619   0.598   7.911   1.861
27793WAT      O83620   7.603   0.127   9.820
27793WAT     H183621   7.560   0.042   9.788
27793WAT     H283622   7.655   0.108   9.903
27794WAT      O83623   2.528   6.321   0.959
27794WAT     H183624   2.611   6.371   0.984
27794WAT     H283625   2.455   6.345   1.023
27795WAT      O83626   1.801   5.293   4.011
27795WAT     H183627   1.832   5.388   4.002
27795WAT     H283628   1.812   5.246   3.923
27796WAT      O83629   2.446   6.674   4.962
27796WAT     H183630   2.396   6.651   4.879
27796WAT     H283631   2.420   6.766   4.993
27797WAT      O83632   1.708   8.443   3.335
27797WAT     H183633   1.766   8.364   3.313
27797WAT     H283634   1.699   8.452   3.434
27798WAT      O83635   9.694   0.256   2.291
27798WAT     H183636   9.666   0.349   2.314
27798WAT     H283637   9.783   0.237   2.333
27799WAT      O83638   1.519   8.695   1.791
27799WAT     H183639   1.444   8.707   1.857
27799WAT     H283640   1.597   8.652   1.836
27800WAT      O83641   5.272   7.727   7.381
27800WAT     H183642   5.203   7.686   7.322
27800WAT     H283643   5.244   7.719   7.477
27801WAT      O83644   5.655   4.566   8.270
27801WAT     H183645   5.695   4.510   8.197
27801WAT     H283646   5.726   4.589   8.336
27802WAT      O83647   0.895   4.570   5.340
27802WAT     H183648   0.821   4.528   5.393
27802WAT     H283649   0.970   4.594   5.402
27803WAT      O83650   2.705   3.332   5.228
27803WAT     H183651   2.720   3.308   5.324
27803WAT     H283652   2.608   3.321   5.206
27804WAT      O83653   3.904   1.856   3.129
27804WAT     H183654   3.975   1.895   3.189
27804WAT     H283655   3.821   1.911   3.136
27805WAT      O83656   4.691   1.210   6.066
27805WAT     H183657   4.651   1.131   6.018
27805WAT     H283658   4.669   1.204   6.164
27806WAT      O83659   5.931   3.952   5.728
27806WAT     H183660   5.897   4.015   5.798
27806WAT     H283661   5.884   3.864   5.738
27807WAT      O83662   5.857   7.077   6.890
27807WAT     H183663   5.901   7.051   6.976
27807WAT     H283664   5.898   7.026   6.814
27808WAT      O83665   1.247   5.815   5.119
27808WAT     H183666   1.192   5.733   5.133
27808WAT     H283667   1.221   5.885   5.185
27809WAT      O83668   0.345   1.913   6.880
27809WAT     H183669   0.431   1.919   6.829
27809WAT     H283670   0.287   1.843   6.840
27810WAT      O83671   4.615   4.374   5.754
27810WAT     H183672   4.606   4.278   5.729
27810WAT     H283673   4.539   4.426   5.716
27811WAT      O83674   4.650   8.716   4.695
27811WAT     H183675   4.673   8.770   4.776
27811WAT     H283676   4.689   8.624   4.703
27812WAT      O83677   7.970   1.006   6.355
27812WAT     H183678   7.968   1.057   6.441
27812WAT     H283679   8.064   0.979   6.335
27813WAT      O83680   0.885   9.802   6.667
27813WAT     H183681   0.895   9.840   6.759
27813WAT     H283682   0.880   9.702   6.672
27814WAT      O83683   4.141   0.678   5.427
27814WAT     H183684   4.067   0.630   5.381
27814WAT     H283685   4.215   0.695   5.362
27815WAT      O83686   9.720   4.826   8.396
27815WAT     H183687   9.757   4.797   8.307
27815WAT     H283688   9.624   4.798   8.403
27816WAT      O83689   2.057   4.341   6.799
27816WAT     H183690   1.959   4.325   6.813
27816WAT     H283691   2.093   4.395   6.876
27817WAT      O83692   6.903   3.910   1.430
27817WAT     H183693   6.937   3.934   1.521
27817WAT     H283694   6.856   3.989   1.391
27818WAT      O83695   9.014   9.408   9.445
27818WAT     H183696   9.046   9.489   9.494
27818WAT     H283697   9.091   9.344   9.434
27819WAT      O83698   8.087   3.098   2.993
27819WAT     H183699   7.988   3.107   3.006
27819WAT     H283700   8.127   3.187   2.975
27820WAT      O83701   7.406   5.206   7.912
27820WAT     H183702   7.447   5.116   7.901
27820WAT     H283703   7.462   5.274   7.864
27821WAT      O83704   1.135   6.006   5.277
27821WAT     H183705   1.172   6.029   5.367
27821WAT     H283706   1.161   6.076   5.211
27822WAT      O83707   6.064   0.440   2.955
27822WAT     H183708   6.054   0.343   2.932
27822WAT     H283709   6.123   0.485   2.889
27823WAT      O83710   6.091   4.894   1.494
27823WAT     H183711   6.134   4.951   1.564
27823WAT     H283712   6.162   4.851   1.438
27824WAT      O83713   2.358   4.847   5.715
27824WAT     H183714   2.348   4.825   5.618
27824WAT     H283715   2.329   4.941   5.732
27825WAT      O83716   8.136   8.941   2.816
27825WAT     H183717   8.197   8.989   2.753
27825WAT     H283718   8.160   8.845   2.819
27826WAT      O83719   1.879   2.563   8.061
27826WAT     H183720   1.804   2.499   8.077
27826WAT     H283721   1.953   2.545   8.126
27827WAT      O83722   0.238   5.267   8.639
27827WAT     H183723   0.262   5.170   8.640
27827WAT     H283724   0.281   5.313   8.717
27828WAT      O83725   3.991   1.346   5.552
27828WAT     H183726   3.899   1.363   5.588
27828WAT     H283727   3.985   1.291   5.469
27829WAT      O83728   3.318   3.791   6.026
27829WAT     H183729   3.377   3.711   6.014
27829WAT     H283730   3.353   3.867   5.972
27830WAT      O83731   2.287   2.887   4.100
27830WAT     H183732   2.243   2.934   4.177
27830WAT     H283733   2.232   2.900   4.018
27831WAT      O83734   6.993   5.986   0.475
27831WAT     H183735   6.973   5.913   0.409
27831WAT     H283736   6.940   6.068   0.451
27832WAT      O83737   7.230   4.546   2.038
27832WAT     H183738   7.187   4.602   1.968
27832WAT     H283739   7.177   4.462   2.051
27833WAT      O83740   0.484   2.451   2.283
27833WAT     H183741   0.505   2.536   2.233
27833WAT     H283742   0.389   2.453   2.313
27834WAT      O83743   1.292   0.670   1.727
27834WAT     H183744   1.218   0.681   1.661
27834WAT     H283745   1.379   0.660   1.678
27835WAT      O83746   2.330   8.156   6.820
27835WAT     H183747   2.275   8.151   6.903
27835WAT     H283748   2.294   8.228   6.761
27836WAT      O83749   5.070   1.405   0.324
27836WAT     H183750   5.067   1.481   0.258
27836WAT     H283751   5.094   1.320   0.275
27837WAT      O83752   0.358   2.580   3.807
27837WAT     H183753   0.342   2.533   3.894
27837WAT     H283754   0.374   2.513   3.735
27838WAT      O83755   3.588   8.224   0.456
27838WAT     H183756   3.566   8.178   0.371
27838WAT     H283757   3.508   8.225   0.515
27839WAT      O83758   4.751   2.451   1.721
27839WAT     H183759   4.821   2.379   1.724
27839WAT     H283760   4.796   2.540   1.733
27840WAT      O83761   4.287   5.529   4.733
27840WAT     H183762   4.339   5.456   4.777
27840WAT     H283763   4.321   5.543   4.640
27841WAT      O83764   3.124   5.826   5.265
27841WAT     H183765   3.026   5.848   5.264
27841WAT     H283766   3.141   5.751   5.329
27842WAT      O83767   4.712   5.018   7.503
27842WAT     H183768   4.807   4.989   7.516
27842WAT     H283769   4.708   5.117   7.497
27843WAT      O83770   1.390   8.402   4.499
27843WAT     H183771   1.443   8.325   4.466
27843WAT     H283772   1.298   8.400   4.458
27844WAT      O83773   5.284   3.231   1.950
27844WAT     H183774   5.222   3.213   1.874
27844WAT     H283775   5.317   3.144   1.987
27845WAT      O83776   3.672   3.932   5.891
27845WAT     H183777   3.706   4.013   5.938
27845WAT     H283778   3.672   3.854   5.954
27846WAT      O83779   5.599   1.390   9.784
27846WAT     H183780   5.608   1.353   9.876
27846WAT     H283781   5.516   1.446   9.778
27847WAT      O83782   4.442   7.130   5.030
27847WAT     H183783   4.390   7.206   5.069
27847WAT     H283784   4.519   7.108   5.090
27848WAT      O83785   5.580   6.797   2.870
27848WAT     H183786   5.674   6.824   2.850
27848WAT     H283787   5.580   6.728   2.943
27849WAT      O83788   3.861   2.790   8.423
27849WAT     H183789   3.795   2.747   8.486
27849WAT     H283790   3.930   2.723   8.396
27850WAT      O83791   7.232   4.971   4.712
27850WAT     H183792   7.201   5.008   4.800
27850WAT     H283793   7.163   4.907   4.677
27851WAT      O83794   0.524   3.240   7.294
27851WAT     H183795   0.449   3.174   7.289
27851WAT     H283796   0.574   3.239   7.208
27852WAT      O83797   1.492   5.350   4.009
27852WAT     H183798   1.507   5.339   3.911
27852WAT     H283799   1.529   5.270   4.057
27853WAT      O83800   3.556   1.131   8.878
27853WAT     H183801   3.643   1.105   8.837
27853WAT     H283802   3.482   1.083   8.831
27854WAT      O83803   0.850   4.813   9.663
27854WAT     H183804   0.895   4.823   9.752
27854WAT     H283805   0.913   4.770   9.599
27855WAT      O83806   9.756   8.363   9.691
27855WAT     H183807   9.792   8.350   9.599
27855WAT     H283808   9.807   8.435   9.737
27856WAT      O83809   7.069   2.827   7.622
27856WAT     H183810   7.100   2.860   7.533
27856WAT     H283811   7.138   2.765   7.660
27857WAT      O83812   1.584   0.976   8.808
27857WAT     H183813   1.625   0.961   8.898
27857WAT     H283814   1.502   1.032   8.818
27858WAT      O83815   9.800   7.835   3.482
27858WAT     H183816   9.818   7.766   3.412
27858WAT     H283817   9.739   7.905   3.445
27859WAT      O83818   1.311   9.742   2.133
27859WAT     H183819   1.272   9.830   2.106
27859WAT     H283820   1.307   9.678   2.056
27860WAT      O83821   5.490   1.691   4.317
27860WAT     H183822   5.428   1.646   4.381
27860WAT     H283823   5.584   1.677   4.345
27861WAT      O83824   0.589   6.509   5.773
27861WAT     H183825   0.526   6.437   5.747
27861WAT     H283826   0.543   6.598   5.767
27862WAT      O83827   1.957   1.903   7.322
27862WAT     H183828   1.956   1.832   7.392
27862WAT     H283829   1.865   1.917   7.286
27863WAT      O83830   0.030   9.134   4.456
27863WAT     H183831   0.019   9.191   4.375
27863WAT     H283832  -0.035   9.058   4.453
27864WAT      O83833   7.983   1.850   4.090
27864WAT     H183834   8.018   1.780   4.151
27864WAT     H283835   8.058   1.910   4.061
27865WAT      O83836   2.480   7.368   6.108
27865WAT     H183837   2.398   7.401   6.155
27865WAT     H283838   2.555   7.432   6.123
27866WAT      O83839   3.468   1.277   2.772
27866WAT     H183840   3.403   1.262   2.847
27866WAT     H283841   3.541   1.209   2.778
27867WAT      O83842   9.045   6.611   4.675
27867WAT     H183843   9.059   6.601   4.576
27867WAT     H283844   9.077   6.701   4.704
27868WAT      O83845   0.737   5.002   3.022
27868WAT     H183846   0.777   5.008   2.931
27868WAT     H283847   0.672   4.926   3.026
27869WAT      O83848   6.968   1.545   3.926
27869WAT     H183849   7.009   1.635   3.913
27869WAT     H283850   7.041   1.477   3.936
27870WAT      O83851   3.720   6.357   3.607
27870WAT     H183852   3.718   6.456   3.623
27870WAT     H283853   3.723   6.310   3.695
27871WAT      O83854   7.672   8.355   0.737
27871WAT     H183855   7.702   8.287   0.804
27871WAT     H283856   7.585   8.325   0.697
27872WAT      O83857   8.793   5.105   0.361
27872WAT     H183858   8.767   5.095   0.457
27872WAT     H283859   8.818   5.200   0.343
27873WAT      O83860   4.193   0.601   1.325
27873WAT     H183861   4.115   0.597   1.387
27873WAT     H283862   4.273   0.635   1.374
27874WAT      O83863   7.089   5.657   2.674
27874WAT     H183864   7.133   5.703   2.750
27874WAT     H283865   7.091   5.558   2.688
27875WAT      O83866   8.484   7.924   6.925
27875WAT     H183867   8.414   7.863   6.964
27875WAT     H283868   8.570   7.909   6.973
27876WAT      O83869   7.644   2.629   3.489
27876WAT     H183870   7.692   2.616   3.402
27876WAT     H283871   7.548   2.648   3.471
27877WAT      O83872   2.467   5.858   7.206
27877WAT     H183873   2.545   5.896   7.156
27877WAT     H283874   2.499   5.787   7.268
27878WAT      O83875   6.018   0.770   0.959
27878WAT     H183876   6.044   0.837   0.889
27878WAT     H283877   6.003   0.682   0.915
27879WAT      O83878   3.691   3.808   4.519
27879WAT     H183879   3.646   3.793   4.607
27879WAT     H283880   3.636   3.768   4.446
27880WAT      O83881   7.528   1.330   1.765
27880WAT     H183882   7.432   1.339   1.789
27880WAT     H283883   7.584   1.353   1.845
27881WAT      O83884   4.038   2.688   3.288
27881WAT     H183885   3.967   2.620   3.271
27881WAT     H283886   4.026   2.728   3.379
27882WAT      O83887   7.615   6.852   1.113
27882WAT     H183888   7.664   6.859   1.200
27882WAT     H283889   7.679   6.825   1.041
27883WAT      O83890   8.466   1.416   6.119
27883WAT     H183891   8.428   1.374   6.201
27883WAT     H283892   8.422   1.505   6.104
27884WAT      O83893   5.132   8.145   8.712
27884WAT     H183894   5.136   8.244   8.705
27884WAT     H283895   5.061   8.110   8.651
27885WAT      O83896   8.975   3.971   6.366
27885WAT     H183897   9.045   3.903   6.386
27885WAT     H283898   9.019   4.059   6.348
27886WAT      O83899   7.210   2.875   3.176
27886WAT     H183900   7.127   2.877   3.233
27886WAT     H283901   7.184   2.874   3.080
27887WAT      O83902   4.351   6.282   7.654
27887WAT     H183903   4.340   6.348   7.580
27887WAT     H283904   4.384   6.328   7.736
27888WAT      O83905   2.922   4.280   1.918
27888WAT     H183906   2.998   4.340   1.891
27888WAT     H283907   2.932   4.258   2.015
27889WAT      O83908   6.800   6.831   4.891
27889WAT     H183909   6.785   6.860   4.797
27889WAT     H283910   6.787   6.732   4.899
27890WAT      O83911   7.986   9.452   0.863
27890WAT     H183912   8.027   9.361   0.863
27890WAT     H283913   7.992   9.491   0.771
27891WAT      O83914   8.585   6.601   7.735
27891WAT     H183915   8.575   6.586   7.833
27891WAT     H283916   8.681   6.592   7.710
27892WAT      O83917   5.685   4.491   1.313
27892WAT     H183918   5.728   4.491   1.223
27892WAT     H283919   5.748   4.451   1.380
27893WAT      O83920   4.306   2.166   8.812
27893WAT     H183921   4.401   2.139   8.796
27893WAT     H283922   4.248   2.130   8.739
27894WAT      O83923   6.018   6.148   6.867
27894WAT     H183924   6.116   6.144   6.889
27894WAT     H283925   5.965   6.139   6.951
27895WAT      O83926   8.755   9.585   9.297
27895WAT     H183927   8.787   9.544   9.212
27895WAT     H283928   8.694   9.661   9.276
27896WAT      O83929   5.126   3.200   3.862
27896WAT     H183930   5.184   3.202   3.781
27896WAT     H283931   5.069   3.282   3.866
27897WAT      O83932   3.709   0.201   8.968
27897WAT     H183933   3.794   0.183   8.920
27897WAT     H283934   3.720   0.181   9.066
27898WAT      O83935   9.380   4.121   2.532
27898WAT     H183936   9.364   4.049   2.464
27898WAT     H283937   9.446   4.187   2.496
27899WAT      O83938   4.195   2.786   7.361
27899WAT     H183939   4.128   2.736   7.307
27899WAT     H283940   4.198   2.881   7.330
27900WAT      O83941   5.182   8.438   8.717
27900WAT     H183942   5.189   8.489   8.802
27900WAT     H283943   5.088   8.442   8.683
27901WAT      O83944   7.115   5.519   6.530
27901WAT     H183945   7.092   5.494   6.436
27901WAT     H283946   7.194   5.466   6.560
27902WAT      O83947   8.047   3.154   2.000
27902WAT     H183948   8.039   3.096   2.081
27902WAT     H283949   7.957   3.167   1.958
27903WAT      O83950   1.791   1.013   1.292
27903WAT     H183951   1.827   1.038   1.382
27903WAT     H283952   1.757   1.095   1.246
27904WAT      O83953   1.886   0.400   1.335
27904WAT     H183954   1.797   0.439   1.358
27904WAT     H283955   1.886   0.302   1.353
27905WAT      O83956   9.757   6.941   6.293
27905WAT     H183957   9.686   7.011   6.303
27905WAT     H283958   9.847   6.984   6.301
27906WAT      O83959   7.279   7.066   6.205
27906WAT     H183960   7.303   7.159   6.175
27906WAT     H283961   7.362   7.012   6.217
27907WAT      O83962   1.030   2.242   3.760
27907WAT     H183963   1.052   2.221   3.856
27907WAT     H283964   1.013   2.340   3.750
27908WAT      O83965   1.713   4.047   0.736
27908WAT     H183966   1.615   4.048   0.754
27908WAT     H283967   1.763   4.066   0.821
27909WAT      O83968   8.328   5.178   6.432
27909WAT     H183969   8.296   5.104   6.374
27909WAT     H283970   8.330   5.263   6.380
27910WAT      O83971   8.916   7.600   7.851
27910WAT     H183972   9.003   7.612   7.897
27910WAT     H283973   8.869   7.520   7.889
27911WAT      O83974   8.001   9.763   1.759
27911WAT     H183975   8.038   9.689   1.704
27911WAT     H283976   7.958   9.830   1.699
27912WAT      O83977   5.932   5.327   8.246
27912WAT     H183978   6.015   5.346   8.193
27912WAT     H283979   5.898   5.236   8.224
27913WAT      O83980   6.542   8.627   8.491
27913WAT     H183981   6.577   8.711   8.534
27913WAT     H283982   6.453   8.604   8.532
27914WAT      O83983   2.622   5.809   8.496
27914WAT     H183984   2.616   5.744   8.571
27914WAT     H283985   2.612   5.902   8.532
27915WAT      O83986   9.822   0.205   6.305
27915WAT     H183987   9.913   0.215   6.345
27915WAT     H283988   9.821   0.123   6.246
27916WAT      O83989   7.230   7.900   6.125
27916WAT     H183990   7.232   7.933   6.030
27916WAT     H283991   7.144   7.928   6.168
27917WAT      O83992   6.087   5.894   1.527
27917WAT     H183993   6.024   5.967   1.552
27917WAT     H283994   6.162   5.890   1.593
27918WAT      O83995   4.053   4.099   4.452
27918WAT     H183996   4.116   4.023   4.435
27918WAT     H283997   4.056   4.124   4.549
27919WAT      O83998   2.915   5.305   8.066
27919WAT     H183999   2.873   5.285   8.155
27919WAT     H284000   2.901   5.228   8.005
27920WAT      O84001   0.524   6.473   2.515
27920WAT     H184002   0.526   6.545   2.585
27920WAT     H284003   0.612   6.470   2.468
27921WAT      O84004   4.224   7.084   9.064
27921WAT     H184005   4.159   7.027   9.013
27921WAT     H284006   4.173   7.151   9.118
27922WAT      O84007   8.167   7.241   6.598
27922WAT     H184008   8.206   7.328   6.625
27922WAT     H284009   8.069   7.251   6.582
27923WAT      O84010   9.580   6.206   3.600
27923WAT     H184011   9.590   6.273   3.673
27923WAT     H284012   9.667   6.196   3.552
27924WAT      O84013   7.169   0.478   6.281
27924WAT     H184014   7.194   0.547   6.212
27924WAT     H284015   7.150   0.523   6.368
27925WAT      O84016   3.486   5.726   1.295
27925WAT     H184017   3.400   5.749   1.340
27925WAT     H284018   3.485   5.761   1.201
27926WAT      O84019   5.814   8.267   8.621
27926WAT     H184020   5.823   8.289   8.718
27926WAT     H284021   5.783   8.348   8.572
27927WAT      O84022   3.201   8.694   6.375
27927WAT     H184023   3.249   8.607   6.383
27927WAT     H284024   3.268   8.768   6.361
27928WAT      O84025   0.401   3.717   2.709
27928WAT     H184026   0.490   3.737   2.751
27928WAT     H284027   0.358   3.803   2.681
27929WAT      O84028   5.866   4.566   9.620
27929WAT     H184029   5.916   4.508   9.685
27929WAT     H284030   5.793   4.513   9.577
27930WAT      O84031   5.040   8.570   2.801
27930WAT     H184032   5.029   8.641   2.731
27930WAT     H284033   5.089   8.608   2.880
27931WAT      O84034   7.545   2.733   1.323
27931WAT     H184035   7.463   2.751   1.268
27931WAT     H284036   7.581   2.820   1.357
27932WAT      O84037   0.219   0.190   3.426
27932WAT     H184038   0.173   0.102   3.436
27932WAT     H284039   0.215   0.239   3.513
27933WAT      O84040   4.552   3.560   3.635
27933WAT     H184041   4.473   3.500   3.646
27933WAT     H284042   4.602   3.536   3.552
27934WAT      O84043   0.618   0.045   6.764
27934WAT     H184044   0.655   0.015   6.676
27934WAT     H284045   0.694   0.061   6.828
27935WAT      O84046   8.530   1.227   7.301
27935WAT     H184047   8.509   1.131   7.282
27935WAT     H284048   8.446   1.274   7.329
27936WAT      O84049   3.332   3.463   3.136
27936WAT     H184050   3.403   3.397   3.163
27936WAT     H284051   3.261   3.464   3.206
27937WAT      O84052   2.569   2.627   0.485
27937WAT     H184053   2.592   2.648   0.390
27937WAT     H284054   2.542   2.711   0.532
27938WAT      O84055   9.581   6.023   8.839
27938WAT     H184056   9.617   6.112   8.810
27938WAT     H284057   9.642   5.950   8.807
27939WAT      O84058   3.734   4.649   3.931
27939WAT     H184059   3.723   4.620   3.836
27939WAT     H284060   3.796   4.587   3.978
27940WAT      O84061   7.834   4.384   9.248
27940WAT     H184062   7.767   4.360   9.318
27940WAT     H284063   7.920   4.409   9.292
27941WAT      O84064   8.436   6.705   4.326
27941WAT     H184065   8.416   6.726   4.421
27941WAT     H284066   8.535   6.706   4.312
27942WAT      O84067   0.576   9.450   0.171
27942WAT     H184068   0.552   9.354   0.154
27942WAT     H284069   0.507   9.509   0.129
27943WAT      O84070   0.997   4.732   4.815
27943WAT     H184071   0.980   4.666   4.742
27943WAT     H284072   1.065   4.695   4.878
27944WAT      O84073   9.137   9.365   0.111
27944WAT     H184074   9.158   9.403   0.201
27944WAT     H284075   9.043   9.389   0.086
27945WAT      O84076   1.522   4.822   9.066
27945WAT     H184077   1.545   4.916   9.094
27945WAT     H284078   1.454   4.825   8.993
27946WAT      O84079   1.798   1.451   3.513
27946WAT     H184080   1.886   1.495   3.527
27946WAT     H284081   1.726   1.521   3.512
27947WAT      O84082   8.271   7.460   6.699
27947WAT     H184083   8.323   7.519   6.637
27947WAT     H284084   8.323   7.444   6.782
27948WAT      O84085   3.796   8.159   3.702
27948WAT     H184086   3.770   8.161   3.799
27948WAT     H284087   3.847   8.242   3.680
27949WAT      O84088   8.221   5.663   3.607
27949WAT     H184089   8.169   5.747   3.590
27949WAT     H284090   8.266   5.670   3.696
27950WAT      O84091   5.950   1.638   8.419
27950WAT     H184092   5.973   1.606   8.327
27950WAT     H284093   6.019   1.704   8.449
27951WAT      O84094   2.736   9.034   6.536
27951WAT     H184095   2.779   8.951   6.574
27951WAT     H284096   2.690   9.084   6.609
27952WAT      O84097   6.123   5.989   0.142
27952WAT     H184098   6.042   6.042   0.119
27952WAT     H284099   6.169   5.960   0.058
27953WAT      O84100   8.042   5.836   2.300
27953WAT     H184101   7.982   5.760   2.274
27953WAT     H284102   8.118   5.801   2.354
27954WAT      O84103   3.661   3.651   7.238
27954WAT     H184104   3.683   3.667   7.142
27954WAT     H284105   3.719   3.577   7.273
27955WAT      O84106   1.368   1.936   3.963
27955WAT     H184107   1.394   1.880   4.041
27955WAT     H284108   1.325   1.878   3.893
27956WAT      O84109   9.251   8.349   3.378
27956WAT     H184110   9.261   8.417   3.305
27956WAT     H284111   9.331   8.289   3.379
27957WAT      O84112   2.594   0.967   5.137
27957WAT     H184113   2.511   0.926   5.099
27957WAT     H284114   2.570   1.024   5.216
27958WAT      O84115   5.270   2.845   3.679
27958WAT     H184116   5.271   2.780   3.603
27958WAT     H284117   5.194   2.909   3.667
27959WAT      O84118   1.824   7.490   8.000
27959WAT     H184119   1.817   7.564   7.934
27959WAT     H284120   1.846   7.405   7.953
27960WAT      O84121   4.777   6.349   8.608
27960WAT     H184122   4.699   6.307   8.654
27960WAT     H284123   4.752   6.440   8.575
27961WAT      O84124   5.271   3.584   9.007
27961WAT     H184125   5.230   3.537   8.928
27961WAT     H284126   5.291   3.678   8.983
27962WAT      O84127   5.779   2.991   4.284
27962WAT     H184128   5.751   2.990   4.380
27962WAT     H284129   5.701   2.965   4.226
27963WAT      O84130   5.969   7.124   5.001
27963WAT     H184131   5.905   7.200   5.016
27963WAT     H284132   5.932   7.041   5.041
27964WAT      O84133   4.854   1.973   5.564
27964WAT     H184134   4.902   1.980   5.652
27964WAT     H284135   4.880   2.049   5.505
27965WAT      O84136   9.638   3.996   5.533
27965WAT     H184137   9.680   3.911   5.502
27965WAT     H284138   9.701   4.045   5.594
27966WAT      O84139   7.676   1.406   2.856
27966WAT     H184140   7.647   1.454   2.938
27966WAT     H284141   7.597   1.364   2.812
27967WAT      O84142   5.670   5.312   2.935
27967WAT     H184143   5.617   5.289   3.017
27967WAT     H284144   5.760   5.269   2.941
27968WAT      O84145   0.580   5.963   0.955
27968WAT     H184146   0.483   5.957   0.979
27968WAT     H284147   0.591   6.027   0.878
27969WAT      O84148   9.171   6.925   0.261
27969WAT     H184149   9.127   7.008   0.227
27969WAT     H284150   9.233   6.890   0.191
27970WAT      O84151   0.252   3.033   5.833
27970WAT     H184152   0.193   2.987   5.766
27970WAT     H284153   0.198   3.101   5.883
27971WAT      O84154   4.429   8.674   2.577
27971WAT     H184155   4.527   8.663   2.560
27971WAT     H284156   4.398   8.601   2.639
27972WAT      O84157   1.018   2.872   0.975
27972WAT     H184158   1.109   2.870   1.017
27972WAT     H284159   0.999   2.963   0.940
27973WAT      O84160   8.455   5.360   9.835
27973WAT     H184161   8.459   5.456   9.807
27973WAT     H284162   8.482   5.303   9.758
27974WAT      O84163   5.995   7.194   7.708
27974WAT     H184164   5.957   7.166   7.620
27974WAT     H284165   5.969   7.127   7.778
27975WAT      O84166   1.637   8.442   1.673
27975WAT     H184167   1.611   8.538   1.671
27975WAT     H284168   1.631   8.408   1.767
27976WAT      O84169   3.303   4.169   4.055
27976WAT     H184170   3.330   4.263   4.073
27976WAT     H284171   3.344   4.138   3.970
27977WAT      O84172   8.315   6.382   1.448
27977WAT     H184173   8.366   6.467   1.461
27977WAT     H284174   8.332   6.347   1.355
27978WAT      O84175   9.139   0.135   7.796
27978WAT     H184176   9.046   0.106   7.817
27978WAT     H284177   9.190   0.147   7.882
27979WAT      O84178   4.201   2.830   4.077
27979WAT     H184179   4.165   2.901   4.016
27979WAT     H284180   4.138   2.752   4.077
27980WAT      O84181   3.351   4.442   8.758
27980WAT     H184182   3.269   4.417   8.707
27980WAT     H284183   3.366   4.540   8.753
27981WAT      O84184   8.847   3.999   5.708
27981WAT     H184185   8.881   4.068   5.771
27981WAT     H284186   8.921   3.969   5.647
27982WAT      O84187   1.712   3.452   3.460
27982WAT     H184188   1.747   3.389   3.530
27982WAT     H284189   1.616   3.470   3.477
27983WAT      O84190   4.802   7.231   3.986
27983WAT     H184191   4.843   7.140   3.973
27983WAT     H284192   4.766   7.238   4.079
27984WAT      O84193   0.823   5.603   1.891
27984WAT     H184194   0.738   5.628   1.937
27984WAT     H284195   0.845   5.673   1.822
27985WAT      O84196   3.852   9.269   2.915
27985WAT     H184197   3.765   9.316   2.927
27985WAT     H284198   3.857   9.231   2.822
27986WAT      O84199   8.326   4.274   3.258
27986WAT     H184200   8.322   4.334   3.178
27986WAT     H284201   8.399   4.206   3.245
27987WAT      O84202   9.503   4.199   1.675
27987WAT     H184203   9.533   4.226   1.584
27987WAT     H284204   9.557   4.247   1.744
27988WAT      O84205   0.838   5.994   2.362
27988WAT     H184206   0.880   6.083   2.343
27988WAT     H284207   0.759   6.008   2.422
27989WAT      O84208   3.861   0.263   6.903
27989WAT     H184209   3.790   0.234   6.840
27989WAT     H284210   3.894   0.184   6.955
27990WAT      O84211   8.972   6.495   7.404
27990WAT     H184212   9.067   6.463   7.405
27990WAT     H284213   8.969   6.591   7.376
27991WAT      O84214   0.249   8.044   8.143
27991WAT     H184215   0.314   8.118   8.162
27991WAT     H284216   0.193   8.027   8.225
27992WAT      O84217   6.880   6.535   7.453
27992WAT     H184218   6.901   6.489   7.539
27992WAT     H284219   6.781   6.550   7.447
27993WAT      O84220   4.599   4.888   3.542
27993WAT     H184221   4.668   4.959   3.527
27993WAT     H284222   4.632   4.801   3.506
27994WAT      O84223   6.275   3.118   9.287
27994WAT     H184224   6.319   3.200   9.324
27994WAT     H284225   6.199   3.146   9.227
27995WAT      O84226   7.452   0.093   9.370
27995WAT     H184227   7.475   0.190   9.359
27995WAT     H284228   7.354   0.081   9.352
27996WAT      O84229   1.585   8.624   7.319
27996WAT     H184230   1.503   8.568   7.306
27996WAT     H284231   1.567   8.717   7.289
27997WAT      O84232   3.397   6.380   3.218
27997WAT     H184233   3.337   6.448   3.175
27997WAT     H284234   3.493   6.407   3.204
27998WAT      O84235   4.872   1.607   9.046
27998WAT     H184236   4.842   1.527   8.995
27998WAT     H284237   4.799   1.637   9.108
27999WAT      O84238   5.966   5.304   1.629
27999WAT     H184239   5.965   5.262   1.720
27999WAT     H284240   6.057   5.294   1.589
28000WAT      O84241   5.320   0.920   7.438
28000WAT     H184242   5.403   0.866   7.450
28000WAT     H284243   5.315   0.953   7.344
28001WAT      O84244   1.792   6.324   7.446
28001WAT     H184245   1.847   6.287   7.522
28001WAT     H284246   1.743   6.405   7.477
28002WAT      O84247   8.746   8.716   8.095
28002WAT     H184248   8.731   8.678   8.003
28002WAT     H284249   8.712   8.810   8.097
28003WAT      O84250   8.929   9.628   3.261
28003WAT     H184251   8.840   9.656   3.225
28003WAT     H284252   8.982   9.583   3.189
28004WAT      O84253   2.212   8.235   4.194
28004WAT     H184254   2.219   8.309   4.261
28004WAT     H284255   2.288   8.241   4.129
28005WAT      O84256   3.813   6.101   3.480
28005WAT     H184257   3.791   6.127   3.574
28005WAT     H284258   3.910   6.119   3.462
28006WAT      O84259   3.610   4.083   9.347
28006WAT     H184260   3.642   4.177   9.358
28006WAT     H284261   3.566   4.053   9.432
28007WAT      O84262   3.908   2.295   2.959
28007WAT     H184263   3.903   2.233   2.881
28007WAT     H284264   3.837   2.365   2.951
28008WAT      O84265   2.473   2.725   4.671
28008WAT     H184266   2.509   2.794   4.735
28008WAT     H284267   2.535   2.716   4.594
28009WAT      O84268   4.621   0.947   7.541
28009WAT     H184269   4.551   0.967   7.611
28009WAT     H284270   4.709   0.984   7.571
28010WAT      O84271   7.417   5.347   4.999
28010WAT     H184272   7.333   5.325   4.950
28010WAT     H284273   7.496   5.339   4.937
28011WAT      O84274   2.742   3.835   5.864
28011WAT     H184275   2.672   3.902   5.839
28011WAT     H284276   2.752   3.833   5.964
28012WAT      O84277   1.361   0.651   4.559
28012WAT     H184278   1.269   0.614   4.569
28012WAT     H284279   1.375   0.725   4.624
28013WAT      O84280   3.897   3.087   2.744
28013WAT     H184281   3.852   3.105   2.656
28013WAT     H284282   3.922   2.990   2.749
28014WAT      O84283   2.794   8.292   7.599
28014WAT     H184284   2.816   8.326   7.691
28014WAT     H284285   2.815   8.194   7.594
28015WAT      O84286   0.191   9.255   1.370
28015WAT     H184287   0.256   9.318   1.413
28015WAT     H284288   0.206   9.256   1.271
28016WAT      O84289   6.890   7.674   1.795
28016WAT     H184290   6.874   7.693   1.698
28016WAT     H284291   6.984   7.645   1.809
28017WAT      O84292   8.311   0.027   5.000
28017WAT     H184293   8.363  -0.039   4.945
28017WAT     H284294   8.248   0.077   4.940
28018WAT      O84295   5.130   2.899   7.530
28018WAT     H184296   5.033   2.916   7.543
28018WAT     H284297   5.183   2.950   7.598
28019WAT      O84298   5.458   2.797   1.567
28019WAT     H184299   5.412   2.842   1.644
28019WAT     H284300   5.424   2.703   1.558
28020WAT      O84301   0.863   3.460   6.210
28020WAT     H184302   0.872   3.417   6.120
28020WAT     H284303   0.782   3.424   6.256
28021WAT      O84304   2.459   5.125   2.974
28021WAT     H184305   2.525   5.158   2.906
28021WAT     H284306   2.508   5.084   3.051
28022WAT      O84307   3.538   4.926   8.831
28022WAT     H184308   3.625   4.969   8.809
28022WAT     H284309   3.515   4.943   8.927
28023WAT      O84310   8.066   7.376   3.527
28023WAT     H184311   8.147   7.396   3.472
28023WAT     H284312   8.021   7.293   3.493
28024WAT      O84313   0.248   0.806   5.285
28024WAT     H184314   0.249   0.842   5.192
28024WAT     H284315   0.171   0.845   5.335
28025WAT      O84316   6.225   4.726   6.756
28025WAT     H184317   6.192   4.820   6.747
28025WAT     H284318   6.203   4.691   6.847
28026WAT      O84319   0.579   5.186   6.984
28026WAT     H184320   0.605   5.101   7.031
28026WAT     H284321   0.480   5.195   6.984
28027WAT      O84322   7.236   1.686   4.686
28027WAT     H184323   7.229   1.762   4.750
28027WAT     H284324   7.198   1.713   4.597
28028WAT      O84325   8.191   0.444   3.956
28028WAT     H184326   8.213   0.513   3.887
28028WAT     H284327   8.101   0.464   3.995
28029WAT      O84328   3.305   3.818   6.308
28029WAT     H184329   3.398   3.813   6.272
28029WAT     H284330   3.240   3.827   6.232
28030WAT      O84331   1.206   4.863   1.851
28030WAT     H184332   1.187   4.843   1.755
28030WAT     H284333   1.200   4.961   1.866
28031WAT      O84334   1.318   2.486   1.005
28031WAT     H184335   1.356   2.475   0.913
28031WAT     H284336   1.295   2.582   1.020
28032WAT      O84337   8.651   9.106   6.178
28032WAT     H184338   8.675   9.185   6.121
28032WAT     H284339   8.712   9.030   6.156
28033WAT      O84340   8.494   5.668   1.056
28033WAT     H184341   8.560   5.703   0.990
28033WAT     H284342   8.526   5.580   1.091
28034WAT      O84343   8.657   3.085   7.074
28034WAT     H184344   8.581   3.029   7.041
28034WAT     H284345   8.626   3.143   7.150
28035WAT      O84346   9.738   4.401   0.308
28035WAT     H184347   9.713   4.325   0.249
28035WAT     H284348   9.671   4.410   0.382
28036WAT      O84349   9.137   8.078   9.078
28036WAT     H184350   9.156   8.029   9.163
28036WAT     H284351   9.127   8.012   9.003
28037WAT      O84352   2.342   7.410   8.372
28037WAT     H184353   2.391   7.466   8.439
28037WAT     H284354   2.303   7.469   8.302
28038WAT      O84355   9.491   7.123   7.721
28038WAT     H184356   9.403   7.132   7.766
28038WAT     H284357   9.483   7.151   7.625
28039WAT      O84358   5.511   5.640   7.489
28039WAT     H184359   5.427   5.666   7.537
28039WAT     H284360   5.589   5.687   7.531
28040WAT      O84361   9.072   6.102   6.784
28040WAT     H184362   9.140   6.094   6.856
28040WAT     H284363   9.107   6.161   6.711
28041WAT      O84364   4.338   1.149   9.308
28041WAT     H184365   4.354   1.222   9.241
28041WAT     H284366   4.271   1.085   9.272
28042WAT      O84367   4.904   8.002   6.525
28042WAT     H184368   4.943   8.016   6.434
28042WAT     H284369   4.939   7.916   6.563
28043WAT      O84370   2.105   8.467   1.961
28043WAT     H184371   2.116   8.562   1.992
28043WAT     H284372   2.193   8.420   1.964
28044WAT      O84373   5.507   6.671   9.038
28044WAT     H184374   5.607   6.677   9.046
28044WAT     H284375   5.481   6.576   9.019
28045WAT      O84376   0.635   4.566   2.571
28045WAT     H184377   0.605   4.549   2.477
28045WAT     H284378   0.712   4.631   2.570
28046WAT      O84379   5.409   9.167   9.402
28046WAT     H184380   5.492   9.154   9.457
28046WAT     H284381   5.429   9.145   9.306
28047WAT      O84382   4.184   0.195   6.641
28047WAT     H184383   4.216   0.210   6.735
28047WAT     H284384   4.200   0.277   6.587
28048WAT      O84385   0.750   8.481   6.145
28048WAT     H184386   0.720   8.438   6.230
28048WAT     H284387   0.833   8.534   6.161
28049WAT      O84388   8.996   7.277   7.770
28049WAT     H184389   8.909   7.283   7.720
28049WAT     H284390   9.072   7.289   7.706
28050WAT      O84391   3.025   1.551   6.256
28050WAT     H184392   3.008   1.499   6.340
28050WAT     H284393   2.959   1.524   6.186
28051WAT      O84394   6.353   5.416   9.883
28051WAT     H184395   6.266   5.461   9.862
28051WAT     H284396   6.363   5.334   9.826
28052WAT      O84397   1.870   6.994   8.044
28052WAT     H184398   1.773   7.019   8.045
28052WAT     H284399   1.916   7.037   8.122
28053WAT      O84400   8.136   9.345   2.950
28053WAT     H184401   8.049   9.385   2.975
28053WAT     H284402   8.144   9.254   2.990
28054WAT      O84403   3.599   1.875   6.482
28054WAT     H184404   3.667   1.820   6.434
28054WAT     H284405   3.635   1.967   6.496
28055WAT      O84406   1.343   2.489   5.621
28055WAT     H184407   1.303   2.445   5.701
28055WAT     H284408   1.318   2.586   5.621
28056WAT      O84409   4.980   7.753   3.139
28056WAT     H184410   5.012   7.808   3.216
28056WAT     H284411   5.022   7.786   3.054
28057WAT      O84412   7.210   6.173   6.252
28057WAT     H184413   7.163   6.218   6.328
28057WAT     H284414   7.307   6.161   6.275
28058WAT      O84415   4.519   7.547   8.879
28058WAT     H184416   4.545   7.638   8.914
28058WAT     H284417   4.442   7.557   8.816
28059WAT      O84418   1.551   5.812   5.065
28059WAT     H184419   1.463   5.787   5.105
28059WAT     H284420   1.624   5.787   5.129
28060WAT      O84421   3.300   3.819   7.927
28060WAT     H184422   3.293   3.722   7.904
28060WAT     H284423   3.396   3.846   7.927
28061WAT      O84424   2.892   4.070   7.034
28061WAT     H184425   2.951   3.992   7.054
28061WAT     H284426   2.940   4.155   7.056
28062WAT      O84427   7.929   9.065   3.242
28062WAT     H184428   7.835   9.094   3.262
28062WAT     H284429   7.984   9.071   3.326
28063WAT      O84430   9.637   2.662   0.983
28063WAT     H184431   9.588   2.576   0.968
28063WAT     H284432   9.587   2.737   0.942
28064WAT      O84433   3.058   9.060   6.883
28064WAT     H184434   2.978   9.001   6.877
28064WAT     H284435   3.099   9.069   6.793
28065WAT      O84436   6.781   9.269   7.873
28065WAT     H184437   6.828   9.348   7.911
28065WAT     H284438   6.699   9.300   7.824
28066WAT      O84439   3.860   4.540   6.536
28066WAT     H184440   3.807   4.602   6.595
28066WAT     H284441   3.932   4.591   6.490
28067WAT      O84442   8.980   3.423   9.765
28067WAT     H184443   9.008   3.331   9.793
28067WAT     H284444   9.021   3.444   9.676
28068WAT      O84445   4.609   9.534   7.792
28068WAT     H184446   4.693   9.480   7.804
28068WAT     H284447   4.572   9.518   7.701
28069WAT      O84448   5.185   2.773   2.450
28069WAT     H184449   5.179   2.776   2.550
28069WAT     H284450   5.182   2.866   2.414
28070WAT      O84451   8.344   8.948   8.832
28070WAT     H184452   8.440   8.975   8.842
28070WAT     H284453   8.294   8.972   8.915
28071WAT      O84454   5.335   6.298   5.660
28071WAT     H184455   5.248   6.282   5.614
28071WAT     H284456   5.336   6.249   5.747
28072WAT      O84457   8.116   3.853   9.756
28072WAT     H184458   8.128   3.940   9.803
28072WAT     H284459   8.128   3.778   9.821
28073WAT      O84460   5.021   7.119   6.759
28073WAT     H184461   5.021   7.037   6.817
28073WAT     H284462   4.981   7.195   6.809
28074WAT      O84463   6.686   5.580   2.977
28074WAT     H184464   6.625   5.643   2.930
28074WAT     H284465   6.775   5.579   2.930
28075WAT      O84466   6.089   2.798   6.307
28075WAT     H184467   6.152   2.850   6.365
28075WAT     H284468   6.030   2.741   6.365
28076WAT      O84469   5.836   3.217   5.299
28076WAT     H184470   5.790   3.131   5.319
28076WAT     H284471   5.857   3.223   5.201
28077WAT      O84472   6.639   8.018   4.519
28077WAT     H184473   6.623   8.003   4.616
28077WAT     H284474   6.631   7.932   4.469
28078WAT      O84475   5.698   0.786   7.188
28078WAT     H184476   5.733   0.764   7.097
28078WAT     H284477   5.617   0.731   7.207
28079WAT      O84478   0.630   0.669   6.603
28079WAT     H184479   0.630   0.760   6.560
28079WAT     H284480   0.550   0.661   6.663
28080WAT      O84481   6.597   4.193   9.540
28080WAT     H184482   6.583   4.187   9.441
28080WAT     H284483   6.605   4.101   9.578
28081WAT      O84484   4.809   7.930   5.702
28081WAT     H184485   4.797   8.029   5.701
28081WAT     H284486   4.730   7.887   5.747
28082WAT      O84487   1.401   8.761   3.686
28082WAT     H184488   1.395   8.849   3.640
28082WAT     H284489   1.494   8.747   3.718
28083WAT      O84490   8.386   5.116   2.983
28083WAT     H184491   8.332   5.036   3.008
28083WAT     H284492   8.483   5.098   3.002
28084WAT      O84493   0.959   4.362   0.335
28084WAT     H184494   0.891   4.357   0.407
28084WAT     H284495   0.917   4.394   0.250
28085WAT      O84496   0.117   2.303   2.043
28085WAT     H184497   0.132   2.273   2.137
28085WAT     H284498   0.164   2.240   1.980
28086WAT      O84499   8.198   2.179   1.380
28086WAT     H184500   8.130   2.107   1.391
28086WAT     H284501   8.170   2.240   1.306
28087WAT      O84502   4.251   9.283   7.180
28087WAT     H184503   4.244   9.373   7.136
28087WAT     H284504   4.340   9.243   7.159
28088WAT      O84505   1.630   2.374   1.602
28088WAT     H184506   1.549   2.345   1.552
28088WAT     H284507   1.621   2.349   1.698
28089WAT      O84508   5.788   9.747   6.128
28089WAT     H184509   5.706   9.730   6.182
28089WAT     H284510   5.772   9.822   6.064
28090WAT      O84511   8.879   6.051   0.557
28090WAT     H184512   8.881   6.135   0.610
28090WAT     H284513   8.898   5.973   0.617
28091WAT      O84514   7.367   3.487   9.887
28091WAT     H184515   7.290   3.425   9.874
28091WAT     H284516   7.344   3.555   9.956
28092WAT      O84517   5.662   3.875   5.981
28092WAT     H184518   5.618   3.787   6.002
28092WAT     H284519   5.729   3.897   6.051
28093WAT      O84520   3.548   9.105   3.194
28093WAT     H184521   3.565   9.031   3.258
28093WAT     H284522   3.567   9.193   3.238
28094WAT      O84523   9.216   0.061   8.844
28094WAT     H184524   9.135   0.043   8.790
28094WAT     H284525   9.276  -0.020   8.843
28095WAT      O84526   7.492   2.588   7.825
28095WAT     H184527   7.473   2.510   7.885
28095WAT     H284528   7.528   2.555   7.738
28096WAT      O84529   0.464   9.098   0.955
28096WAT     H184530   0.433   9.023   1.013
28096WAT     H284531   0.557   9.124   0.981
28097WAT      O84532   8.389   1.240   2.117
28097WAT     H184533   8.339   1.253   2.203
28097WAT     H284534   8.453   1.164   2.127
28098WAT      O84535   6.366   1.270   4.484
28098WAT     H184536   6.360   1.369   4.473
28098WAT     H284537   6.461   1.242   4.478
28099WAT      O84538   4.257   1.490   4.345
28099WAT     H184539   4.193   1.418   4.316
28099WAT     H284540   4.209   1.554   4.405
28100WAT      O84541   7.983   0.480   8.019
28100WAT     H184542   7.953   0.392   7.982
28100WAT     H284543   8.041   0.527   7.952
28101WAT      O84544   9.824   1.071   9.277
28101WAT     H184545   9.899   1.005   9.278
28101WAT     H284546   9.785   1.075   9.186
28102WAT      O84547   9.863   8.999   8.650
28102WAT     H184548   9.897   8.908   8.626
28102WAT     H284549   9.806   8.992   8.732
28103WAT      O84550   0.157   0.713   9.649
28103WAT     H184551   0.118   0.747   9.564
28103WAT     H284552   0.170   0.614   9.642
28104WAT      O84553   4.593   0.654   5.185
28104WAT     H184554   4.625   0.637   5.279
28104WAT     H284555   4.554   0.570   5.148
28105WAT      O84556   6.053   0.108   1.134
28105WAT     H184557   5.970   0.078   1.179
28105WAT     H284558   6.095   0.030   1.087
28106WAT      O84559   0.175   4.142   4.536
28106WAT     H184560   0.139   4.062   4.585
28106WAT     H284561   0.236   4.112   4.463
28107WAT      O84562   9.820   6.176   3.486
28107WAT     H184563   9.809   6.098   3.424
28107WAT     H284564   9.867   6.146   3.569
28108WAT      O84565   0.866   6.738   0.258
28108WAT     H184566   0.814   6.664   0.301
28108WAT     H284567   0.960   6.736   0.291
28109WAT      O84568   0.307   4.795   3.478
28109WAT     H184569   0.398   4.835   3.487
28109WAT     H284570   0.311   4.697   3.500
28110WAT      O84571   8.709   2.970   3.562
28110WAT     H184572   8.735   2.890   3.508
28110WAT     H284573   8.631   2.946   3.620
28111WAT      O84574   9.204   0.545   6.949
28111WAT     H184575   9.253   0.631   6.937
28111WAT     H284576   9.159   0.520   6.864
28112WAT      O84577   8.353   2.161   1.987
28112WAT     H184578   8.306   2.214   1.918
28112WAT     H284579   8.355   2.212   2.073
28113WAT      O84580   7.285   2.063   8.551
28113WAT     H184581   7.280   1.965   8.571
28113WAT     H284582   7.254   2.114   8.630
28114WAT      O84583   7.388   0.749   9.316
28114WAT     H184584   7.312   0.750   9.251
28114WAT     H284585   7.454   0.820   9.293
28115WAT      O84586   5.476   4.182   6.381
28115WAT     H184587   5.433   4.101   6.420
28115WAT     H284588   5.445   4.193   6.286
28116WAT      O84589   1.848   0.409   5.728
28116WAT     H184590   1.931   0.355   5.736
28116WAT     H284591   1.840   0.471   5.806
28117WAT      O84592   1.935   2.361   0.247
28117WAT     H184593   1.923   2.421   0.326
28117WAT     H284594   2.017   2.305   0.260
28118WAT      O84595   7.154   4.006   0.873
28118WAT     H184596   7.221   4.050   0.933
28118WAT     H284597   7.110   4.075   0.816
28119WAT      O84598   6.630   5.555   8.488
28119WAT     H184599   6.634   5.641   8.437
28119WAT     H284600   6.534   5.536   8.512
28120WAT      O84601   2.274   4.187   3.167
28120WAT     H184602   2.358   4.240   3.163
28120WAT     H284603   2.208   4.225   3.102
28121WAT      O84604   6.735   1.042   1.097
28121WAT     H184605   6.762   1.133   1.130
28121WAT     H284606   6.816   0.983   1.091
28122WAT      O84607   5.259   9.677   6.832
28122WAT     H184608   5.195   9.620   6.884
28122WAT     H284609   5.319   9.726   6.896
28123WAT      O84610   7.068   8.059   1.693
28123WAT     H184611   7.063   7.959   1.694
28123WAT     H284612   6.976   8.096   1.685
28124WAT      O84613   1.373   1.570   7.177
28124WAT     H184614   1.412   1.606   7.092
28124WAT     H284615   1.445   1.526   7.231
28125WAT      O84616   0.971   7.532   1.992
28125WAT     H184617   0.905   7.604   2.014
28125WAT     H284618   0.996   7.538   1.896
28126WAT      O84619   8.875   5.961   2.009
28126WAT     H184620   8.779   5.947   2.032
28126WAT     H284621   8.883   5.979   1.911
28127WAT      O84622   9.334   5.750   8.177
28127WAT     H184623   9.279   5.676   8.139
28127WAT     H284624   9.296   5.838   8.149
28128WAT      O84625   6.974   9.643   4.870
28128WAT     H184626   7.071   9.644   4.894
28128WAT     H284627   6.924   9.588   4.936
28129WAT      O84628   1.904   1.481   0.149
28129WAT     H184629   1.862   1.415   0.088
28129WAT     H284630   1.914   1.569   0.102
28130WAT      O84631   8.829   4.605   6.465
28130WAT     H184632   8.814   4.568   6.557
28130WAT     H284633   8.912   4.660   6.464
28131WAT      O84634   0.572   0.068   6.449
28131WAT     H184635   0.479   0.038   6.427
28131WAT     H284636   0.637   0.021   6.389
28132WAT      O84637   8.611   3.593   4.750
28132WAT     H184638   8.662   3.509   4.768
28132WAT     H284639   8.672   3.662   4.711
28133WAT      O84640   4.245   7.070   4.076
28133WAT     H184641   4.204   6.997   4.131
28133WAT     H284642   4.345   7.063   4.080
28134WAT      O84643   6.988   6.537   8.599
28134WAT     H184644   7.031   6.449   8.579
28134WAT     H284645   6.906   6.522   8.655
28135WAT      O84646   9.472   8.088   3.087
28135WAT     H184647   9.500   8.041   3.003
28135WAT     H284648   9.426   8.173   3.063
28136WAT      O84649   2.849   1.103   7.624
28136WAT     H184650   2.850   1.005   7.647
28136WAT     H284651   2.870   1.156   7.706
28137WAT      O84652   1.152   1.377   7.138
28137WAT     H184653   1.208   1.457   7.160
28137WAT     H284654   1.145   1.318   7.218
28138WAT      O84655   2.478   1.959   4.767
28138WAT     H184656   2.436   1.868   4.755
28138WAT     H284657   2.421   2.013   4.829
28139WAT      O84658   5.142   4.445   9.616
28139WAT     H184659   5.111   4.356   9.583
28139WAT     H284660   5.172   4.500   9.538
28140WAT      O84661   2.293   7.854   5.734
28140WAT     H184662   2.302   7.800   5.817
28140WAT     H284663   2.360   7.928   5.734
28141WAT      O84664   4.960   6.621   7.905
28141WAT     H184665   5.058   6.602   7.912
28141WAT     H284666   4.910   6.566   7.972
28142WAT      O84667   0.177   4.231   9.021
28142WAT     H184668   0.235   4.291   8.966
28142WAT     H284669   0.136   4.161   8.961
28143WAT      O84670   0.818   4.015   2.128
28143WAT     H184671   0.730   3.982   2.164
28143WAT     H284672   0.823   4.114   2.142
28144WAT      O84673   7.211   0.351   1.578
28144WAT     H184674   7.297   0.302   1.591
28144WAT     H284675   7.150   0.333   1.655
28145WAT      O84676   3.298   6.117   8.020
28145WAT     H184677   3.303   6.142   8.117
28145WAT     H284678   3.221   6.165   7.977
28146WAT      O84679   6.702   8.577   9.301
28146WAT     H184680   6.631   8.575   9.231
28146WAT     H284681   6.665   8.541   9.387
28147WAT      O84682   7.574   6.195   7.797
28147WAT     H184683   7.505   6.123   7.804
28147WAT     H284684   7.661   6.161   7.833
28148WAT      O84685   9.509   5.706   8.389
28148WAT     H184686   9.550   5.617   8.365
28148WAT     H284687   9.449   5.736   8.315
28149WAT      O84688   7.976   8.273   6.866
28149WAT     H184689   7.879   8.260   6.846
28149WAT     H284690   8.013   8.188   6.904
28150WAT      O84691   9.806   6.024   5.534
28150WAT     H184692   9.878   5.986   5.593
28150WAT     H284693   9.741   6.076   5.590
28151WAT      O84694   3.923   2.209   1.838
28151WAT     H184695   3.892   2.303   1.856
28151WAT     H284696   3.844   2.151   1.820
28152WAT      O84697   0.181   1.535   4.785
28152WAT     H184698   0.135   1.580   4.861
28152WAT     H284699   0.125   1.460   4.751
28153WAT      O84700   7.223   0.884   0.473
28153WAT     H184701   7.298   0.894   0.538
28153WAT     H284702   7.212   0.787   0.449
28154WAT      O84703   8.795   4.501   3.912
28154WAT     H184704   8.894   4.512   3.914
28154WAT     H284705   8.755   4.569   3.851
28155WAT      O84706   6.484   3.005   8.669
28155WAT     H184707   6.565   3.051   8.632
28155WAT     H284708   6.401   3.049   8.633
28156WAT      O84709   5.525   5.813   3.827
28156WAT     H184710   5.490   5.719   3.826
28156WAT     H284711   5.623   5.813   3.808
28157WAT      O84712   7.178   6.812   9.247
28157WAT     H184713   7.263   6.810   9.299
28157WAT     H284714   7.198   6.831   9.151
28158WAT      O84715   4.647   7.088   7.175
28158WAT     H184716   4.567   7.041   7.138
28158WAT     H284717   4.680   7.038   7.255
28159WAT      O84718   8.530   2.676   5.140
28159WAT     H184719   8.551   2.747   5.072
28159WAT     H284720   8.550   2.586   5.100
28160WAT      O84721   9.100   1.191   5.052
28160WAT     H184722   9.062   1.135   4.978
28160WAT     H284723   9.031   1.254   5.086
28161WAT      O84724   5.812   5.297   4.529
28161WAT     H184725   5.832   5.387   4.491
28161WAT     H284726   5.778   5.308   4.623
28162WAT      O84727   4.195   1.520   2.269
28162WAT     H184728   4.201   1.563   2.179
28162WAT     H284729   4.132   1.572   2.326
28163WAT      O84730   6.588   0.967   0.205
28163WAT     H184731   6.557   0.873   0.192
28163WAT     H284732   6.687   0.968   0.212
28164WAT      O84733   8.156   0.447   5.514
28164WAT     H184734   8.250   0.421   5.536
28164WAT     H284735   8.099   0.365   5.513
28165WAT      O84736  -0.005   6.075   1.132
28165WAT     H184737   0.027   6.147   1.071
28165WAT     H284738   0.054   6.071   1.213
28166WAT      O84739   6.378   7.480   7.639
28166WAT     H184740   6.378   7.388   7.600
28166WAT     H284741   6.381   7.548   7.566
28167WAT      O84742   4.689   9.091   9.458
28167WAT     H184743   4.778   9.086   9.503
28167WAT     H284744   4.641   9.003   9.470
28168WAT      O84745   0.803   3.095   9.385
28168WAT     H184746   0.760   3.066   9.300
28168WAT     H284747   0.854   3.018   9.424
28169WAT      O84748   7.114   3.856   9.843
28169WAT     H184749   7.188   3.828   9.903
28169WAT     H284750   7.053   3.779   9.827
28170WAT      O84751   6.725   6.542   5.235
28170WAT     H184752   6.781   6.619   5.267
28170WAT     H284753   6.635   6.546   5.278
28171WAT      O84754   0.282   3.225   3.179
28171WAT     H184755   0.338   3.209   3.098
28171WAT     H284756   0.317   3.170   3.255
28172WAT      O84757   0.367   4.875   2.318
28172WAT     H184758   0.329   4.790   2.356
28172WAT     H284759   0.323   4.953   2.363
28173WAT      O84760   5.825   9.401   1.780
28173WAT     H184761   5.799   9.366   1.691
28173WAT     H284762   5.894   9.473   1.769
28174WAT      O84763   6.105   4.288   1.788
28174WAT     H184764   6.112   4.268   1.691
28174WAT     H284765   6.046   4.221   1.832
28175WAT      O84766   8.703   1.398   6.710
28175WAT     H184767   8.788   1.346   6.722
28175WAT     H284768   8.640   1.346   6.651
28176WAT      O84769   0.334   1.533   8.913
28176WAT     H184770   0.337   1.455   8.851
28176WAT     H284771   0.238   1.554   8.934
28177WAT      O84772   6.015   9.028   2.144
28177WAT     H184773   5.999   8.972   2.225
28177WAT     H284774   5.928   9.051   2.101
28178WAT      O84775   5.085   5.618   0.215
28178WAT     H184776   5.031   5.684   0.268
28178WAT     H284777   5.181   5.648   0.213
28179WAT      O84778   5.328   1.052   7.858
28179WAT     H184779   5.297   0.994   7.783
28179WAT     H284780   5.252   1.108   7.890
28180WAT      O84781   7.516   1.011   4.516
28180WAT     H184782   7.600   1.045   4.558
28180WAT     H284783   7.489   0.925   4.560
28181WAT      O84784   5.024   5.991   8.784
28181WAT     H184785   4.980   5.986   8.874
28181WAT     H284786   4.953   5.998   8.713
28182WAT      O84787   7.888   9.674   2.498
28182WAT     H184788   7.932   9.683   2.409
28182WAT     H284789   7.824   9.750   2.511
28183WAT      O84790   8.441   3.046   8.420
28183WAT     H184791   8.440   2.989   8.338
28183WAT     H284792   8.429   3.142   8.394
28184WAT      O84793   4.181   6.615   4.121
28184WAT     H184794   4.100   6.570   4.084
28184WAT     H284795   4.163   6.713   4.131
28185WAT      O84796   1.174   8.946   2.461
28185WAT     H184797   1.113   9.019   2.432
28185WAT     H284798   1.208   8.896   2.382
28186WAT      O84799   4.568   4.978   6.366
28186WAT     H184800   4.516   4.954   6.448
28186WAT     H284801   4.640   5.043   6.391
28187WAT      O84802   1.445   4.750   4.315
28187WAT     H184803   1.483   4.769   4.225
28187WAT     H284804   1.519   4.740   4.381
28188WAT      O84805   8.971   4.202   4.739
28188WAT     H184806   9.071   4.202   4.741
28188WAT     H284807   8.936   4.215   4.832
28189WAT      O84808   0.932   3.373   0.204
28189WAT     H184809   0.932   3.395   0.302
28189WAT     H284810   0.890   3.448   0.153
28190WAT      O84811   6.286   1.498   7.724
28190WAT     H184812   6.301   1.591   7.691
28190WAT     H284813   6.258   1.500   7.820
28191WAT      O84814   1.600   9.131   1.551
28191WAT     H184815   1.600   9.032   1.567
28191WAT     H284816   1.688   9.169   1.579
28192WAT      O84817   8.534   7.778   0.577
28192WAT     H184818   8.442   7.814   0.588
28192WAT     H284819   8.600   7.844   0.611
28193WAT      O84820   9.716   0.572   8.730
28193WAT     H184821   9.748   0.639   8.662
28193WAT     H284822   9.751   0.597   8.820
28194WAT      O84823   8.262   8.354   2.764
28194WAT     H184824   8.221   8.420   2.826
28194WAT     H284825   8.308   8.282   2.817
28195WAT      O84826   5.744   3.862   1.279
28195WAT     H184827   5.785   3.813   1.357
28195WAT     H284828   5.664   3.812   1.247
28196WAT      O84829   7.657   6.113   6.901
28196WAT     H184830   7.656   6.137   6.998
28196WAT     H284831   7.733   6.160   6.855
28197WAT      O84832   9.623   9.145   3.182
28197WAT     H184833   9.705   9.158   3.126
28197WAT     H284834   9.630   9.201   3.264
28198WAT      O84835   3.610   2.726   9.166
28198WAT     H184836   3.665   2.733   9.249
28198WAT     H284837   3.650   2.658   9.105
28199WAT      O84838   4.898   7.704   4.249
28199WAT     H184839   4.975   7.705   4.313
28199WAT     H284840   4.905   7.783   4.188
28200WAT      O84841   8.412   7.386   0.241
28200WAT     H184842   8.352   7.466   0.237
28200WAT     H284843   8.457   7.374   0.152
28201WAT      O84844   8.143   4.663   5.872
28201WAT     H184845   8.145   4.577   5.924
28201WAT     H284846   8.187   4.735   5.925
28202WAT      O84847   3.425   9.234   4.440
28202WAT     H184848   3.378   9.150   4.416
28202WAT     H284849   3.442   9.287   4.357
28203WAT      O84850   2.700   5.308   5.322
28203WAT     H184851   2.757   5.309   5.239
28203WAT     H284852   2.612   5.352   5.302
28204WAT      O84853   5.718   7.654   9.771
28204WAT     H184854   5.756   7.624   9.684
28204WAT     H284855   5.741   7.587   9.842
28205WAT      O84856   6.727   0.079   5.916
28205WAT     H184857   6.656   0.014   5.945
28205WAT     H284858   6.809   0.029   5.889
28206WAT      O84859   6.768   2.251   1.400
28206WAT     H184860   6.840   2.200   1.447
28206WAT     H284861   6.802   2.342   1.376
28207WAT      O84862   5.580   6.175   6.018
28207WAT     H184863   5.602   6.269   6.047
28207WAT     H284864   5.647   6.145   5.951
28208WAT      O84865   0.079   5.330   5.311
28208WAT     H184866   0.165   5.370   5.342
28208WAT     H284867   0.085   5.230   5.315
28209WAT      O84868   5.413   4.356   5.186
28209WAT     H184869   5.442   4.413   5.263
28209WAT     H284870   5.454   4.265   5.194
28210WAT      O84871   3.239   1.015   9.467
28210WAT     H184872   3.314   1.080   9.472
28210WAT     H284873   3.162   1.048   9.521
28211WAT      O84874   9.626   5.856   1.309
28211WAT     H184875   9.582   5.809   1.233
28211WAT     H284876   9.558   5.911   1.358
28212WAT      O84877   4.077   4.070   3.208
28212WAT     H184878   4.010   3.996   3.194
28212WAT     H284879   4.135   4.047   3.286
28213WAT      O84880   7.425   9.163   1.044
28213WAT     H184881   7.463   9.071   1.039
28213WAT     H284882   7.362   9.168   1.121
28214WAT      O84883   7.672   7.002   5.548
28214WAT     H184884   7.588   6.984   5.599
28214WAT     H284885   7.667   6.958   5.458
28215WAT      O84886   1.308   6.558   2.407
28215WAT     H184887   1.268   6.474   2.369
28215WAT     H284888   1.401   6.569   2.371
28216WAT      O84889   8.419   5.059   5.384
28216WAT     H184890   8.399   4.980   5.326
28216WAT     H284891   8.373   5.048   5.472
28217WAT      O84892   4.103   2.968   1.595
28217WAT     H184893   4.109   3.067   1.604
28217WAT     H284894   4.189   2.927   1.625
28218WAT      O84895   7.753   9.652   3.532
28218WAT     H184896   7.796   9.732   3.489
28218WAT     H284897   7.747   9.668   3.631
28219WAT      O84898   1.856   5.776   8.391
28219WAT     H184899   1.882   5.872   8.398
28219WAT     H284900   1.813   5.746   8.476
28220WAT      O84901   7.147   9.458   5.504
28220WAT     H184902   7.156   9.538   5.563
28220WAT     H284903   7.172   9.376   5.555
28221WAT      O84904   6.458   5.994   4.593
28221WAT     H184905   6.530   6.038   4.541
28221WAT     H284906   6.498   5.945   4.671
28222WAT      O84907   8.495   0.542   9.894
28222WAT     H184908   8.427   0.601   9.850
28222WAT     H284909   8.491   0.451   9.855
28223WAT      O84910   1.929   0.188   1.995
28223WAT     H184911   1.936   0.090   2.013
28223WAT     H284912   1.973   0.239   2.069
28224WAT      O84913   1.990   5.207   0.115
28224WAT     H184914   2.012   5.288   0.169
28224WAT     H284915   1.915   5.229   0.052
28225WAT      O84916   4.569   0.318   5.696
28225WAT     H184917   4.629   0.301   5.774
28225WAT     H284918   4.591   0.406   5.655
28226WAT      O84919   2.743   3.244   4.956
28226WAT     H184920   2.730   3.295   5.041
28226WAT     H284921   2.792   3.301   4.890
28227WAT      O84922   7.625   3.215   2.113
28227WAT     H184923   7.586   3.230   2.204
28227WAT     H284924   7.697   3.282   2.096
28228WAT      O84925   3.176   3.394   3.917
28228WAT     H184926   3.098   3.387   3.855
28228WAT     H284927   3.167   3.476   3.974
28229WAT      O84928   0.535   0.360   5.951
28229WAT     H184929   0.620   0.318   5.981
28229WAT     H284930   0.471   0.288   5.922
28230WAT      O84931   9.554   4.693   0.022
28230WAT     H184932   9.499   4.632   0.079
28230WAT     H284933   9.650   4.684   0.045
28231WAT      O84934   5.983   3.086   0.100
28231WAT     H184935   6.046   3.163   0.100
28231WAT     H284936   5.990   3.036   0.186
28232WAT      O84937   3.631   8.571   1.983
28232WAT     H184938   3.718   8.601   2.021
28232WAT     H284939   3.596   8.494   2.037
28233WAT      O84940   5.695   6.862   0.964
28233WAT     H184941   5.787   6.873   0.924
28233WAT     H284942   5.671   6.945   1.014
28234WAT      O84943   1.374   2.636   2.750
28234WAT     H184944   1.383   2.637   2.850
28234WAT     H284945   1.455   2.676   2.709
28235WAT      O84946   4.956   3.690   7.315
28235WAT     H184947   5.040   3.715   7.266
28235WAT     H284948   4.980   3.635   7.396
28236WAT      O84949   2.970   3.594   5.392
28236WAT     H184950   2.929   3.591   5.301
28236WAT     H284951   3.052   3.650   5.390
28237WAT      O84952   2.046   5.056   8.931
28237WAT     H184953   2.062   5.111   8.850
28237WAT     H284954   2.061   5.112   9.013
28238WAT      O84955   2.446   2.210   9.471
28238WAT     H184956   2.391   2.273   9.525
28238WAT     H284957   2.431   2.116   9.503
28239WAT      O84958   3.762   4.488   8.452
28239WAT     H184959   3.723   4.532   8.372
28239WAT     H284960   3.774   4.390   8.434
28240WAT      O84961   1.065   2.287   3.228
28240WAT     H184962   1.037   2.197   3.263
28240WAT     H284963   1.152   2.313   3.269
28241WAT      O84964   0.541   5.389   1.305
28241WAT     H184965   0.464   5.341   1.347
28241WAT     H284966   0.530   5.488   1.319
28242WAT      O84967   7.368   6.291   0.255
28242WAT     H184968   7.393   6.297   0.352
28242WAT     H284969   7.332   6.379   0.224
28243WAT      O84970   0.779   5.550   8.827
28243WAT     H184971   0.780   5.547   8.927
28243WAT     H284972   0.856   5.604   8.794
28244WAT      O84973   0.152   1.144   8.085
28244WAT     H184974   0.099   1.111   8.164
28244WAT     H284975   0.245   1.167   8.115
28245WAT      O84976   8.271   4.309   7.351
28245WAT     H184977   8.188   4.336   7.399
28245WAT     H284978   8.318   4.390   7.316
28246WAT      O84979   2.200   5.849   0.811
28246WAT     H184980   2.270   5.918   0.827
28246WAT     H284981   2.147   5.835   0.895
28247WAT      O84982   3.857   2.457   1.931
28247WAT     H184983   3.915   2.494   2.004
28247WAT     H284984   3.799   2.530   1.894
28248WAT      O84985   4.600   8.849   6.157
28248WAT     H184986   4.552   8.881   6.239
28248WAT     H284987   4.687   8.808   6.183
28249WAT      O84988   2.970   6.370   5.854
28249WAT     H184989   3.006   6.281   5.825
28249WAT     H284990   2.906   6.405   5.785
28250WAT      O84991   3.199   7.259   0.817
28250WAT     H184992   3.126   7.314   0.856
28250WAT     H284993   3.190   7.164   0.845
28251WAT      O84994   4.794   0.627   1.368
28251WAT     H184995   4.885   0.666   1.355
28251WAT     H284996   4.788   0.587   1.460
28252WAT      O84997   0.022   6.912   7.915
28252WAT     H184998  -0.036   6.985   7.881
28252WAT     H284999   0.071   6.870   7.838
28253WAT      O85000   6.824   1.899   8.056
28253WAT     H185001   6.878   1.815   8.066
28253WAT     H285002   6.860   1.969   8.119
28254WAT      O85003   3.914   8.867   6.643
28254WAT     H185004   3.980   8.848   6.570
28254WAT     H285005   3.946   8.944   6.698
28255WAT      O85006   0.331   9.311   6.121
28255WAT     H185007   0.288   9.302   6.031
28255WAT     H285008   0.416   9.362   6.113
28256WAT      O85009   0.833   7.061   8.590
28256WAT     H185010   0.767   7.135   8.590
28256WAT     H285011   0.923   7.096   8.562
28257WAT      O85012   1.667   3.623   2.720
28257WAT     H185013   1.699   3.661   2.633
28257WAT     H285014   1.571   3.597   2.711
28258WAT      O85015   9.766   5.086   6.098
28258WAT     H185016   9.760   5.107   6.001
28258WAT     H285017   9.676   5.055   6.131
28259WAT      O85018   8.024   5.459   3.742
28259WAT     H185019   8.050   5.547   3.703
28259WAT     H285020   8.069   5.385   3.692
28260WAT      O85021   1.860   8.233   8.114
28260WAT     H185022   1.850   8.246   8.212
28260WAT     H285023   1.816   8.147   8.088
28261WAT      O85024   3.532   1.054   7.021
28261WAT     H185025   3.556   1.130   7.080
28261WAT     H285026   3.473   1.086   6.947
28262WAT      O85027   9.155   6.525   8.995
28262WAT     H185028   9.221   6.600   9.005
28262WAT     H285029   9.141   6.481   9.084
28263WAT      O85030   2.247   0.260   2.315
28263WAT     H185031   2.325   0.317   2.293
28263WAT     H285032   2.257   0.223   2.408
28264WAT      O85033   7.366   8.931   8.172
28264WAT     H185034   7.404   8.953   8.082
28264WAT     H285035   7.266   8.941   8.170
28265WAT      O85036   4.687   6.463   6.171
28265WAT     H185037   4.676   6.380   6.226
28265WAT     H285038   4.598   6.492   6.136
28266WAT      O85039   5.718   7.000   9.366
28266WAT     H185040   5.754   7.073   9.308
28266WAT     H285041   5.642   6.955   9.319
28267WAT      O85042   6.137   7.594   7.775
28267WAT     H185043   6.140   7.694   7.769
28267WAT     H285044   6.216   7.555   7.728
28268WAT      O85045   4.508   0.006   2.555
28268WAT     H185046   4.598  -0.015   2.516
28268WAT     H285047   4.490  -0.055   2.632
28269WAT      O85048   6.083   0.746   7.244
28269WAT     H185049   6.075   0.782   7.337
28269WAT     H285050   6.052   0.816   7.179
28270WAT      O85051   6.729   2.694   0.066
28270WAT     H185052   6.741   2.603   0.026
28270WAT     H285053   6.695   2.685   0.160
28271WAT      O85054   7.466   2.553   2.052
28271WAT     H185055   7.372   2.585   2.046
28271WAT     H285056   7.475   2.465   2.005
28272WAT      O85057   0.286   7.792   3.185
28272WAT     H185058   0.277   7.695   3.164
28272WAT     H285059   0.218   7.844   3.132
28273WAT      O85060   0.488   9.005   2.202
28273WAT     H185061   0.536   9.003   2.290
28273WAT     H285062   0.476   8.912   2.169
28274WAT      O85063   9.056   3.537   4.081
28274WAT     H185064   9.096   3.602   4.146
28274WAT     H285065   9.110   3.537   3.997
28275WAT      O85066   0.669   9.126   6.685
28275WAT     H185067   0.737   9.191   6.650
28275WAT     H285068   0.644   9.062   6.613
28276WAT      O85069   2.256   7.273   1.896
28276WAT     H185070   2.262   7.242   1.801
28276WAT     H285071   2.345   7.268   1.939
28277WAT      O85072   1.903   2.883   8.193
28277WAT     H185073   1.980   2.840   8.240
28277WAT     H285074   1.913   2.983   8.198
28278WAT      O85075   3.201   4.347   6.868
28278WAT     H185076   3.245   4.306   6.788
28278WAT     H285077   3.239   4.438   6.884
28279WAT      O85078   7.314   6.379   4.058
28279WAT     H185079   7.411   6.402   4.060
28279WAT     H285080   7.261   6.458   4.026
28280WAT      O85081   1.662   4.259   7.983
28280WAT     H185082   1.658   4.194   7.907
28280WAT     H285083   1.582   4.247   8.042
28281WAT      O85084   1.958   2.543   7.787
28281WAT     H185085   2.041   2.597   7.777
28281WAT     H285086   1.931   2.540   7.883
28282WAT      O85087   7.089   5.783   1.065
28282WAT     H185088   7.054   5.704   1.115
28282WAT     H285089   7.020   5.855   1.064
28283WAT      O85090   6.367   1.548   4.439
28283WAT     H185091   6.454   1.542   4.488
28283WAT     H285092   6.300   1.597   4.495
28284WAT      O85093   7.461   8.423   0.165
28284WAT     H185094   7.415   8.367   0.234
28284WAT     H285095   7.463   8.373   0.078
28285WAT      O85096   1.283   9.118   7.946
28285WAT     H185097   1.325   9.209   7.952
28285WAT     H285098   1.281   9.076   8.037
28286WAT      O85099   6.509   9.407   9.344
28286WAT     H185100   6.451   9.487   9.359
28286WAT     H285101   6.596   9.435   9.303
28287WAT      O85102   6.602   7.221   1.285
28287WAT     H185103   6.665   7.278   1.338
28287WAT     H285104   6.655   7.151   1.237
28288WAT      O85105   7.381   4.086   5.779
28288WAT     H185106   7.471   4.101   5.821
28288WAT     H285107   7.382   4.121   5.686
28289WAT      O85108   6.662   0.227   4.762
28289WAT     H185109   6.720   0.305   4.739
28289WAT     H285110   6.601   0.251   4.837
28290WAT      O85111   2.542   4.329   9.117
28290WAT     H185112   2.567   4.351   9.022
28290WAT     H285113   2.611   4.268   9.155
28291WAT      O85114   7.473   8.068   1.753
28291WAT     H185115   7.399   8.001   1.743
28291WAT     H285116   7.439   8.159   1.730
28292WAT      O85117   6.607   5.788   0.210
28292WAT     H185118   6.656   5.841   0.141
28292WAT     H285119   6.604   5.840   0.296
28293WAT      O85120   7.091   9.092   2.981
28293WAT     H185121   6.995   9.071   3.002
28293WAT     H285122   7.098   9.188   2.951
28294WAT      O85123   8.943   1.506   8.935
28294WAT     H185124   8.933   1.572   9.009
28294WAT     H285125   8.855   1.493   8.890
28295WAT      O85126   7.466   1.778   7.892
28295WAT     H185127   7.441   1.824   7.976
28295WAT     H285128   7.460   1.679   7.905
28296WAT      O85129   2.912   3.592   2.689
28296WAT     H185130   2.957   3.554   2.771
28296WAT     H285131   2.964   3.565   2.608
28297WAT      O85132   6.319   4.916   0.339
28297WAT     H185133   6.292   5.012   0.329
28297WAT     H285134   6.337   4.896   0.435
28298WAT      O85135   5.576   0.688   0.583
28298WAT     H185136   5.515   0.662   0.508
28298WAT     H285137   5.548   0.639   0.666
28299WAT      O85138   8.320   4.647   8.731
28299WAT     H185139   8.299   4.740   8.763
28299WAT     H285140   8.322   4.646   8.631
28300WAT      O85141   9.404   7.086   0.631
28300WAT     H185142   9.387   7.008   0.570
28300WAT     H285143   9.382   7.060   0.725
28301WAT      O85144   6.967   8.000   2.163
28301WAT     H185145   6.900   8.072   2.173
28301WAT     H285146   7.020   8.015   2.079
28302WAT      O85147   0.297   5.801   4.409
28302WAT     H185148   0.205   5.782   4.373
28302WAT     H285149   0.365   5.765   4.346
28303WAT      O85150   0.142   2.989   7.116
28303WAT     H185151   0.052   3.034   7.115
28303WAT     H285152   0.131   2.895   7.149
28304WAT      O85153   0.025   1.643   1.805
28304WAT     H185154  -0.032   1.646   1.887
28304WAT     H285155   0.047   1.737   1.776
28305WAT      O85156   8.095   5.600   6.652
28305WAT     H185157   7.998   5.606   6.676
28305WAT     H285158   8.104   5.581   6.554
28306WAT      O85159   1.930   1.858   3.461
28306WAT     H185160   1.919   1.759   3.466
28306WAT     H285161   1.947   1.885   3.366
28307WAT      O85162   5.712   7.718   4.712
28307WAT     H185163   5.736   7.729   4.809
28307WAT     H285164   5.667   7.801   4.679
28308WAT      O85165   8.951   6.659   3.452
28308WAT     H185166   8.852   6.663   3.441
28308WAT     H285167   8.985   6.747   3.484
28309WAT      O85168   2.452   5.030   3.501
28309WAT     H185169   2.417   4.968   3.431
28309WAT     H285170   2.466   5.121   3.460
28310WAT      O85171   1.982   7.751   9.481
28310WAT     H185172   1.890   7.791   9.482
28310WAT     H285173   1.977   7.656   9.513
28311WAT      O85174   8.612   2.942   8.865
28311WAT     H185175   8.668   2.905   8.791
28311WAT     H285176   8.668   2.956   8.946
28312WAT      O85177   8.776   6.386   5.173
28312WAT     H185178   8.704   6.360   5.237
28312WAT     H285179   8.842   6.312   5.165
28313WAT      O85180   7.706   8.617   9.420
28313WAT     H185181   7.722   8.536   9.363
28313WAT     H285182   7.744   8.697   9.374
28314WAT      O85183   6.709   8.599   7.043
28314WAT     H185184   6.794   8.561   7.009
28314WAT     H285185   6.692   8.688   7.001
28315WAT      O85186   1.931   2.243   4.126
28315WAT     H185187   1.977   2.288   4.049
28315WAT     H285188   1.837   2.278   4.132
28316WAT      O85189   4.355   2.268   7.507
28316WAT     H185190   4.329   2.347   7.451
28316WAT     H285191   4.450   2.278   7.536
28317WAT      O85192   5.757   9.303   0.025
28317WAT     H185193   5.762   9.333   0.120
28317WAT     H285194   5.825   9.231   0.009
28318WAT      O85195   2.083   7.591   4.788
28318WAT     H185196   2.020   7.516   4.810
28318WAT     H285197   2.169   7.578   4.837
28319WAT      O85198   5.879   0.649   5.710
28319WAT     H185199   5.814   0.700   5.653
28319WAT     H285200   5.972   0.674   5.684
28320WAT      O85201   5.863   5.832   9.331
28320WAT     H185202   5.862   5.867   9.237
28320WAT     H285203   5.888   5.906   9.393
28321WAT      O85204   5.213   4.868   7.598
28321WAT     H185205   5.294   4.850   7.543
28321WAT     H285206   5.239   4.882   7.693
28322WAT      O85207   1.535   3.449   9.200
28322WAT     H185208   1.486   3.382   9.255
28322WAT     H285209   1.626   3.463   9.238
28323WAT      O85210   4.436   3.686   8.689
28323WAT     H185211   4.350   3.675   8.639
28323WAT     H285212   4.417   3.716   8.783
28324WAT      O85213   0.623   0.301   7.976
28324WAT     H185214   0.587   0.325   8.066
28324WAT     H285215   0.667   0.381   7.936
28325WAT      O85216   4.746   4.479   0.475
28325WAT     H185217   4.740   4.381   0.453
28325WAT     H285218   4.654   4.516   0.487
28326WAT      O85219   6.855   8.038   7.369
28326WAT     H185220   6.806   8.113   7.412
28326WAT     H285221   6.790   7.972   7.331
28327WAT      O85222   6.854   7.776   7.760
28327WAT     H185223   6.880   7.685   7.728
28327WAT     H285224   6.755   7.779   7.777
28328WAT      O85225   4.704   5.033   2.194
28328WAT     H185226   4.744   5.059   2.106
28328WAT     H285227   4.635   5.101   2.221
28329WAT      O85228   2.469   9.516   7.213
28329WAT     H185229   2.434   9.584   7.277
28329WAT     H285230   2.558   9.483   7.244
28330WAT      O85231   0.143   3.046   1.178
28330WAT     H185232   0.126   3.130   1.229
28330WAT     H285233   0.237   3.015   1.195
28331WAT      O85234   7.989   7.902   3.112
28331WAT     H185235   7.982   7.976   3.046
28331WAT     H285236   8.084   7.869   3.116
28332WAT      O85237   0.774   5.976   2.750
28332WAT     H185238   0.762   5.892   2.803
28332WAT     H285239   0.709   5.977   2.674
28333WAT      O85240   6.501   5.523   5.081
28333WAT     H185241   6.402   5.505   5.075
28333WAT     H285242   6.531   5.514   5.176
28334WAT      O85243   1.612   3.292   6.124
28334WAT     H185244   1.539   3.223   6.121
28334WAT     H285245   1.678   3.273   6.052
28335WAT      O85246   1.963   5.268   7.462
28335WAT     H185247   1.946   5.366   7.462
28335WAT     H285248   1.921   5.227   7.543
28336WAT      O85249   0.992   6.342   5.975
28336WAT     H185250   0.942   6.274   6.028
28336WAT     H285251   1.060   6.295   5.918
28337WAT      O85252   7.781   2.570   1.216
28337WAT     H185253   7.868   2.596   1.258
28337WAT     H285254   7.705   2.613   1.266
28338WAT      O85255   1.286   5.008   1.461
28338WAT     H185256   1.258   5.101   1.483
28338WAT     H285257   1.305   5.000   1.363
28339WAT      O85258   7.927   5.630   4.091
28339WAT     H185259   8.027   5.620   4.091
28339WAT     H285260   7.895   5.633   3.996
28340WAT      O85261   8.594   7.418   3.983
28340WAT     H185262   8.556   7.463   4.064
28340WAT     H285263   8.535   7.342   3.957
28341WAT      O85264   5.650   0.255   4.401
28341WAT     H185265   5.727   0.207   4.442
28341WAT     H285266   5.574   0.257   4.466
28342WAT      O85267   4.396   6.969   7.125
28342WAT     H185268   4.327   6.949   7.056
28342WAT     H285269   4.356   7.027   7.196
28343WAT      O85270   9.155   0.133   7.529
28343WAT     H185271   9.158   0.145   7.629
28343WAT     H285272   9.062   0.109   7.501
28344WAT      O85273   0.702   9.527   1.288
28344WAT     H185274   0.687   9.606   1.229
28344WAT     H285275   0.696   9.555   1.383
28345WAT      O85276   9.374   4.540   0.132
28345WAT     H185277   9.325   4.454   0.117
28345WAT     H285278   9.329   4.592   0.204
28346WAT      O85279   6.171   2.699   4.750
28346WAT     H185280   6.213   2.747   4.673
28346WAT     H285281   6.153   2.764   4.824
28347WAT      O85282   9.769   2.503   6.716
28347WAT     H185283   9.700   2.485   6.785
28347WAT     H285284   9.831   2.426   6.709
28348WAT      O85285   5.082   3.916   6.806
28348WAT     H185286   5.014   3.860   6.852
28348WAT     H285287   5.074   4.011   6.838
28349WAT      O85288   2.215   1.728   5.068
28349WAT     H185289   2.234   1.636   5.104
28349WAT     H285290   2.200   1.723   4.970
28350WAT      O85291   5.015   7.078   6.230
28350WAT     H185292   4.929   7.085   6.280
28350WAT     H285293   5.010   7.003   6.165
28351WAT      O85294   6.144   5.240   9.724
28351WAT     H185295   6.232   5.221   9.678
28351WAT     H285296   6.147   5.203   9.817
28352WAT      O85297   4.691   0.487   8.531
28352WAT     H185298   4.698   0.425   8.453
28352WAT     H285299   4.669   0.434   8.613
28353WAT      O85300   4.160   4.444   8.000
28353WAT     H185301   4.237   4.466   8.060
28353WAT     H285302   4.111   4.527   7.975
28354WAT      O85303   4.609   3.745   8.217
28354WAT     H185304   4.586   3.778   8.308
28354WAT     H285305   4.644   3.821   8.162
28355WAT      O85306   6.936   5.972   8.287
28355WAT     H185307   6.920   6.048   8.225
28355WAT     H285308   6.887   5.891   8.255
28356WAT      O85309   8.214   3.577   7.451
28356WAT     H185310   8.135   3.544   7.400
28356WAT     H285311   8.187   3.600   7.545
28357WAT      O85312   9.798   5.042   7.263
28357WAT     H185313   9.830   4.947   7.258
28357WAT     H285314   9.863   5.101   7.214
28358WAT      O85315   5.020   0.932   5.026
28358WAT     H185316   4.996   0.989   4.947
28358WAT     H285317   4.949   0.864   5.042
28359WAT      O85318   3.231   6.741   4.322
28359WAT     H185319   3.284   6.759   4.239
28359WAT     H285320   3.291   6.702   4.392
28360WAT      O85321   3.500   8.527   5.990
28360WAT     H185322   3.423   8.590   5.998
28360WAT     H285323   3.578   8.564   6.040
28361WAT      O85324   2.057   7.461   9.819
28361WAT     H185325   1.980   7.497   9.872
28361WAT     H285326   2.085   7.372   9.856
28362WAT      O85327   8.011   2.892   8.823
28362WAT     H185328   8.111   2.893   8.817
28362WAT     H285329   7.973   2.961   8.762
28363WAT      O85330   8.058   7.058   5.309
28363WAT     H185331   8.016   7.148   5.309
28363WAT     H285332   8.015   7.001   5.379
28364WAT      O85333   4.247   5.365   0.539
28364WAT     H185334   4.255   5.267   0.524
28364WAT     H285335   4.206   5.408   0.458
28365WAT      O85336   7.955   5.451   5.226
28365WAT     H185337   7.900   5.434   5.144
28365WAT     H285338   7.973   5.549   5.234
28366WAT      O85339   9.129   9.358   5.615
28366WAT     H185340   9.213   9.350   5.669
28366WAT     H285341   9.057   9.303   5.657
28367WAT      O85342   8.526   6.881   3.372
28367WAT     H185343   8.541   6.879   3.471
28367WAT     H285344   8.447   6.823   3.349
28368WAT      O85345   8.478   1.740   5.652
28368WAT     H185346   8.390   1.763   5.693
28368WAT     H285347   8.480   1.643   5.628
28369WAT      O85348   8.450   0.839   4.457
28369WAT     H185349   8.355   0.866   4.471
28369WAT     H285350   8.463   0.811   4.362
28370WAT      O85351   5.765   6.570   4.062
28370WAT     H185352   5.742   6.481   4.103
28370WAT     H285353   5.831   6.617   4.121
28371WAT      O85354   4.375   3.493   4.601
28371WAT     H185355   4.313   3.570   4.613
28371WAT     H285356   4.323   3.408   4.593
28372WAT      O85357   3.372   8.141   3.241
28372WAT     H185358   3.380   8.137   3.340
28372WAT     H285359   3.283   8.180   3.216
28373WAT      O85360   0.537   1.866   0.448
28373WAT     H185361   0.580   1.950   0.419
28373WAT     H285362   0.579   1.834   0.533
28374WAT      O85363   3.948   1.833   5.221
28374WAT     H185364   3.911   1.776   5.294
28374WAT     H285365   4.033   1.875   5.252
28375WAT      O85366   2.631   0.935   0.264
28375WAT     H185367   2.644   0.995   0.185
28375WAT     H285368   2.698   0.861   0.261
28376WAT      O85369   3.607   6.580   0.790
28376WAT     H185370   3.536   6.567   0.859
28376WAT     H285371   3.659   6.663   0.809
28377WAT      O85372   6.829   1.811   3.663
28377WAT     H185373   6.900   1.753   3.623
28377WAT     H285374   6.864   1.857   3.744
28378WAT      O85375   1.896   3.021   6.130
28378WAT     H185376   1.875   3.090   6.061
28378WAT     H285377   1.824   2.952   6.131
28379WAT      O85378   0.858   0.713   2.697
28379WAT     H185379   0.925   0.770   2.745
28379WAT     H285380   0.800   0.771   2.639
28380WAT      O85381   9.359   5.492   5.999
28380WAT     H185382   9.397   5.571   6.047
28380WAT     H285383   9.305   5.437   6.063
28381WAT      O85384   2.545   0.634   8.888
28381WAT     H185385   2.562   0.719   8.938
28381WAT     H285386   2.631   0.586   8.872
28382WAT      O85387   7.567   3.324   0.031
28382WAT     H185388   7.611   3.282  -0.048
28382WAT     H285389   7.500   3.391  -0.000
28383WAT      O85390   7.312   5.851   0.935
28383WAT     H185391   7.363   5.778   0.891
28383WAT     H285392   7.231   5.813   0.980
28384WAT      O85393   6.861   3.844   3.626
28384WAT     H185394   6.799   3.881   3.695
28384WAT     H285395   6.808   3.806   3.550
28385WAT      O85396   5.588   5.856   8.821
28385WAT     H185397   5.594   5.768   8.868
28385WAT     H285398   5.526   5.916   8.872
28386WAT      O85399   6.176   8.375   9.510
28386WAT     H185400   6.226   8.288   9.510
28386WAT     H285401   6.158   8.403   9.416
28387WAT      O85402   0.142   7.006   4.299
28387WAT     H185403   0.209   6.993   4.227
28387WAT     H285404   0.073   6.934   4.294
28388WAT      O85405   3.871   8.011   5.307
28388WAT     H185406   3.857   7.982   5.212
28388WAT     H285407   3.862   7.932   5.368
28389WAT      O85408   1.242   9.633   2.580
28389WAT     H185409   1.179   9.576   2.528
28389WAT     H285410   1.259   9.718   2.530
28390WAT      O85411   1.901   0.260   5.088
28390WAT     H185412   1.914   0.161   5.079
28390WAT     H285413   1.990   0.305   5.081
28391WAT      O85414   9.339   7.017   9.163
28391WAT     H185415   9.413   6.953   9.183
28391WAT     H285416   9.339   7.089   9.232
28392WAT      O85417   4.842   1.092   0.250
28392WAT     H185418   4.901   1.155   0.200
28392WAT     H285419   4.872   1.087   0.346
28393WAT      O85420   9.674   0.472   4.541
28393WAT     H185421   9.755   0.423   4.509
28393WAT     H285422   9.599   0.457   4.478
28394WAT      O85423   6.865   3.717   9.373
28394WAT     H185424   6.938   3.748   9.311
28394WAT     H285425   6.776   3.729   9.329
28395WAT      O85426   9.867   6.640   5.072
28395WAT     H185427   9.939   6.709   5.069
28395WAT     H285428   9.865   6.590   4.985
28396WAT      O85429   3.940   9.477   1.505
28396WAT     H185430   3.980   9.497   1.416
28396WAT     H285431   3.976   9.542   1.573
28397WAT      O85432   7.796   1.965   9.259
28397WAT     H185433   7.869   2.026   9.226
28397WAT     H285434   7.719   2.020   9.291
28398WAT      O85435   6.848   9.284   0.241
28398WAT     H185436   6.896   9.301   0.155
28398WAT     H285437   6.757   9.247   0.221
28399WAT      O85438   3.695   6.553   2.899
28399WAT     H185439   3.672   6.472   2.845
28399WAT     H285440   3.690   6.530   2.997
28400WAT      O85441   0.816   3.932   2.435
28400WAT     H185442   0.833   3.914   2.532
28400WAT     H285443   0.844   4.025   2.413
28401WAT      O85444   3.161   8.198   0.288
28401WAT     H185445   3.248   8.186   0.241
28401WAT     H285446   3.144   8.119   0.347
28402WAT      O85447   0.387   3.484   4.140
28402WAT     H185448   0.346   3.405   4.186
28402WAT     H285449   0.319   3.558   4.134
28403WAT      O85450   4.219   7.534   1.000
28403WAT     H185451   4.307   7.537   0.952
28403WAT     H285452   4.232   7.551   1.097
28404WAT      O85453   5.845   8.106   2.998
28404WAT     H185454   5.898   8.120   2.915
28404WAT     H285455   5.759   8.156   2.993
28405WAT      O85456   0.271   9.705   8.731
28405WAT     H185457   0.338   9.740   8.796
28405WAT     H285458   0.298   9.614   8.700
28406WAT      O85459   6.064   6.882   8.590
28406WAT     H185460   6.136   6.901   8.656
28406WAT     H285461   6.007   6.807   8.622
28407WAT      O85462   8.975   6.861   6.739
28407WAT     H185463   8.905   6.798   6.706
28407WAT     H285464   8.955   6.953   6.706
28408WAT      O85465   3.220   7.347   3.284
28408WAT     H185466   3.268   7.265   3.253
28408WAT     H285467   3.272   7.391   3.357
28409WAT      O85468   3.193   9.019   9.574
28409WAT     H185469   3.224   8.941   9.519
28409WAT     H285470   3.267   9.086   9.582
28410WAT      O85471   5.513   6.093   5.565
28410WAT     H185472   5.461   6.174   5.592
28410WAT     H285473   5.584   6.119   5.500
28411WAT      O85474   0.634   6.596   1.593
28411WAT     H185475   0.705   6.632   1.652
28411WAT     H285476   0.548   6.643   1.611
28412WAT      O85477   4.518   2.764   2.121
28412WAT     H185478   4.467   2.723   2.196
28412WAT     H285479   4.530   2.862   2.138
28413WAT      O85480   1.649   9.158   0.804
28413WAT     H185481   1.617   9.164   0.710
28413WAT     H285482   1.571   9.145   0.865
28414WAT      O85483   6.932   4.460   3.734
28414WAT     H185484   6.865   4.406   3.785
28414WAT     H285485   7.023   4.423   3.748
28415WAT      O85486   6.074   6.249   3.749
28415WAT     H185487   6.002   6.285   3.808
28415WAT     H285488   6.163   6.281   3.781
28416WAT      O85489   9.704   8.578   3.935
28416WAT     H185490   9.754   8.646   3.881
28416WAT     H285491   9.686   8.614   4.026
28417WAT      O85492   5.532   3.420   2.552
28417WAT     H185493   5.579   3.477   2.484
28417WAT     H285494   5.599   3.387   2.619
28418WAT      O85495   2.363   8.351   1.949
28418WAT     H185496   2.352   8.267   1.897
28418WAT     H285497   2.414   8.332   2.033
28419WAT      O85498   8.219   8.732   1.257
28419WAT     H185499   8.179   8.648   1.294
28419WAT     H285500   8.148   8.787   1.214
28420WAT      O85501   7.381   7.443   1.316
28420WAT     H185502   7.324   7.409   1.241
28420WAT     H285503   7.473   7.404   1.307
28421WAT      O85504   6.219   6.546   9.788
28421WAT     H185505   6.278   6.538   9.707
28421WAT     H285506   6.172   6.634   9.786
28422WAT      O85507   1.015   2.910   4.697
28422WAT     H185508   1.004   2.825   4.646
28422WAT     H285509   1.073   2.973   4.645
28423WAT      O85510   5.360   7.513   3.337
28423WAT     H185511   5.325   7.421   3.359
28423WAT     H285512   5.348   7.531   3.240
28424WAT      O85513   2.547   3.121   3.818
28424WAT     H185514   2.459   3.169   3.827
28424WAT     H285515   2.532   3.023   3.834
28425WAT      O85516   0.374   3.314   2.346
28425WAT     H185517   0.450   3.267   2.302
28425WAT     H285518   0.288   3.281   2.309
28426WAT      O85519   8.048   5.403   9.262
28426WAT     H185520   8.036   5.309   9.294
28426WAT     H285521   8.145   5.427   9.264
28427WAT      O85522   0.313   3.013   2.914
28427WAT     H185523   0.323   3.099   2.864
28427WAT     H285524   0.386   3.005   2.982
28428WAT      O85525   0.142   7.756   7.785
28428WAT     H185526   0.222   7.796   7.831
28428WAT     H285527   0.172   7.694   7.713
28429WAT      O85528   4.649   8.846   2.994
28429WAT     H185529   4.715   8.893   3.054
28429WAT     H285530   4.634   8.901   2.912
28430WAT      O85531   4.957   1.483   0.583
28430WAT     H185532   4.914   1.573   0.586
28430WAT     H285533   4.977   1.459   0.488
28431WAT      O85534   3.417   5.425   0.382
28431WAT     H185535   3.384   5.349   0.437
28431WAT     H285536   3.386   5.511   0.422
28432WAT      O85537   0.642   8.539   1.476
28432WAT     H185538   0.738   8.515   1.492
28432WAT     H285539   0.587   8.514   1.556
28433WAT      O85540   7.082   5.019   6.407
28433WAT     H185541   7.165   4.996   6.458
28433WAT     H285542   7.010   5.044   6.472
28434WAT      O85543   5.283   6.872   3.430
28434WAT     H185544   5.298   6.774   3.417
28434WAT     H285545   5.273   6.892   3.527
28435WAT      O85546   2.456   0.884   8.358
28435WAT     H185547   2.554   0.865   8.356
28435WAT     H285548   2.434   0.953   8.289
28436WAT      O85549   7.064   8.803   7.666
28436WAT     H185550   7.163   8.806   7.659
28436WAT     H285551   7.038   8.750   7.747
28437WAT      O85552   6.936   5.624   8.273
28437WAT     H185553   6.914   5.667   8.186
28437WAT     H285554   6.874   5.547   8.288
28438WAT      O85555   8.669   9.333   1.556
28438WAT     H185556   8.572   9.353   1.568
28438WAT     H285557   8.718   9.416   1.529
28439WAT      O85558   3.039   1.362   1.097
28439WAT     H185559   2.960   1.302   1.083
28439WAT     H285560   3.117   1.328   1.045
28440WAT      O85561   1.271   8.957   8.815
28440WAT     H185562   1.226   8.871   8.792
28440WAT     H285563   1.251   8.981   8.910
28441WAT      O85564   6.113   2.286   4.798
28441WAT     H185565   6.200   2.237   4.811
28441WAT     H285566   6.067   2.252   4.717
28442WAT      O85567   1.639   6.210   5.723
28442WAT     H185568   1.735   6.187   5.707
28442WAT     H285569   1.622   6.305   5.698
28443WAT      O85570   7.431   5.427   3.719
28443WAT     H185571   7.447   5.485   3.640
28443WAT     H285572   7.513   5.426   3.777
28444WAT      O85573   5.331   2.196   0.066
28444WAT     H185574   5.267   2.176  -0.008
28444WAT     H285575   5.424   2.174   0.036
28445WAT      O85576   3.631   5.710   9.087
28445WAT     H185577   3.654   5.807   9.095
28445WAT     H285578   3.699   5.655   9.136
28446WAT      O85579   1.840   6.256   4.258
28446WAT     H185580   1.873   6.249   4.352
28446WAT     H285581   1.744   6.283   4.259
28447WAT      O85582   6.102   8.439   4.032
28447WAT     H185583   6.140   8.492   4.107
28447WAT     H285584   6.024   8.385   4.066
28448WAT      O85585   6.891   4.625   4.182
28448WAT     H185586   6.866   4.689   4.255
28448WAT     H285587   6.824   4.552   4.177
28449WAT      O85588   8.762   1.135   0.616
28449WAT     H185589   8.717   1.070   0.554
28449WAT     H285590   8.833   1.088   0.669
28450WAT      O85591   4.174   0.909   1.137
28450WAT     H185592   4.169   0.874   1.044
28450WAT     H285593   4.265   0.947   1.154
28451WAT      O85594   3.799   0.086   5.990
28451WAT     H185595   3.858   0.137   6.052
28451WAT     H285596   3.732   0.034   6.043
28452WAT      O85597   5.791   5.493   1.211
28452WAT     H185598   5.818   5.585   1.238
28452WAT     H285599   5.827   5.427   1.277
28453WAT      O85600   4.651   9.451   9.671
28453WAT     H185601   4.709   9.425   9.594
28453WAT     H285602   4.557   9.464   9.639
28454WAT      O85603   6.716   1.574   1.692
28454WAT     H185604   6.630   1.620   1.673
28454WAT     H285605   6.729   1.568   1.791
28455WAT      O85606   2.504   3.709   0.998
28455WAT     H185607   2.407   3.688   0.983
28455WAT     H285608   2.547   3.728   0.910
28456WAT      O85609   5.946   4.339   7.720
28456WAT     H185610   5.849   4.349   7.739
28456WAT     H285611   5.968   4.243   7.703
28457WAT      O85612   5.880   8.565   0.870
28457WAT     H185613   5.818   8.597   0.798
28457WAT     H285614   5.953   8.511   0.829
28458WAT      O85615   1.552   0.607   5.207
28458WAT     H185616   1.452   0.615   5.210
28458WAT     H285617   1.577   0.523   5.159
28459WAT      O85618   5.626   4.417   6.217
28459WAT     H185619   5.710   4.442   6.267
28459WAT     H285620   5.548   4.464   6.257
28460WAT      O85621   7.104   6.179   2.042
28460WAT     H185622   7.192   6.222   2.020
28460WAT     H285623   7.076   6.206   2.134
28461WAT      O85624   0.168   8.452   4.220
28461WAT     H185625   0.162   8.542   4.261
28461WAT     H285626   0.245   8.402   4.260
28462WAT      O85627   7.249   5.763   2.864
28462WAT     H185628   7.263   5.849   2.815
28462WAT     H285629   7.190   5.780   2.943
28463WAT      O85630   2.288   6.613   0.880
28463WAT     H185631   2.226   6.560   0.938
28463WAT     H285632   2.313   6.698   0.926
28464WAT      O85633   4.922   5.987   7.617
28464WAT     H185634   4.983   5.916   7.582
28464WAT     H285635   4.904   6.054   7.545
28465WAT      O85636   7.545   1.716   0.921
28465WAT     H185637   7.603   1.773   0.980
28465WAT     H285638   7.552   1.620   0.950
28466WAT      O85639   9.538   8.431   0.018
28466WAT     H185640   9.622   8.378   0.022
28466WAT     H285641   9.491   8.413  -0.069
28467WAT      O85642   2.174   5.681   7.020
28467WAT     H185643   2.083   5.723   7.013
28467WAT     H285644   2.240   5.736   6.968
28468WAT      O85645   8.471   7.385   2.055
28468WAT     H185646   8.493   7.465   1.999
28468WAT     H285647   8.391   7.339   2.017
28469WAT      O85648   5.626   9.189   2.378
28469WAT     H185649   5.724   9.198   2.359
28469WAT     H285650   5.592   9.274   2.417
28470WAT      O85651   0.222   7.903   7.249
28470WAT     H185652   0.266   7.979   7.201
28470WAT     H285653   0.291   7.849   7.298
28471WAT      O85654   6.968   8.800   2.888
28471WAT     H185655   7.058   8.826   2.923
28471WAT     H285656   6.927   8.877   2.839
28472WAT      O85657   1.688   5.993   7.936
28472WAT     H185658   1.627   5.949   7.870
28472WAT     H285659   1.679   5.948   8.025
28473WAT      O85660   1.662   7.605   5.779
28473WAT     H185661   1.704   7.636   5.694
28473WAT     H285662   1.612   7.681   5.821
28474WAT      O85663   1.053   9.266   8.169
28474WAT     H185664   1.020   9.355   8.135
28474WAT     H285665   0.982   9.198   8.156
28475WAT      O85666   5.924   6.949   5.449
28475WAT     H185667   5.922   6.890   5.531
28475WAT     H285668   5.962   7.038   5.474
28476WAT      O85669   6.075   8.873   7.062
28476WAT     H185670   6.000   8.879   6.996
28476WAT     H285671   6.039   8.878   7.155
28477WAT      O85672   9.226   2.758   1.023
28477WAT     H185673   9.301   2.697   0.997
28477WAT     H285674   9.160   2.763   0.949
28478WAT      O85675   6.946   8.342   2.836
28478WAT     H185676   6.918   8.306   2.925
28478WAT     H285677   6.913   8.281   2.764
28479WAT      O85678   7.633   9.493   7.019
28479WAT     H185679   7.695   9.486   6.941
28479WAT     H285680   7.539   9.487   6.988
28480WAT      O85681   5.371   7.033   7.526
28480WAT     H185682   5.399   7.127   7.504
28480WAT     H285683   5.331   6.991   7.444
28481WAT      O85684   4.196   8.854   5.000
28481WAT     H185685   4.267   8.910   5.042
28481WAT     H285686   4.225   8.826   4.909
28482WAT      O85687   4.496   8.076   3.432
28482WAT     H185688   4.490   8.168   3.471
28482WAT     H285689   4.556   8.078   3.352
28483WAT      O85690   5.260   0.186   1.174
28483WAT     H185691   5.163   0.199   1.197
28483WAT     H285692   5.300   0.275   1.152
28484WAT      O85693   5.395   0.706   2.835
28484WAT     H185694   5.401   0.606   2.836
28484WAT     H285695   5.483   0.745   2.807
28485WAT      O85696   1.202   2.914   4.302
28485WAT     H185697   1.247   2.828   4.325
28485WAT     H285698   1.205   2.976   4.380
28486WAT      O85699   2.276   1.170   3.278
28486WAT     H185700   2.306   1.109   3.205
28486WAT     H285701   2.182   1.198   3.262
28487WAT      O85702   1.041   9.154   2.315
28487WAT     H185703   0.950   9.185   2.344
28487WAT     H285704   1.110   9.198   2.373
28488WAT      O85705   9.370   7.222   2.823
28488WAT     H185706   9.305   7.147   2.813
28488WAT     H285707   9.386   7.263   2.733
28489WAT      O85708   8.098   2.922   7.666
28489WAT     H185709   8.182   2.868   7.677
28489WAT     H285710   8.060   2.944   7.755
28490WAT      O85711   2.115   2.354   8.821
28490WAT     H185712   2.208   2.350   8.857
28490WAT     H285713   2.108   2.427   8.753
28491WAT      O85714   2.113   2.990   1.296
28491WAT     H185715   2.112   2.971   1.394
28491WAT     H285716   2.064   3.075   1.278
28492WAT      O85717   2.374   9.760   1.979
28492WAT     H185718   2.396   9.692   1.908
28492WAT     H285719   2.327   9.837   1.937
28493WAT      O85720   0.251   8.376   1.666
28493WAT     H185721   0.172   8.420   1.623
28493WAT     H285722   0.249   8.393   1.764
28494WAT      O85723   6.972   6.606   9.698
28494WAT     H185724   6.925   6.539   9.642
28494WAT     H285725   7.051   6.642   9.649
28495WAT      O85726   2.087   2.349   9.436
28495WAT     H185727   2.148   2.329   9.512
28495WAT     H285728   2.137   2.398   9.365
28496WAT      O85729   2.773   1.588   0.057
28496WAT     H185730   2.696   1.529   0.030
28496WAT     H285731   2.779   1.591   0.156
28497WAT      O85732   3.306   6.818   0.398
28497WAT     H185733   3.207   6.800   0.394
28497WAT     H285734   3.331   6.842   0.492
28498WAT      O85735   0.737   0.838   3.182
28498WAT     H185736   0.768   0.755   3.134
28498WAT     H285737   0.814   0.877   3.232
28499WAT      O85738   0.536   8.269   9.633
28499WAT     H185739   0.562   8.276   9.730
28499WAT     H285740   0.615   8.238   9.580
28500WAT      O85741   2.595   3.611   4.856
28500WAT     H185742   2.667   3.680   4.844
28500WAT     H285743   2.596   3.549   4.778
28501WAT      O85744   7.196   1.628   7.383
28501WAT     H185745   7.206   1.684   7.465
28501WAT     H285746   7.117   1.567   7.393
28502WAT      O85747   2.289   9.059   5.495
28502WAT     H185748   2.189   9.052   5.495
28502WAT     H285749   2.316   9.152   5.473
28503WAT      O85750   1.546   9.030   4.715
28503WAT     H185751   1.640   9.002   4.731
28503WAT     H285752   1.485   8.952   4.728
28504WAT      O85753   2.571   4.268   1.575
28504WAT     H185754   2.632   4.279   1.653
28504WAT     H285755   2.490   4.325   1.588
28505WAT      O85756   4.084   0.668   7.328
28505WAT     H185757   4.119   0.704   7.241
28505WAT     H285758   4.007   0.725   7.359
28506WAT      O85759   9.530   4.038   3.853
28506WAT     H185760   9.560   4.115   3.796
28506WAT     H285761   9.431   4.042   3.865
28507WAT      O85762   6.545   6.110   3.571
28507WAT     H185763   6.642   6.134   3.571
28507WAT     H285764   6.531   6.034   3.635
28508WAT      O85765   8.700   9.357   3.852
28508WAT     H185766   8.759   9.341   3.772
28508WAT     H285767   8.656   9.446   3.842
28509WAT      O85768   3.671   1.861   2.434
28509WAT     H185769   3.641   1.956   2.429
28509WAT     H285770   3.691   1.827   2.342
28510WAT      O85771   7.260   5.177   2.654
28510WAT     H185772   7.350   5.152   2.618
28510WAT     H285773   7.213   5.095   2.687
28511WAT      O85774   2.109   6.942   4.282
28511WAT     H185775   2.073   6.893   4.202
28511WAT     H285776   2.209   6.936   4.283
28512WAT      O85777   2.867   3.519   5.125
28512WAT     H185778   2.811   3.447   5.166
28512WAT     H285779   2.894   3.493   5.032
28513WAT      O85780   6.611   1.717   9.584
28513WAT     H185781   6.538   1.650   9.577
28513WAT     H285782   6.649   1.715   9.677
28514WAT      O85783   7.317   9.331   7.499
28514WAT     H185784   7.268   9.334   7.412
28514WAT     H285785   7.264   9.377   7.569
28515WAT      O85786   7.218   7.398   0.169
28515WAT     H185787   7.283   7.459   0.213
28515WAT     H285788   7.267   7.330   0.115
28516WAT      O85789   5.917   4.138   8.085
28516WAT     H185790   5.990   4.189   8.039
28516WAT     H285791   5.833   4.144   8.032
28517WAT      O85792   3.612   9.822   5.256
28517WAT     H185793   3.660   9.749   5.208
28517WAT     H285794   3.616   9.906   5.202
28518WAT      O85795   6.034   1.449   2.162
28518WAT     H185796   6.046   1.473   2.066
28518WAT     H285797   6.112   1.481   2.215
28519WAT      O85798   4.299   0.049   2.382
28519WAT     H185799   4.363   0.025   2.454
28519WAT     H285800   4.284  -0.031   2.323
28520WAT      O85801   8.722   5.835   8.285
28520WAT     H185802   8.806   5.830   8.232
28520WAT     H285803   8.731   5.905   8.356
28521WAT      O85804   2.004   6.411   1.888
28521WAT     H185805   2.034   6.453   1.803
28521WAT     H285806   2.026   6.471   1.965
28522WAT      O85807   5.614   0.420   1.440
28522WAT     H185808   5.660   0.332   1.452
28522WAT     H285809   5.611   0.443   1.343
28523WAT      O85810   2.759   4.116   6.423
28523WAT     H185811   2.754   4.084   6.328
28523WAT     H285812   2.683   4.078   6.475
28524WAT      O85813   8.068   3.451   2.108
28524WAT     H185814   8.054   3.539   2.063
28524WAT     H285815   8.146   3.457   2.171
28525WAT      O85816   0.885   3.456   3.475
28525WAT     H185817   0.897   3.536   3.415
28525WAT     H285818   0.842   3.382   3.424
28526WAT      O85819   3.598   1.662   5.629
28526WAT     H185820   3.685   1.615   5.644
28526WAT     H285821   3.609   1.760   5.648
28527WAT      O85822   2.784   2.855   9.110
28527WAT     H185823   2.853   2.892   9.173
28527WAT     H285824   2.770   2.919   9.035
28528WAT      O85825   9.332   6.225   3.097
28528WAT     H185826   9.268   6.184   3.162
28528WAT     H285827   9.342   6.165   3.018
28529WAT      O85828   7.290   5.641   3.549
28529WAT     H185829   7.261   5.710   3.616
28529WAT     H285830   7.369   5.676   3.499
28530WAT      O85831   7.922   1.008   3.973
28530WAT     H185832   8.015   0.975   3.962
28530WAT     H285833   7.900   1.014   4.071
28531WAT      O85834   9.489   6.483   0.080
28531WAT     H185835   9.492   6.572   0.034
28531WAT     H285836   9.533   6.414   0.023
28532WAT      O85837   3.636   4.596   7.629
28532WAT     H185838   3.615   4.556   7.719
28532WAT     H285839   3.626   4.526   7.558
28533WAT      O85840   6.826   0.425   6.730
28533WAT     H185841   6.803   0.334   6.766
28533WAT     H285842   6.922   0.426   6.701
28534WAT      O85843   3.540   7.482   7.722
28534WAT     H185844   3.537   7.581   7.735
28534WAT     H285845   3.590   7.440   7.798
28535WAT      O85846   7.179   1.359   5.456
28535WAT     H185847   7.124   1.373   5.374
28535WAT     H285848   7.238   1.279   5.444
28536WAT      O85849   4.635   2.896   1.320
28536WAT     H185850   4.672   2.926   1.231
28536WAT     H285851   4.592   2.807   1.310
28537WAT      O85852   4.086   9.549   7.512
28537WAT     H185853   4.001   9.541   7.564
28537WAT     H285854   4.128   9.638   7.528
28538WAT      O85855   2.984   1.930   8.160
28538WAT     H185856   2.931   1.881   8.229
28538WAT     H285857   3.067   1.879   8.139
28539WAT      O85858   6.110   1.124   7.412
28539WAT     H185859   6.076   1.031   7.422
28539WAT     H285860   6.142   1.157   7.501
28540WAT      O85861   4.888   7.567   5.102
28540WAT     H185862   4.869   7.635   5.173
28540WAT     H285863   4.928   7.486   5.143
28541WAT      O85864   5.155   8.841   4.852
28541WAT     H185865   5.210   8.924   4.842
28541WAT     H285866   5.189   8.770   4.791
28542WAT      O85867   8.720   4.347   5.908
28542WAT     H185868   8.737   4.250   5.926
28542WAT     H285869   8.772   4.376   5.828
28543WAT      O85870   4.151   5.765   4.113
28543WAT     H185871   4.221   5.777   4.042
28543WAT     H285872   4.139   5.668   4.132
28544WAT      O85873   3.347   4.742   2.778
28544WAT     H185874   3.341   4.658   2.723
28544WAT     H285875   3.428   4.793   2.751
28545WAT      O85876   2.271   1.327   2.750
28545WAT     H185877   2.197   1.287   2.805
28545WAT     H285878   2.330   1.254   2.716
28546WAT      O85879   0.133   1.029   1.595
28546WAT     H185880   0.182   1.018   1.682
28546WAT     H285881   0.075   1.110   1.599
28547WAT      O85882   9.269   6.851   1.695
28547WAT     H185883   9.244   6.860   1.599
28547WAT     H285884   9.331   6.774   1.707
28548WAT      O85885   9.285   1.962   1.907
28548WAT     H185886   9.195   1.995   1.936
28548WAT     H285887   9.302   1.991   1.812
28549WAT      O85888   7.338   5.089   4.370
28549WAT     H185889   7.315   4.992   4.372
28549WAT     H285890   7.366   5.115   4.278
28550WAT      O85891   7.856   7.736   3.871
28550WAT     H185892   7.759   7.762   3.876
28550WAT     H285893   7.863   7.637   3.865
28551WAT      O85894   5.679   3.894   7.005
28551WAT     H185895   5.630   3.948   7.074
28551WAT     H285896   5.774   3.923   7.003
28552WAT      O85897   9.001   3.283   9.189
28552WAT     H185898   8.980   3.353   9.121
28552WAT     H285899   9.099   3.264   9.190
28553WAT      O85900   1.170   2.942   7.683
28553WAT     H185901   1.170   2.878   7.606
28553WAT     H285902   1.076   2.956   7.714
28554WAT      O85903   0.311   8.082   5.716
28554WAT     H185904   0.402   8.075   5.674
28554WAT     H285905   0.247   8.121   5.649
28555WAT      O85906   6.778   3.339   3.689
28555WAT     H185907   6.767   3.243   3.663
28555WAT     H285908   6.730   3.356   3.775
28556WAT      O85909   9.624   8.500   4.446
28556WAT     H185910   9.589   8.520   4.354
28556WAT     H285911   9.547   8.489   4.509
28557WAT      O85912   3.547   9.479   5.237
28557WAT     H185913   3.593   9.440   5.317
28557WAT     H285914   3.472   9.419   5.209
28558WAT      O85915   7.878   8.236   1.848
28558WAT     H185916   7.851   8.271   1.938
28558WAT     H285917   7.889   8.312   1.784
28559WAT      O85918   8.802   5.008   7.756
28559WAT     H185919   8.709   5.041   7.738
28559WAT     H285920   8.851   5.076   7.811
28560WAT      O85921   2.523   5.548   2.914
28560WAT     H185922   2.581   5.472   2.942
28560WAT     H285923   2.466   5.520   2.837
28561WAT      O85924   6.107   8.625   1.674
28561WAT     H185925   6.018   8.656   1.707
28561WAT     H285926   6.169   8.612   1.752
28562WAT      O85927   3.847   5.196   4.378
28562WAT     H185928   3.797   5.280   4.398
28562WAT     H285929   3.936   5.219   4.340
28563WAT      O85930   2.636   1.033   1.673
28563WAT     H185931   2.712   0.981   1.713
28563WAT     H285932   2.667   1.126   1.653
28564WAT      O85933   9.351   1.164   0.976
28564WAT     H185934   9.312   1.197   1.062
28564WAT     H285935   9.433   1.217   0.954
28565WAT      O85936   1.526   6.775   2.663
28565WAT     H185937   1.602   6.821   2.618
28565WAT     H285938   1.446   6.836   2.666
28566WAT      O85939   6.442   2.525   7.607
28566WAT     H185940   6.439   2.548   7.509
28566WAT     H285941   6.357   2.481   7.634
28567WAT      O85942   3.447   3.549   6.071
28567WAT     H185943   3.391   3.516   6.147
28567WAT     H285944   3.453   3.478   6.001
28568WAT      O85945   5.535   8.671   4.112
28568WAT     H185946   5.471   8.675   4.189
28568WAT     H285947   5.491   8.627   4.034
28569WAT      O85948   2.324   6.518   5.254
28569WAT     H185949   2.361   6.474   5.173
28569WAT     H285950   2.381   6.597   5.278
28570WAT      O85951   3.334   8.076   5.423
28570WAT     H185952   3.362   8.170   5.443
28570WAT     H285953   3.264   8.048   5.489
28571WAT      O85954   1.877   2.589   4.092
28571WAT     H185955   1.951   2.583   4.158
28571WAT     H285956   1.810   2.517   4.110
28572WAT      O85957   5.601   9.625   3.353
28572WAT     H185958   5.642   9.574   3.428
28572WAT     H285959   5.656   9.612   3.270
28573WAT      O85960   9.624   4.352   7.467
28573WAT     H185961   9.657   4.432   7.418
28573WAT     H285962   9.526   4.360   7.484
28574WAT      O85963   8.123   5.550   4.335
28574WAT     H185964   8.052   5.525   4.401
28574WAT     H285965   8.101   5.511   4.245
28575WAT      O85966   9.855   9.539   5.550
28575WAT     H185967   9.898   9.452   5.576
28575WAT     H285968   9.918   9.591   5.492
28576WAT      O85969   6.761   1.390   2.340
28576WAT     H185970   6.701   1.426   2.269
28576WAT     H285971   6.706   1.358   2.417
28577WAT      O85972   0.178   6.532   2.785
28577WAT     H185973   0.264   6.583   2.789
28577WAT     H285974   0.116   6.576   2.721
28578WAT      O85975   1.763   2.950   0.264
28578WAT     H185976   1.827   2.988   0.198
28578WAT     H285977   1.795   2.967   0.356
28579WAT      O85978   1.854   6.322   3.369
28579WAT     H185979   1.860   6.338   3.467
28579WAT     H285980   1.945   6.329   3.328
28580WAT      O85981   9.571   8.549   3.152
28580WAT     H185982   9.472   8.547   3.164
28580WAT     H285983   9.596   8.504   3.067
28581WAT      O85984   7.045   4.100   3.730
28581WAT     H185985   7.139   4.123   3.755
28581WAT     H285986   7.043   4.068   3.635
28582WAT      O85987   8.445   7.336   1.565
28582WAT     H185988   8.443   7.236   1.558
28582WAT     H285989   8.532   7.370   1.531
28583WAT      O85990   9.254   2.620   4.472
28583WAT     H185991   9.323   2.693   4.471
28583WAT     H285992   9.283   2.546   4.411
28584WAT      O85993   5.611   1.952   3.887
28584WAT     H185994   5.572   1.876   3.939
28584WAT     H285995   5.594   1.939   3.790
28585WAT      O85996   7.396   2.140   5.974
28585WAT     H185997   7.397   2.234   5.940
28585WAT     H285998   7.484   2.097   5.954
28586WAT      O85999   6.391   2.365   3.269
28586WAT     H186000   6.361   2.449   3.313
28586WAT     H286001   6.313   2.318   3.227
28587WAT      O86002   8.407   7.213   3.887
28587WAT     H186003   8.454   7.167   3.812
28587WAT     H286004   8.322   7.254   3.854
28588WAT      O86005   7.740   0.410   7.760
28588WAT     H186006   7.681   0.468   7.816
28588WAT     H286007   7.796   0.352   7.820
28589WAT      O86008   3.178   6.833   7.633
28589WAT     H186009   3.254   6.802   7.576
28589WAT     H286010   3.213   6.883   7.712
28590WAT      O86011   2.296   5.562   4.506
28590WAT     H186012   2.236   5.494   4.548
28590WAT     H286013   2.352   5.605   4.576
28591WAT      O86014   5.813   7.143   6.015
28591WAT     H186015   5.860   7.176   6.096
28591WAT     H286016   5.731   7.198   5.998
28592WAT      O86017   3.619   7.160   4.587
28592WAT     H186018   3.585   7.078   4.634
28592WAT     H286019   3.682   7.132   4.514
28593WAT      O86020   7.870   2.830   1.873
28593WAT     H186021   7.873   2.801   1.777
28593WAT     H286022   7.811   2.768   1.925
28594WAT      O86023   6.140   0.669   5.039
28594WAT     H186024   6.122   0.763   5.066
28594WAT     H286025   6.057   0.629   4.999
28595WAT      O86026   6.391   4.747   4.077
28595WAT     H186027   6.474   4.747   4.133
28595WAT     H286028   6.390   4.666   4.019
28596WAT      O86029   6.436   5.117   4.794
28596WAT     H186030   6.492   5.047   4.749
28596WAT     H286031   6.496   5.181   4.842
28597WAT      O86032   9.501   1.949   3.070
28597WAT     H186033   9.430   1.880   3.081
28597WAT     H286034   9.488   2.021   3.139
28598WAT      O86035   6.615   6.071   9.185
28598WAT     H186036   6.703   6.079   9.231
28598WAT     H286037   6.624   6.102   9.090
28599WAT      O86038   7.124   8.929   9.274
28599WAT     H186039   7.128   9.002   9.206
28599WAT     H286040   7.076   8.850   9.235
28600WAT      O86041   3.244   3.503   0.670
28600WAT     H186042   3.202   3.461   0.750
28600WAT     H286043   3.343   3.488   0.672
28601WAT      O86044   3.753   5.358   0.775
28601WAT     H186045   3.777   5.433   0.837
28601WAT     H286046   3.833   5.335   0.718
28602WAT      O86047   2.518   5.606   0.001
28602WAT     H186048   2.568   5.619   0.087
28602WAT     H286049   2.479   5.693  -0.029
28603WAT      O86050   3.931   0.289   1.716
28603WAT     H186051   4.012   0.240   1.747
28603WAT     H286052   3.936   0.385   1.745
28604WAT      O86053   8.999   1.641   1.286
28604WAT     H186054   9.036   1.637   1.379
28604WAT     H286055   8.954   1.730   1.273
28605WAT      O86056   9.589   2.648   5.362
28605WAT     H186057   9.598   2.710   5.284
28605WAT     H286058   9.595   2.701   5.447
28606WAT      O86059   7.087   6.316   7.992
28606WAT     H186060   7.156   6.288   7.925
28606WAT     H286061   7.020   6.242   8.003
28607WAT      O86062   6.561   2.072   6.749
28607WAT     H186063   6.555   2.121   6.663
28607WAT     H286064   6.496   2.111   6.815
28608WAT      O86065   3.956   7.537   5.607
28608WAT     H186066   3.878   7.566   5.662
28608WAT     H286067   3.944   7.566   5.513
28609WAT      O86068   1.225   1.815   3.758
28609WAT     H186069   1.151   1.881   3.746
28609WAT     H286070   1.187   1.726   3.784
28610WAT      O86071   4.407   8.864   3.636
28610WAT     H186072   4.400   8.801   3.558
28610WAT     H286073   4.370   8.819   3.717
28611WAT      O86074   0.746   0.522   2.837
28611WAT     H186075   0.764   0.585   2.762
28611WAT     H286076   0.759   0.428   2.805
28612WAT      O86077   7.547   8.541   8.221
28612WAT     H186078   7.559   8.586   8.310
28612WAT     H286079   7.586   8.599   8.149
28613WAT      O86080   3.113   5.924   7.224
28613WAT     H186081   3.209   5.946   7.204
28613WAT     H286082   3.109   5.837   7.273
28614WAT      O86083   5.461   5.872   4.384
28614WAT     H186084   5.405   5.942   4.339
28614WAT     H286085   5.479   5.798   4.320
28615WAT      O86086   8.612   3.330   0.220
28615WAT     H186087   8.659   3.416   0.242
28615WAT     H286088   8.546   3.310   0.292
28616WAT      O86089   4.834   8.426   6.345
28616WAT     H186090   4.891   8.471   6.413
28616WAT     H286091   4.789   8.347   6.386
28617WAT      O86092   6.399   2.933   3.137
28617WAT     H186093   6.301   2.914   3.142
28617WAT     H286094   6.417   2.998   3.064
28618WAT      O86095   9.800   0.612   2.763
28618WAT     H186096   9.842   0.570   2.682
28618WAT     H286097   9.767   0.541   2.825
28619WAT      O86098   8.848   3.399   2.930
28619WAT     H186099   8.944   3.427   2.928
28619WAT     H286100   8.789   3.480   2.933
28620WAT      O86101   9.344   7.919   4.243
28620WAT     H186102   9.403   7.999   4.246
28620WAT     H286103   9.340   7.876   4.333
28621WAT      O86104   6.720   2.007   0.566
28621WAT     H186105   6.770   2.080   0.613
28621WAT     H286106   6.697   1.935   0.631
28622WAT      O86107   5.201   4.814   2.941
28622WAT     H186108   5.110   4.778   2.961
28622WAT     H286109   5.196   4.914   2.930
28623WAT      O86110   2.646   2.538   9.591
28623WAT     H186111   2.655   2.439   9.581
28623WAT     H286112   2.618   2.578   9.504
28624WAT      O86113   7.723   0.418   1.730
28624WAT     H186114   7.774   0.346   1.775
28624WAT     H286115   7.768   0.443   1.644
28625WAT      O86116   8.879   3.827   3.384
28625WAT     H186117   8.882   3.727   3.387
28625WAT     H286118   8.970   3.862   3.364
28626WAT      O86119   0.021   5.647   1.906
28626WAT     H186120   0.022   5.554   1.942
28626WAT     H286121  -0.063   5.693   1.936
28627WAT      O86122   7.682   1.112   0.891
28627WAT     H186123   7.728   1.117   0.979
28627WAT     H286124   7.687   1.019   0.856
28628WAT      O86125   6.932   2.314   8.547
28628WAT     H186126   6.848   2.341   8.595
28628WAT     H286127   6.949   2.216   8.562
28629WAT      O86128   6.113   0.234   4.341
28629WAT     H186129   6.054   0.156   4.318
28629WAT     H286130   6.192   0.202   4.393
28630WAT      O86131   3.173   8.351   4.634
28630WAT     H186132   3.091   8.408   4.641
28630WAT     H286133   3.219   8.347   4.723
28631WAT      O86134   4.859   6.006   5.478
28631WAT     H186135   4.855   5.960   5.566
28631WAT     H286136   4.886   6.102   5.491
28632WAT      O86137   4.174   5.013   6.882
28632WAT     H186138   4.202   5.091   6.825
28632WAT     H286139   4.087   4.977   6.848
28633WAT      O86140   9.282   0.511   6.481
28633WAT     H186141   9.345   0.521   6.559
28633WAT     H286142   9.292   0.590   6.420
28634WAT      O86143   8.517   2.456   1.752
28634WAT     H186144   8.461   2.397   1.693
28634WAT     H286145   8.598   2.406   1.782
28635WAT      O86146   5.340   7.697   3.586
28635WAT     H186147   5.401   7.636   3.535
28635WAT     H286148   5.274   7.643   3.638
28636WAT      O86149   4.885   7.921   0.973
28636WAT     H186150   4.887   7.965   1.062
28636WAT     H286151   4.947   7.842   0.973
28637WAT      O86152   4.059   1.273   7.850
28637WAT     H186153   4.036   1.353   7.907
28637WAT     H286154   4.111   1.304   7.770
28638WAT      O86155   0.801   2.457   7.473
28638WAT     H186156   0.768   2.540   7.519
28638WAT     H286157   0.795   2.379   7.535
28639WAT      O86158   8.605   1.927   4.896
28639WAT     H186159   8.659   1.960   4.973
28639WAT     H286160   8.520   1.885   4.929
28640WAT      O86161   2.785   6.396   5.657
28640WAT     H186162   2.797   6.336   5.578
28640WAT     H286163   2.743   6.482   5.628
28641WAT      O86164   2.014   3.218   7.685
28641WAT     H186165   2.105   3.203   7.645
28641WAT     H286166   1.972   3.298   7.642
28642WAT      O86167   3.785   4.792   6.165
28642WAT     H186168   3.835   4.707   6.152
28642WAT     H286169   3.838   4.852   6.225
28643WAT      O86170   8.456   0.340   6.014
28643WAT     H186171   8.495   0.394   5.940
28643WAT     H286172   8.521   0.269   6.042
28644WAT      O86173   2.709   0.841   7.351
28644WAT     H186174   2.736   0.931   7.386
28644WAT     H286175   2.783   0.775   7.368
28645WAT      O86176   1.072   4.584   3.965
28645WAT     H186177   1.049   4.580   4.062
28645WAT     H286178   1.169   4.608   3.954
28646WAT      O86179   9.580   9.629   0.126
28646WAT     H186180   9.612   9.537   0.101
28646WAT     H286181   9.570   9.684   0.044
28647WAT      O86182   9.772   9.163   7.034
28647WAT     H186183   9.749   9.168   6.937
28647WAT     H286184   9.689   9.169   7.089
28648WAT      O86185   9.843   0.541   8.322
28648WAT     H186186   9.771   0.486   8.364
28648WAT     H286187   9.921   0.548   8.384
28649WAT      O86188   5.786   7.565   7.474
28649WAT     H186189   5.724   7.501   7.429
28649WAT     H286190   5.813   7.529   7.563
28650WAT      O86191   7.343   3.363   8.396
28650WAT     H186192   7.394   3.296   8.451
28650WAT     H286193   7.392   3.450   8.397
28651WAT      O86194   3.197   9.732   0.639
28651WAT     H186195   3.264   9.777   0.699
28651WAT     H286196   3.130   9.683   0.695
28652WAT      O86197   8.322   5.856   8.624
28652WAT     H186198   8.275   5.910   8.693
28652WAT     H286199   8.263   5.847   8.543
28653WAT      O86200   1.364   0.944   0.770
28653WAT     H186201   1.415   1.002   0.706
28653WAT     H286202   1.361   0.850   0.736
28654WAT      O86203   9.852   0.240   7.126
28654WAT     H186204   9.794   0.170   7.166
28654WAT     H286205   9.806   0.280   7.046
28655WAT      O86206   9.096   5.890   8.355
28655WAT     H186207   9.174   5.942   8.321
28655WAT     H286208   9.103   5.880   8.455
28656WAT      O86209   6.841   2.767   3.003
28656WAT     H186210   6.826   2.674   3.037
28656WAT     H286211   6.797   2.832   3.066
28657WAT      O86212   6.818   1.136   8.206
28657WAT     H186213   6.914   1.113   8.219
28657WAT     H286214   6.772   1.065   8.154
28658WAT      O86215   1.700   0.270   7.056
28658WAT     H186216   1.714   0.172   7.070
28658WAT     H286217   1.763   0.302   6.986
28659WAT      O86218   6.797   1.916   9.491
28659WAT     H186219   6.725   1.847   9.504
28659WAT     H286220   6.876   1.874   9.447
28660WAT      O86221   6.533   5.367   5.807
28660WAT     H186222   6.450   5.367   5.863
28660WAT     H286223   6.563   5.272   5.793
28661WAT      O86224   0.102   0.364   0.995
28661WAT     H186225   0.078   0.302   0.920
28661WAT     H286226   0.190   0.406   0.977
28662WAT      O86227   8.571   5.664   8.450
28662WAT     H186228   8.625   5.706   8.376
28662WAT     H286229   8.579   5.720   8.532
28663WAT      O86230   7.543   9.544   7.344
28663WAT     H186231   7.604   9.467   7.323
28663WAT     H286232   7.516   9.540   7.441
28664WAT      O86233   9.622   0.773   2.615
28664WAT     H186234   9.654   0.709   2.684
28664WAT     H286235   9.550   0.831   2.654
28665WAT      O86236   1.255   4.245   0.817
28665WAT     H186237   1.182   4.176   0.820
28665WAT     H286238   1.279   4.263   0.722
28666WAT      O86239   4.069   9.190   3.738
28666WAT     H186240   4.161   9.227   3.729
28666WAT     H286241   4.028   9.178   3.648
28667WAT      O86242   3.277   8.186   7.882
28667WAT     H186243   3.372   8.193   7.851
28667WAT     H286244   3.267   8.104   7.939
28668WAT      O86245   2.643   7.053   3.363
28668WAT     H186246   2.551   7.093   3.368
28668WAT     H286247   2.706   7.107   3.419
28669WAT      O86248   4.787   5.818   4.508
28669WAT     H186249   4.864   5.780   4.561
28669WAT     H286250   4.761   5.753   4.437
28670WAT      O86251   1.695   2.956   8.505
28670WAT     H186252   1.791   2.930   8.516
28670WAT     H286253   1.651   2.962   8.594
28671WAT      O86254   0.432   0.254   7.474
28671WAT     H186255   0.428   0.230   7.377
28671WAT     H286256   0.373   0.193   7.526
28672WAT      O86257   4.677   6.411   8.094
28672WAT     H186258   4.610   6.483   8.114
28672WAT     H286259   4.656   6.330   8.149
28673WAT      O86260   8.094   4.270   5.751
28673WAT     H186261   8.066   4.185   5.707
28673WAT     H286262   8.119   4.251   5.847
28674WAT      O86263   6.966   7.152   4.848
28674WAT     H186264   7.042   7.098   4.814
28674WAT     H286265   6.990   7.191   4.937
28675WAT      O86266   7.008   5.455   6.284
28675WAT     H186267   7.022   5.362   6.251
28675WAT     H286268   7.060   5.519   6.227
28676WAT      O86269   6.365   9.401   4.858
28676WAT     H186270   6.266   9.413   4.848
28676WAT     H286271   6.384   9.303   4.871
28677WAT      O86272   1.807   5.112   1.781
28677WAT     H186273   1.776   5.124   1.876
28677WAT     H286274   1.835   5.017   1.766
28678WAT      O86275   7.709   3.921   9.514
28678WAT     H186276   7.756   3.892   9.431
28678WAT     H286277   7.673   4.013   9.502
28679WAT      O86278   6.050   0.742   6.203
28679WAT     H186279   5.996   0.679   6.260
28679WAT     H286280   6.043   0.714   6.107
28680WAT      O86281   0.618   4.607   5.162
28680WAT     H186282   0.687   4.595   5.233
28680WAT     H286283   0.561   4.687   5.184
28681WAT      O86284   6.034   1.755   3.514
28681WAT     H186285   5.958   1.727   3.456
28681WAT     H286286   6.113   1.696   3.497
28682WAT      O86287   0.033   1.019   5.204
28682WAT     H186288  -0.006   1.024   5.296
28682WAT     H286289   0.049   1.112   5.170
28683WAT      O86290   0.696   6.621   9.241
28683WAT     H186291   0.680   6.714   9.271
28683WAT     H286292   0.616   6.588   9.191
28684WAT      O86293   7.982   2.386   6.469
28684WAT     H186294   8.001   2.364   6.565
28684WAT     H286295   8.014   2.311   6.411
28685WAT      O86296   7.785   7.447   3.569
28685WAT     H186297   7.875   7.403   3.567
28685WAT     H286298   7.767   7.479   3.662
28686WAT      O86299   0.329   2.834   6.172
28686WAT     H186300   0.297   2.830   6.078
28686WAT     H286301   0.367   2.925   6.191
28687WAT      O86302   8.806   1.055   6.970
28687WAT     H186303   8.814   0.961   7.005
28687WAT     H286304   8.879   1.111   7.009
28688WAT      O86305   4.037   1.806   9.349
28688WAT     H186306   4.107   1.740   9.321
28688WAT     H286307   3.990   1.841   9.268
28689WAT      O86308   4.791   3.416   4.482
28689WAT     H186309   4.753   3.475   4.553
28689WAT     H286310   4.873   3.371   4.517
28690WAT      O86311   3.782   5.995   0.795
28690WAT     H186312   3.845   5.920   0.815
28690WAT     H286313   3.722   6.011   0.874
28691WAT      O86314   8.942   5.936   5.227
28691WAT     H186315   8.994   6.018   5.202
28691WAT     H286316   8.879   5.957   5.302
28692WAT      O86317   3.857   5.691   6.777
28692WAT     H186318   3.782   5.645   6.825
28692WAT     H286319   3.880   5.639   6.695
28693WAT      O86320   4.371   3.164   2.893
28693WAT     H186321   4.397   3.251   2.936
28693WAT     H286322   4.306   3.182   2.819
28694WAT      O86323   6.171   4.347   9.101
28694WAT     H186324   6.189   4.281   9.028
28694WAT     H286325   6.091   4.402   9.076
28695WAT      O86326   5.129   0.848   3.314
28695WAT     H186327   5.132   0.948   3.314
28695WAT     H286328   5.120   0.815   3.220
28696WAT      O86329   6.162   3.665   9.237
28696WAT     H186330   6.228   3.601   9.199
28696WAT     H286331   6.144   3.738   9.172
28697WAT      O86332   4.648   0.022   6.076
28697WAT     H186333   4.743   0.042   6.100
28697WAT     H286334   4.644  -0.017   5.984
28698WAT      O86335   3.520   8.911   3.392
28698WAT     H186336   3.429   8.908   3.350
28698WAT     H286337   3.570   8.828   3.368
28699WAT      O86338   4.803   3.010   4.345
28699WAT     H186339   4.753   3.020   4.431
28699WAT     H286340   4.889   3.060   4.350
28700WAT      O86341   3.841   7.953   7.599
28700WAT     H186342   3.840   8.024   7.669
28700WAT     H286343   3.863   7.994   7.511
28701WAT      O86344   7.135   1.503   7.728
28701WAT     H186345   7.138   1.446   7.645
28701WAT     H286346   7.179   1.591   7.709
28702WAT      O86347   8.912   9.695   8.479
28702WAT     H186348   8.875   9.603   8.488
28702WAT     H286349   8.943   9.728   8.568
28703WAT      O86350   0.645   3.306   9.160
28703WAT     H186351   0.697   3.351   9.233
28703WAT     H286352   0.586   3.373   9.115
28704WAT      O86353   0.469   9.411   9.782
28704WAT     H186354   0.437   9.495   9.738
28704WAT     H286355   0.565   9.396   9.760
28705WAT      O86356   0.428   7.684   0.631
28705WAT     H186357   0.435   7.742   0.713
28705WAT     H286358   0.346   7.627   0.638
28706WAT      O86359   5.456   2.698   9.498
28706WAT     H186360   5.493   2.735   9.583
28706WAT     H286361   5.522   2.712   9.424
28707WAT      O86362   5.200   0.872   6.436
28707WAT     H186363   5.265   0.834   6.370
28707WAT     H286364   5.139   0.935   6.388
28708WAT      O86365   4.173   7.080   5.344
28708WAT     H186366   4.097   7.100   5.405
28708WAT     H286367   4.259   7.081   5.396
28709WAT      O86368   3.779   0.858   0.988
28709WAT     H186369   3.819   0.852   1.079
28709WAT     H286370   3.839   0.911   0.929
28710WAT      O86371   7.151   8.052   1.336
28710WAT     H186372   7.239   8.019   1.370
28710WAT     H286373   7.107   7.980   1.283
28711WAT      O86374   2.492   1.284   1.035
28711WAT     H186375   2.402   1.323   1.058
28711WAT     H286376   2.564   1.348   1.063
28712WAT      O86377   5.203   8.146   0.387
28712WAT     H186378   5.269   8.135   0.461
28712WAT     H286379   5.245   8.199   0.313
28713WAT      O86380   5.496   9.530   1.905
28713WAT     H186381   5.564   9.586   1.858
28713WAT     H286382   5.529   9.508   1.997
28714WAT      O86383   4.398   0.115   6.489
28714WAT     H186384   4.475   0.154   6.539
28714WAT     H286385   4.313   0.156   6.523
28715WAT      O86386   3.671   3.702   8.506
28715WAT     H186387   3.583   3.655   8.514
28715WAT     H286388   3.716   3.704   8.596
28716WAT      O86389   8.057   5.897   3.377
28716WAT     H186390   7.986   5.915   3.308
28716WAT     H286391   8.024   5.925   3.467
28717WAT      O86392   8.840   7.153   7.362
28717WAT     H186393   8.813   7.249   7.368
28717WAT     H286394   8.933   7.142   7.396
28718WAT      O86395   0.987   2.250   7.012
28718WAT     H186396   0.898   2.205   7.012
28718WAT     H286397   1.013   2.274   7.106
28719WAT      O86398   7.730   9.262   7.855
28719WAT     H186399   7.658   9.255   7.925
28719WAT     H286400   7.770   9.353   7.858
28720WAT      O86401   2.489   5.899   5.838
28720WAT     H186402   2.440   5.875   5.922
28720WAT     H286403   2.539   5.985   5.852
28721WAT      O86404   8.559   2.721   6.553
28721WAT     H186405   8.644   2.760   6.516
28721WAT     H286406   8.549   2.627   6.522
28722WAT      O86407   9.645   6.048   2.034
28722WAT     H186408   9.675   6.137   2.068
28722WAT     H286409   9.645   6.048   1.934
28723WAT      O86410   0.904   5.232   0.755
28723WAT     H186411   0.866   5.191   0.838
28723WAT     H286412   0.840   5.300   0.719
28724WAT      O86413   7.825   5.064   9.738
28724WAT     H186414   7.746   5.005   9.753
28724WAT     H286415   7.793   5.156   9.714
28725WAT      O86416   9.357   3.428   0.635
28725WAT     H186417   9.275   3.389   0.677
28725WAT     H286418   9.407   3.356   0.586
28726WAT      O86419   5.407   2.631   2.395
28726WAT     H186420   5.440   2.670   2.310
28726WAT     H286421   5.323   2.678   2.423
28727WAT      O86422   7.188   8.000   5.661
28727WAT     H186423   7.238   7.990   5.575
28727WAT     H286424   7.091   8.019   5.642
28728WAT      O86425   4.718   2.384   0.784
28728WAT     H186426   4.642   2.321   0.800
28728WAT     H286427   4.794   2.334   0.740
28729WAT      O86428   2.768   6.623   7.019
28729WAT     H186429   2.707   6.610   6.940
28729WAT     H286430   2.863   6.612   6.990
28730WAT      O86431   0.153   3.692   8.713
28730WAT     H186432   0.149   3.775   8.768
28730WAT     H286433   0.248   3.671   8.692
28731WAT      O86434   1.013   4.592   3.523
28731WAT     H186435   0.919   4.585   3.492
28731WAT     H286436   1.024   4.673   3.581
28732WAT      O86437   3.260   2.970   6.025
28732WAT     H186438   3.330   2.932   6.085
28732WAT     H286439   3.273   2.937   5.932
28733WAT      O86440   1.441   4.466   4.598
28733WAT     H186441   1.375   4.539   4.581
28733WAT     H286442   1.409   4.409   4.674
28734WAT      O86443   3.899   2.577   1.566
28734WAT     H186444   3.921   2.670   1.538
28734WAT     H286445   3.802   2.571   1.589
28735WAT      O86446   7.096   5.363   6.829
28735WAT     H186447   7.156   5.352   6.750
28735WAT     H286448   7.133   5.433   6.889
28736WAT      O86449   9.289   7.102   6.195
28736WAT     H186450   9.355   7.119   6.121
28736WAT     H286451   9.314   7.017   6.243
28737WAT      O86452   5.196   2.208   3.990
28737WAT     H186453   5.193   2.283   3.924
28737WAT     H286454   5.203   2.121   3.941
28738WAT      O86455   3.620   4.176   6.038
28738WAT     H186456   3.714   4.208   6.029
28738WAT     H286457   3.564   4.215   5.965
28739WAT      O86458   9.004   2.201   7.178
28739WAT     H186459   8.971   2.221   7.086
28739WAT     H286460   9.068   2.124   7.175
28740WAT      O86461   7.904   3.611   7.710
28740WAT     H186462   8.004   3.607   7.709
28740WAT     H286463   7.874   3.697   7.670
28741WAT      O86464   1.399   9.098   2.929
28741WAT     H186465   1.352   9.051   2.854
28741WAT     H286466   1.417   9.193   2.904
28742WAT      O86467   1.577   4.466   1.298
28742WAT     H186468   1.500   4.528   1.313
28742WAT     H286469   1.560   4.410   1.216
28743WAT      O86470   9.333   2.319   2.759
28743WAT     H186471   9.322   2.369   2.673
28743WAT     H286472   9.317   2.222   2.743
28744WAT      O86473   6.721   8.133   6.975
28744WAT     H186474   6.807   8.134   7.026
28744WAT     H286475   6.741   8.126   6.877
28745WAT      O86476   9.332   5.440   3.090
28745WAT     H186477   9.305   5.465   2.997
28745WAT     H286478   9.398   5.365   3.086
28746WAT      O86479   5.669   7.622   6.308
28746WAT     H186480   5.635   7.557   6.241
28746WAT     H286481   5.767   7.637   6.293
28747WAT      O86482   1.826   8.103   4.034
28747WAT     H186483   1.726   8.105   4.028
28747WAT     H286484   1.859   8.011   4.014
28748WAT      O86485   7.423   4.188   8.539
28748WAT     H186486   7.374   4.104   8.564
28748WAT     H286487   7.412   4.256   8.612
28749WAT      O86488   0.354   3.615   1.906
28749WAT     H186489   0.303   3.699   1.925
28749WAT     H286490   0.401   3.585   1.990
28750WAT      O86491   1.265   0.104   2.820
28750WAT     H186492   1.234   0.184   2.871
28750WAT     H286493   1.187   0.045   2.799
28751WAT      O86494   6.536   2.542   5.779
28751WAT     H186495   6.459   2.593   5.816
28751WAT     H286496   6.527   2.445   5.804
28752WAT      O86497   1.714   1.035   7.882
28752WAT     H186498   1.669   0.968   7.824
28752WAT     H286499   1.649   1.108   7.905
28753WAT      O86500   4.402   1.575   0.429
28753WAT     H186501   4.433   1.611   0.517
28753WAT     H286502   4.405   1.648   0.361
28754WAT      O86503   3.396   9.334   3.443
28754WAT     H186504   3.383   9.428   3.475
28754WAT     H286505   3.331   9.315   3.370
28755WAT      O86506   6.218   7.148   8.435
28755WAT     H186507   6.162   7.209   8.491
28755WAT     H286508   6.226   7.059   8.480
28756WAT      O86509   7.305   7.154   1.924
28756WAT     H186510   7.324   7.180   1.829
28756WAT     H286511   7.211   7.180   1.948
28757WAT      O86512   4.573   9.456   1.925
28757WAT     H186513   4.578   9.357   1.941
28757WAT     H286514   4.520   9.474   1.842
28758WAT      O86515   6.385   0.702   0.760
28758WAT     H186516   6.361   0.605   0.771
28758WAT     H286517   6.430   0.715   0.672
28759WAT      O86518   0.626   0.436   2.438
28759WAT     H186519   0.547   0.452   2.498
28759WAT     H286520   0.662   0.524   2.407
28760WAT      O86521   6.404   5.043   9.492
28760WAT     H186522   6.328   4.980   9.479
28760WAT     H286523   6.478   4.996   9.540
28761WAT      O86524   3.401   0.599   4.139
28761WAT     H186525   3.314   0.649   4.134
28761WAT     H286526   3.395   0.529   4.209
28762WAT      O86527   3.592   8.394   2.220
28762WAT     H186528   3.690   8.375   2.210
28762WAT     H286529   3.576   8.439   2.308
28763WAT      O86530   0.039   5.533   8.406
28763WAT     H186531   0.118   5.584   8.440
28763WAT     H286532   0.059   5.435   8.411
28764WAT      O86533   2.550   3.749   2.959
28764WAT     H186534   2.637   3.793   2.984
28764WAT     H286535   2.567   3.656   2.928
28765WAT      O86536   7.813   5.266   1.871
28765WAT     H186537   7.835   5.345   1.814
28765WAT     H286538   7.714   5.259   1.882
28766WAT      O86539   4.156   9.599   6.616
28766WAT     H186540   4.153   9.687   6.570
28766WAT     H286541   4.137   9.526   6.550
28767WAT      O86542   6.341   0.477   2.174
28767WAT     H186543   6.441   0.483   2.167
28767WAT     H286544   6.312   0.506   2.265
28768WAT      O86545   1.253   5.479   9.451
28768WAT     H186546   1.335   5.474   9.508
28768WAT     H286547   1.252   5.566   9.402
28769WAT      O86548   8.064   4.001   7.657
28769WAT     H186549   8.154   4.038   7.677
28769WAT     H286550   8.018   3.975   7.742
28770WAT      O86551   8.373   0.126   0.295
28770WAT     H186552   8.343   0.031   0.305
28770WAT     H286553   8.447   0.144   0.359
28771WAT      O86554   3.456   6.075   2.269
28771WAT     H186555   3.478   6.057   2.173
28771WAT     H286556   3.383   6.143   2.274
28772WAT      O86557   4.849   1.248   1.822
28772WAT     H186558   4.763   1.258   1.871
28772WAT     H286559   4.897   1.336   1.820
28773WAT      O86560   4.307   8.741   3.841
28773WAT     H186561   4.245   8.819   3.831
28773WAT     H286562   4.336   8.733   3.936
28774WAT      O86563   6.101   3.640   7.109
28774WAT     H186564   6.078   3.598   7.021
28774WAT     H286565   6.183   3.697   7.098
28775WAT      O86566   4.572   4.348   6.081
28775WAT     H186567   4.649   4.400   6.042
28775WAT     H286568   4.508   4.324   6.008
28776WAT      O86569   7.902   0.030   1.512
28776WAT     H186570   7.817   0.020   1.563
28776WAT     H286571   7.896  -0.021   1.426
28777WAT      O86572   5.790   5.618   5.722
28777WAT     H186573   5.854   5.595   5.796
28777WAT     H286574   5.701   5.643   5.761
28778WAT      O86575   4.889   3.832   4.807
28778WAT     H186576   4.970   3.814   4.750
28778WAT     H286577   4.806   3.817   4.753
28779WAT      O86578   8.613   2.605   3.892
28779WAT     H186579   8.652   2.636   3.979
28779WAT     H286580   8.553   2.676   3.855
28780WAT      O86581   4.668   9.677   0.201
28780WAT     H186582   4.690   9.586   0.236
28780WAT     H286583   4.680   9.678   0.102
28781WAT      O86584   5.031   7.022   0.905
28781WAT     H186585   5.021   6.994   1.000
28781WAT     H286586   5.074   6.948   0.853
28782WAT      O86587   3.895   5.685   4.154
28782WAT     H186588   3.972   5.709   4.095
28782WAT     H286589   3.830   5.628   4.103
28783WAT      O86590   8.022   4.142   1.151
28783WAT     H186591   8.031   4.237   1.180
28783WAT     H286592   8.103   4.115   1.099
28784WAT      O86593   7.353   4.590   0.900
28784WAT     H186594   7.343   4.689   0.912
28784WAT     H286595   7.449   4.565   0.906
28785WAT      O86596   7.470   7.299   6.855
28785WAT     H186597   7.509   7.287   6.763
28785WAT     H286598   7.475   7.396   6.880
28786WAT      O86599   8.783   8.189   8.912
28786WAT     H186600   8.832   8.205   8.826
28786WAT     H286601   8.838   8.223   8.988
28787WAT      O86602   1.310   3.523   6.708
28787WAT     H186603   1.266   3.604   6.670
28787WAT     H286604   1.255   3.442   6.689
28788WAT      O86605   3.562   3.350   0.061
28788WAT     H186606   3.639   3.289   0.081
28788WAT     H286607   3.477   3.304   0.084
28789WAT      O86608   2.201   4.519   4.073
28789WAT     H186609   2.269   4.473   4.129
28789WAT     H286610   2.119   4.462   4.067
28790WAT      O86611   5.075   1.127   5.965
28790WAT     H186612   5.014   1.048   5.960
28790WAT     H286613   5.168   1.097   5.986
28791WAT      O86614   7.952   4.337   0.690
28791WAT     H186615   8.013   4.311   0.764
28791WAT     H286616   7.973   4.430   0.660
28792WAT      O86617   9.532   2.685   5.752
28792WAT     H186618   9.549   2.765   5.694
28792WAT     H286619   9.436   2.684   5.780
28793WAT      O86620   6.734   6.240   2.251
28793WAT     H186621   6.683   6.209   2.331
28793WAT     H286622   6.684   6.217   2.168
28794WAT      O86623   8.633   9.809   4.253
28794WAT     H186624   8.594   9.810   4.345
28794WAT     H286625   8.728   9.780   4.258
28795WAT      O86626   0.713   9.217   3.799
28795WAT     H186627   0.642   9.285   3.814
28795WAT     H286628   0.720   9.156   3.878
28796WAT      O86629   5.354   7.579   6.267
28796WAT     H186630   5.302   7.663   6.280
28796WAT     H286631   5.422   7.592   6.195
28797WAT      O86632   0.879   3.702   3.358
28797WAT     H186633   0.893   3.791   3.400
28797WAT     H286634   0.876   3.711   3.259
28798WAT      O86635   4.639   4.950   8.493
28798WAT     H186636   4.572   4.904   8.434
28798WAT     H286637   4.727   4.955   8.447
28799WAT      O86638   8.037   1.151   9.344
28799WAT     H186639   7.982   1.206   9.281
28799WAT     H286640   7.981   1.077   9.382
28800WAT      O86641   0.183   3.358   8.084
28800WAT     H186642   0.268   3.363   8.032
28800WAT     H286643   0.106   3.346   8.021
28801WAT      O86644   2.580   7.510   3.195
28801WAT     H186645   2.664   7.503   3.249
28801WAT     H286646   2.601   7.544   3.104
28802WAT      O86647   7.791   0.484   8.798
28802WAT     H186648   7.852   0.404   8.796
28802WAT     H286649   7.791   0.528   8.709
28803WAT      O86650   5.711   2.506   2.772
28803WAT     H186651   5.685   2.511   2.676
28803WAT     H286652   5.718   2.599   2.809
28804WAT      O86653   9.419   9.425   1.002
28804WAT     H186654   9.321   9.412   0.983
28804WAT     H286655   9.468   9.343   0.973
28805WAT      O86656   4.372   4.309   2.438
28805WAT     H186657   4.466   4.297   2.404
28805WAT     H286658   4.365   4.396   2.486
28806WAT      O86659   3.712   6.764   2.015
28806WAT     H186660   3.717   6.679   2.067
28806WAT     H286661   3.640   6.756   1.946
28807WAT      O86662   8.690   7.382   6.232
28807WAT     H186663   8.644   7.318   6.171
28807WAT     H286664   8.695   7.472   6.189
28808WAT      O86665   7.355   2.679   3.407
28808WAT     H186666   7.309   2.598   3.370
28808WAT     H286667   7.345   2.755   3.343
28809WAT      O86668   4.723   5.197   2.557
28809WAT     H186669   4.684   5.269   2.499
28809WAT     H286670   4.811   5.227   2.594
28810WAT      O86671   3.959   6.375   0.098
28810WAT     H186672   3.991   6.348   0.189
28810WAT     H286673   3.940   6.293   0.044
28811WAT      O86674   2.220   1.369   8.464
28811WAT     H186675   2.217   1.434   8.540
28811WAT     H286676   2.157   1.293   8.482
28812WAT      O86677   5.927   5.393   5.099
28812WAT     H186678   5.829   5.372   5.101
28812WAT     H286679   5.980   5.309   5.108
28813WAT      O86680   4.222   0.603   8.601
28813WAT     H186681   4.261   0.511   8.601
28813WAT     H286682   4.149   0.609   8.669
28814WAT      O86683   5.725   8.493   4.293
28814WAT     H186684   5.676   8.545   4.222
28814WAT     H286685   5.667   8.418   4.324
28815WAT      O86686   9.534   2.019   7.531
28815WAT     H186687   9.618   2.009   7.586
28815WAT     H286688   9.558   2.015   7.434
28816WAT      O86689   1.952   2.593   8.959
28816WAT     H186690   2.008   2.601   9.042
28816WAT     H286691   1.885   2.520   8.972
28817WAT      O86692   0.911   6.074   8.932
28817WAT     H186693   0.909   6.139   9.007
28817WAT     H286694   0.940   5.984   8.965
28818WAT      O86695   2.965   5.695   9.299
28818WAT     H186696   2.921   5.628   9.359
28818WAT     H286697   2.901   5.722   9.227
28819WAT      O86698   5.137   2.286   3.079
28819WAT     H186699   5.204   2.354   3.109
28819WAT     H286700   5.137   2.281   2.979
28820WAT      O86701   9.648   1.892   6.031
28820WAT     H186702   9.593   1.842   6.098
28820WAT     H286703   9.676   1.829   5.958
28821WAT      O86704   7.453   8.830   3.132
28821WAT     H186705   7.548   8.813   3.159
28821WAT     H286706   7.396   8.838   3.214
28822WAT      O86707   6.788   5.137   6.336
28822WAT     H186708   6.805   5.046   6.298
28822WAT     H286709   6.786   5.131   6.436
28823WAT      O86710   5.702   8.190   7.612
28823WAT     H186711   5.660   8.105   7.646
28823WAT     H286712   5.788   8.168   7.565
28824WAT      O86713   4.189   9.476   3.257
28824WAT     H186714   4.143   9.535   3.323
28824WAT     H286715   4.124   9.451   3.185
28825WAT      O86716   2.033   5.039   4.119
28825WAT     H186717   2.111   5.097   4.141
28825WAT     H286718   2.058   4.943   4.130
28826WAT      O86719   4.128   9.672   3.875
28826WAT     H186720   4.094   9.634   3.790
28826WAT     H286721   4.087   9.624   3.953
28827WAT      O86722   5.308   1.378   9.510
28827WAT     H186723   5.337   1.396   9.604
28827WAT     H286724   5.344   1.450   9.451
28828WAT      O86725   5.935   7.521   2.183
28828WAT     H186726   5.903   7.429   2.161
28828WAT     H286727   5.933   7.578   2.101
28829WAT      O86728   7.364   7.211   1.667
28829WAT     H186729   7.310   7.165   1.596
28829WAT     H286730   7.461   7.190   1.653
28830WAT      O86731   4.079   3.048   0.500
28830WAT     H186732   4.018   3.118   0.538
28830WAT     H286733   4.124   3.083   0.418
28831WAT      O86734   0.891   2.674   0.619
28831WAT     H186735   0.831   2.620   0.678
28831WAT     H286736   0.894   2.768   0.652
28832WAT      O86737   1.042   3.105   4.921
28832WAT     H186738   1.021   3.037   4.850
28832WAT     H286739   0.971   3.175   4.921
28833WAT      O86740   7.672   7.893   6.100
28833WAT     H186741   7.698   7.973   6.046
28833WAT     H286742   7.742   7.822   6.091
28834WAT      O86743   1.985   1.036   8.930
28834WAT     H186744   1.960   0.940   8.947
28834WAT     H286745   2.033   1.043   8.843
28835WAT      O86746   0.295   7.883   7.954
28835WAT     H186747   0.390   7.861   7.974
28835WAT     H286748   0.257   7.941   8.026
28836WAT      O86749   4.584   6.204   8.765
28836WAT     H186750   4.615   6.205   8.861
28836WAT     H286751   4.511   6.137   8.754
28837WAT      O86752   7.374   3.465   7.733
28837WAT     H186753   7.371   3.411   7.817
28837WAT     H286754   7.325   3.416   7.660
28838WAT      O86755   9.789   7.954   7.299
28838WAT     H186756   9.823   7.862   7.317
28838WAT     H286757   9.736   7.954   7.214
28839WAT      O86758   2.092   5.167   5.439
28839WAT     H186759   2.186   5.154   5.471
28839WAT     H286760   2.032   5.101   5.483
28840WAT      O86761   1.411   2.271   1.474
28840WAT     H186762   1.393   2.316   1.387
28840WAT     H286763   1.330   2.220   1.503
28841WAT      O86764   5.579   6.964   3.541
28841WAT     H186765   5.588   7.049   3.489
28841WAT     H286766   5.484   6.956   3.574
28842WAT      O86767   0.518   1.124   5.915
28842WAT     H186768   0.425   1.160   5.903
28842WAT     H286769   0.563   1.119   5.826
28843WAT      O86770   7.313   4.504   5.182
28843WAT     H186771   7.390   4.453   5.144
28843WAT     H286772   7.257   4.442   5.238
28844WAT      O86773   5.438   5.203   2.815
28844WAT     H186774   5.496   5.241   2.887
28844WAT     H286775   5.479   5.220   2.726
28845WAT      O86776   6.107   9.064   1.022
28845WAT     H186777   6.028   9.123   1.038
28845WAT     H286778   6.130   9.016   1.107
28846WAT      O86779   1.254   1.612   2.454
28846WAT     H186780   1.265   1.658   2.366
28846WAT     H286781   1.158   1.615   2.481
28847WAT      O86782   7.055   4.316   3.036
28847WAT     H186783   7.010   4.400   3.065
28847WAT     H286784   7.140   4.338   2.988
28848WAT      O86785   8.096   1.040   6.982
28848WAT     H186786   8.144   0.980   7.045
28848WAT     H286787   7.999   1.014   6.979
28849WAT      O86788   0.178   5.001   9.576
28849WAT     H186789   0.085   5.038   9.573
28849WAT     H286790   0.222   5.016   9.488
28850WAT      O86791   7.173   5.436   3.402
28850WAT     H186792   7.205   5.517   3.450
28850WAT     H286793   7.154   5.459   3.307
28851WAT      O86794   3.308   0.393   0.405
28851WAT     H186795   3.251   0.311   0.407
28851WAT     H286796   3.279   0.455   0.478
28852WAT      O86797   6.632   1.739   4.787
28852WAT     H186798   6.715   1.783   4.755
28852WAT     H286799   6.643   1.640   4.783
28853WAT      O86800   9.571   9.041   4.942
28853WAT     H186801   9.503   9.115   4.945
28853WAT     H286802   9.650   9.067   4.998
28854WAT      O86803   7.385   9.403   3.036
28854WAT     H186804   7.444   9.352   2.973
28854WAT     H286805   7.395   9.367   3.129
28855WAT      O86806   3.129   0.802   9.852
28855WAT     H186807   3.220   0.780   9.818
28855WAT     H286808   3.075   0.841   9.778
28856WAT      O86809   0.468   8.637   9.719
28856WAT     H186810   0.498   8.613   9.627
28856WAT     H286811   0.389   8.582   9.745
28857WAT      O86812   0.516   8.656   6.430
28857WAT     H186813   0.500   8.572   6.378
28857WAT     H286814   0.525   8.634   6.527
28858WAT      O86815   5.176   7.992   4.511
28858WAT     H186816   5.141   7.900   4.497
28858WAT     H286817   5.229   7.995   4.596
28859WAT      O86818   6.206   3.646   8.371
28859WAT     H186819   6.169   3.647   8.278
28859WAT     H286820   6.185   3.732   8.417
28860WAT      O86821   5.842   7.211   8.160
28860WAT     H186822   5.830   7.260   8.074
28860WAT     H286823   5.933   7.168   8.161
28861WAT      O86824   6.407   4.866   8.214
28861WAT     H186825   6.484   4.855   8.277
28861WAT     H286826   6.378   4.777   8.182
28862WAT      O86827   3.302   2.508   3.304
28862WAT     H186828   3.348   2.457   3.231
28862WAT     H286829   3.206   2.480   3.308
28863WAT      O86830   8.692   7.917   1.856
28863WAT     H186831   8.782   7.873   1.854
28863WAT     H286832   8.621   7.847   1.854
28864WAT      O86833   4.372   1.864   1.947
28864WAT     H186834   4.432   1.938   1.916
28864WAT     H286835   4.315   1.896   2.022
28865WAT      O86836   6.446   6.762   9.231
28865WAT     H186837   6.446   6.750   9.132
28865WAT     H286838   6.540   6.755   9.265
28866WAT      O86839   5.752   8.498   2.047
28866WAT     H186840   5.735   8.453   2.135
28866WAT     H286841   5.684   8.468   1.980
28867WAT      O86842   4.548   6.529   8.748
28867WAT     H186843   4.559   6.581   8.664
28867WAT     H286844   4.491   6.448   8.730
28868WAT      O86845   3.266   8.873   8.385
28868WAT     H186846   3.221   8.787   8.409
28868WAT     H286847   3.218   8.916   8.309
28869WAT      O86848   8.573   3.457   8.532
28869WAT     H186849   8.570   3.357   8.535
28869WAT     H286850   8.532   3.489   8.446
28870WAT      O86851   5.837   4.526   4.194
28870WAT     H186852   5.763   4.569   4.143
28870WAT     H286853   5.925   4.563   4.165
28871WAT      O86854   7.757   6.330   8.422
28871WAT     H186855   7.766   6.423   8.456
28871WAT     H286856   7.664   6.316   8.388
28872WAT      O86857   3.372   0.491   8.673
28872WAT     H186858   3.464   0.521   8.649
28872WAT     H286859   3.326   0.458   8.591
28873WAT      O86860   7.467   5.452   9.239
28873WAT     H186861   7.396   5.384   9.218
28873WAT     H286862   7.437   5.508   9.317
28874WAT      O86863   2.081   6.569   5.115
28874WAT     H186864   2.088   6.551   5.017
28874WAT     H286865   2.173   6.573   5.155
28875WAT      O86866   5.953   6.800   4.852
28875WAT     H186867   6.052   6.807   4.839
28875WAT     H286868   5.932   6.804   4.950
28876WAT      O86869   7.402   2.923   9.759
28876WAT     H186870   7.403   2.826   9.735
28876WAT     H286871   7.318   2.944   9.810
28877WAT      O86872   2.370   2.304   3.514
28877WAT     H186873   2.364   2.243   3.593
28877WAT     H286874   2.423   2.385   3.537
28878WAT      O86875   6.571   2.543   2.231
28878WAT     H186876   6.501   2.577   2.168
28878WAT     H286877   6.529   2.522   2.319
28879WAT      O86878   2.272   7.685   8.275
28879WAT     H186879   2.273   7.673   8.374
28879WAT     H286880   2.345   7.748   8.248
28880WAT      O86881   7.484   0.071   6.033
28880WAT     H186882   7.547   0.146   6.053
28880WAT     H286883   7.537  -0.013   6.018
28881WAT      O86884   1.702   4.384   4.642
28881WAT     H186885   1.763   4.463   4.647
28881WAT     H286886   1.608   4.416   4.627
28882WAT      O86887   6.671   4.157   7.901
28882WAT     H186888   6.736   4.169   7.825
28882WAT     H286889   6.634   4.246   7.927
28883WAT      O86890   6.723   0.874   7.172
28883WAT     H186891   6.640   0.902   7.125
28883WAT     H286892   6.701   0.811   7.247
28884WAT      O86893   1.536   5.536   1.113
28884WAT     H186894   1.565   5.497   1.200
28884WAT     H286895   1.571   5.630   1.105
28885WAT      O86896   4.872   3.187   8.779
28885WAT     H186897   4.936   3.120   8.817
28885WAT     H286898   4.794   3.197   8.841
28886WAT      O86899   4.066   9.348   4.121
28886WAT     H186900   4.016   9.336   4.035
28886WAT     H286901   4.053   9.441   4.155
28887WAT      O86902   0.442   9.667   8.974
28887WAT     H186903   0.398   9.580   8.953
28887WAT     H286904   0.444   9.680   9.073
28888WAT      O86905   2.273   2.790   4.492
28888WAT     H186906   2.275   2.744   4.403
28888WAT     H286907   2.359   2.773   4.540
28889WAT      O86908   2.424   3.172   0.813
28889WAT     H186909   2.514   3.215   0.820
28889WAT     H286910   2.388   3.182   0.721
28890WAT      O86911   3.822   9.078   7.072
28890WAT     H186912   3.921   9.088   7.064
28890WAT     H286913   3.793   9.100   7.165
28891WAT      O86914   5.650   7.483   0.692
28891WAT     H186915   5.738   7.436   0.694
28891WAT     H286916   5.582   7.422   0.650
28892WAT      O86917   1.666   6.730   1.236
28892WAT     H186918   1.754   6.719   1.191
28892WAT     H286919   1.665   6.817   1.285
28893WAT      O86920   5.291   9.677   6.128
28893WAT     H186921   5.193   9.694   6.133
28893WAT     H286922   5.314   9.647   6.035
28894WAT      O86923   0.092   6.138   8.616
28894WAT     H186924   0.026   6.211   8.599
28894WAT     H286925   0.185   6.175   8.609
28895WAT      O86926   3.895   7.086   4.375
28895WAT     H186927   3.880   6.990   4.350
28895WAT     H286928   3.981   7.095   4.425
28896WAT      O86929   0.542   4.273   8.953
28896WAT     H186930   0.624   4.219   8.975
28896WAT     H286931   0.493   4.295   9.037
28897WAT      O86932   4.586   1.223   6.321
28897WAT     H186933   4.637   1.137   6.329
28897WAT     H286934   4.584   1.269   6.410
28898WAT      O86935   6.344   6.777   0.281
28898WAT     H186936   6.384   6.806   0.368
28898WAT     H286937   6.332   6.857   0.222
28899WAT      O86938   6.066   8.823  -0.001
28899WAT     H186939   6.104   8.760   0.066
28899WAT     H286940   6.088   8.917   0.024
28900WAT      O86941   6.412   8.263   9.689
28900WAT     H186942   6.424   8.357   9.721
28900WAT     H286943   6.492   8.235   9.637
28901WAT      O86944   6.881   4.867   2.228
28901WAT     H186945   6.835   4.856   2.140
28901WAT     H286946   6.883   4.963   2.253
28902WAT      O86947   3.482   7.117   7.465
28902WAT     H186948   3.391   7.140   7.500
28902WAT     H286949   3.548   7.187   7.494
28903WAT      O86950   4.577   9.380   2.390
28903WAT     H186951   4.650   9.444   2.413
28903WAT     H286952   4.610   9.286   2.404
28904WAT      O86953   2.557   7.344   5.226
28904WAT     H186954   2.617   7.327   5.304
28904WAT     H286955   2.578   7.279   5.153
28905WAT      O86956   0.846   6.135   4.312
28905WAT     H186957   0.871   6.090   4.398
28905WAT     H286958   0.893   6.090   4.236
28906WAT      O86959   0.084   5.682   8.128
28906WAT     H186960   0.049   5.741   8.201
28906WAT     H286961   0.135   5.737   8.062
28907WAT      O86962   2.797   9.637   8.338
28907WAT     H186963   2.883   9.684   8.319
28907WAT     H286964   2.802   9.594   8.428
28908WAT      O86965   7.260   7.568   5.635
28908WAT     H186966   7.242   7.582   5.732
28908WAT     H286967   7.201   7.495   5.600
28909WAT      O86968   0.625   2.487   4.000
28909WAT     H186969   0.671   2.399   4.016
28909WAT     H286970   0.691   2.561   4.008
28910WAT      O86971   4.901   1.767   6.487
28910WAT     H186972   4.978   1.709   6.513
28910WAT     H286973   4.827   1.755   6.554
28911WAT      O86974   4.956   1.648   2.364
28911WAT     H186975   4.970   1.550   2.380
28911WAT     H286976   5.019   1.680   2.294
28912WAT      O86977   7.578   4.424   3.830
28912WAT     H186978   7.574   4.412   3.730
28912WAT     H286979   7.524   4.504   3.855
28913WAT      O86980   8.502   7.169   7.505
28913WAT     H186981   8.440   7.128   7.437
28913WAT     H286982   8.531   7.098   7.569
28914WAT      O86983   4.559   1.769   2.783
28914WAT     H186984   4.517   1.731   2.865
28914WAT     H286985   4.529   1.717   2.703
28915WAT      O86986   2.064   1.151   8.447
28915WAT     H186987   1.966   1.162   8.468
28915WAT     H286988   2.107   1.098   8.520
28916WAT      O86989   7.130   2.999   1.099
28916WAT     H186990   7.158   2.995   1.003
28916WAT     H286991   7.070   3.079   1.112
28917WAT      O86992   2.045   2.263   2.816
28917WAT     H186993   2.119   2.230   2.875
28917WAT     H286994   2.044   2.211   2.731
28918WAT      O86995   2.846   3.799   0.739
28918WAT     H186996   2.936   3.788   0.697
28918WAT     H286997   2.856   3.804   0.839
28919WAT      O86998   9.294   3.252   3.671
28919WAT     H186999   9.211   3.281   3.719
28919WAT     H287000   9.291   3.286   3.577
28920WAT      O87001   2.728   4.174   4.143
28920WAT     H187002   2.703   4.113   4.217
28920WAT     H287003   2.814   4.221   4.165
28921WAT      O87004   7.331   4.414   6.214
28921WAT     H187005   7.263   4.346   6.242
28921WAT     H287006   7.285   4.495   6.178
28922WAT      O87007   3.460   7.403   4.565
28922WAT     H187008   3.496   7.310   4.578
28922WAT     H287009   3.432   7.440   4.653
28923WAT      O87010   7.940   9.169   5.008
28923WAT     H187011   7.879   9.184   5.087
28923WAT     H287012   8.018   9.232   5.014
28924WAT      O87013   4.186   9.387   0.944
28924WAT     H187014   4.218   9.292   0.937
28924WAT     H287015   4.095   9.388   0.987
28925WAT      O87016   0.644   6.901   0.100
28925WAT     H187017   0.694   6.946   0.026
28925WAT     H287018   0.707   6.846   0.154
28926WAT      O87019   1.490   8.924   8.223
28926WAT     H187020   1.484   8.994   8.295
28926WAT     H287021   1.397   8.895   8.197
28927WAT      O87022   1.480   4.038   1.070
28927WAT     H187023   1.408   4.031   1.139
28927WAT     H287024   1.545   3.963   1.082
28928WAT      O87025   1.374   2.421   4.234
28928WAT     H187026   1.428   2.504   4.224
28928WAT     H287027   1.318   2.407   4.152
28929WAT      O87028   4.401   3.303   6.374
28929WAT     H187029   4.457   3.374   6.331
28929WAT     H287030   4.363   3.337   6.459
28930WAT      O87031   4.222   7.501   5.601
28930WAT     H187032   4.123   7.511   5.603
28930WAT     H287033   4.250   7.458   5.516
28931WAT      O87034   0.301   7.470   9.206
28931WAT     H187035   0.386   7.502   9.165
28931WAT     H287036   0.307   7.372   9.223
28932WAT      O87037   1.776   8.470   0.906
28932WAT     H187038   1.703   8.413   0.942
28932WAT     H287039   1.748   8.566   0.907
28933WAT      O87040   6.167   1.487   7.082
28933WAT     H187041   6.176   1.533   6.993
28933WAT     H287042   6.133   1.553   7.150
28934WAT      O87043   2.962   8.615   3.638
28934WAT     H187044   2.869   8.626   3.674
28934WAT     H287045   3.010   8.545   3.691
28935WAT      O87046   5.479   6.830   3.205
28935WAT     H187047   5.407   6.874   3.151
28935WAT     H287048   5.452   6.828   3.301
28936WAT      O87049   7.706   7.382   4.820
28936WAT     H187050   7.676   7.458   4.763
28936WAT     H287051   7.799   7.399   4.852
28937WAT      O87052   7.121   9.488   3.385
28937WAT     H187053   7.071   9.407   3.418
28937WAT     H287054   7.073   9.527   3.307
28938WAT      O87055   4.114   6.740   4.797
28938WAT     H187056   4.056   6.665   4.767
28938WAT     H287057   4.201   6.738   4.747
28939WAT      O87058   8.170   8.256   2.533
28939WAT     H187059   8.198   8.275   2.627
28939WAT     H287060   8.095   8.318   2.507
28940WAT      O87061   5.323   6.350   0.138
28940WAT     H187062   5.330   6.250   0.133
28940WAT     H287063   5.310   6.387   0.046
28941WAT      O87064   0.532   4.012   3.501
28941WAT     H187065   0.480   3.948   3.557
28941WAT     H287066   0.470   4.076   3.456
28942WAT      O87067   5.183   0.510   9.652
28942WAT     H187068   5.235   0.594   9.633
28942WAT     H287069   5.239   0.449   9.708
28943WAT      O87070   4.968   8.716   6.953
28943WAT     H187071   5.056   8.670   6.940
28943WAT     H287072   4.964   8.798   6.896
28944WAT      O87073   6.990   2.970   3.336
28944WAT     H187074   7.034   3.058   3.319
28944WAT     H287075   6.896   2.972   3.300
28945WAT      O87076   2.568   5.417   6.233
28945WAT     H187077   2.510   5.432   6.153
28945WAT     H287078   2.655   5.378   6.204
28946WAT      O87079   4.238   2.086   1.152
28946WAT     H187080   4.261   2.063   1.058
28946WAT     H287081   4.209   2.004   1.201
28947WAT      O87082   0.392   8.190   4.458
28947WAT     H187083   0.420   8.197   4.362
28947WAT     H287084   0.378   8.094   4.482
28948WAT      O87085   3.663   4.184   2.769
28948WAT     H187086   3.717   4.128   2.705
28948WAT     H287087   3.601   4.125   2.819
28949WAT      O87088   2.536   3.368   5.868
28949WAT     H187089   2.573   3.358   5.960
28949WAT     H287090   2.438   3.388   5.873
28950WAT      O87091   9.387   7.101   4.753
28950WAT     H187092   9.429   7.044   4.824
28950WAT     H287093   9.458   7.151   4.704
28951WAT      O87094   9.300   6.090   0.813
28951WAT     H187095   9.267   6.058   0.724
28951WAT     H287096   9.374   6.156   0.800
28952WAT      O87097   7.450   3.079   4.273
28952WAT     H187098   7.522   3.147   4.286
28952WAT     H287099   7.483   2.989   4.303
28953WAT      O87100   3.506   6.210   5.842
28953WAT     H187101   3.592   6.199   5.793
28953WAT     H287102   3.430   6.182   5.784
28954WAT      O87103   5.782   9.267   0.529
28954WAT     H187104   5.815   9.333   0.597
28954WAT     H287105   5.732   9.194   0.576
28955WAT      O87106   7.178   4.401   4.005
28955WAT     H187107   7.219   4.366   3.921
28955WAT     H287108   7.085   4.366   4.015
28956WAT      O87109   2.524   2.232   1.988
28956WAT     H187110   2.545   2.278   2.074
28956WAT     H287111   2.426   2.243   1.967
28957WAT      O87112   4.433   2.961   4.698
28957WAT     H187113   4.399   3.016   4.622
28957WAT     H287114   4.356   2.917   4.744
28958WAT      O87115   4.404   8.172   6.714
28958WAT     H187116   4.478   8.206   6.772
28958WAT     H287117   4.428   8.184   6.618
28959WAT      O87118   7.531   0.010   1.455
28959WAT     H187119   7.447   0.012   1.510
28959WAT     H287120   7.577   0.099   1.463
28960WAT      O87121   9.388   9.837   6.354
28960WAT     H187122   9.444   9.862   6.432
28960WAT     H287123   9.356   9.919   6.307
28961WAT      O87124   1.533   5.603   6.561
28961WAT     H187125   1.524   5.611   6.462
28961WAT     H287126   1.463   5.658   6.606
28962WAT      O87127   1.959   3.140   0.621
28962WAT     H187128   1.898   3.077   0.574
28962WAT     H287129   2.035   3.089   0.662
28963WAT      O87130   3.091   5.362   2.487
28963WAT     H187131   3.074   5.353   2.585
28963WAT     H287132   3.095   5.271   2.446
28964WAT      O87133   2.568   4.982   3.171
28964WAT     H187134   2.479   4.952   3.204
28964WAT     H287135   2.625   4.902   3.150
28965WAT      O87136   5.965   2.835   7.368
28965WAT     H187137   5.867   2.813   7.364
28965WAT     H287138   5.982   2.896   7.445
28966WAT      O87139   9.622   1.277   7.285
28966WAT     H187140   9.619   1.330   7.200
28966WAT     H287141   9.637   1.339   7.362
28967WAT      O87142   6.580   3.954   1.116
28967WAT     H187143   6.599   4.052   1.128
28967WAT     H287144   6.618   3.923   1.029
28968WAT      O87145   9.068   3.238   7.454
28968WAT     H187146   9.134   3.274   7.389
28968WAT     H287147   9.052   3.304   7.527
28969WAT      O87148   2.431   6.374   4.410
28969WAT     H187149   2.469   6.314   4.480
28969WAT     H287150   2.471   6.466   4.420
28970WAT      O87151   4.784   6.338   1.004
28970WAT     H187152   4.747   6.251   1.037
28970WAT     H287153   4.884   6.329   0.995
28971WAT      O87154   9.803   0.746   8.547
28971WAT     H187155   9.860   0.823   8.518
28971WAT     H287156   9.715   0.750   8.500
28972WAT      O87157   6.527   7.382   6.500
28972WAT     H187158   6.518   7.466   6.554
28972WAT     H287159   6.615   7.383   6.452
28973WAT      O87160   1.445   3.103   1.527
28973WAT     H187161   1.414   3.119   1.621
28973WAT     H287162   1.446   3.190   1.477
28974WAT      O87163   0.395   2.006   8.505
28974WAT     H187164   0.335   2.076   8.466
28974WAT     H287165   0.383   1.920   8.454
28975WAT      O87166   1.371   1.260   3.787
28975WAT     H187167   1.413   1.330   3.846
28975WAT     H287168   1.334   1.187   3.844
28976WAT      O87169   1.675   8.364   5.808
28976WAT     H187170   1.754   8.381   5.749
28976WAT     H287171   1.608   8.437   5.795
28977WAT      O87172   9.709   8.526   8.529
28977WAT     H187173   9.717   8.624   8.547
28977WAT     H287174   9.671   8.512   8.438
28978WAT      O87175   9.759   8.128   4.521
28978WAT     H187176   9.781   8.211   4.469
28978WAT     H287177   9.679   8.143   4.578
28979WAT      O87178   5.317   2.440   7.749
28979WAT     H187179   5.393   2.456   7.812
28979WAT     H287180   5.254   2.374   7.788
28980WAT      O87181   9.118   5.575   7.822
28980WAT     H187182   9.028   5.605   7.853
28980WAT     H287183   9.112   5.547   7.726
28981WAT      O87184   2.108   8.854   3.236
28981WAT     H187185   2.131   8.776   3.294
28981WAT     H287186   2.079   8.930   3.292
28982WAT      O87187   4.006   0.802   1.710
28982WAT     H187188   4.066   0.861   1.656
28982WAT     H287189   3.921   0.850   1.731
28983WAT      O87190   6.336   2.591   6.383
28983WAT     H187191   6.414   2.653   6.388
28983WAT     H287192   6.251   2.643   6.396
28984WAT      O87193   6.623   6.776   7.963
28984WAT     H187194   6.594   6.688   7.927
28984WAT     H287195   6.696   6.813   7.905
28985WAT      O87196   3.833   2.644   7.631
28985WAT     H187197   3.869   2.733   7.608
28985WAT     H287198   3.733   2.644   7.621
28986WAT      O87199   2.655   7.838   0.103
28986WAT     H187200   2.743   7.853   0.058
28986WAT     H287201   2.581   7.851   0.037
28987WAT      O87202   3.178   0.669   5.988
28987WAT     H187203   3.168   0.572   5.967
28987WAT     H287204   3.099   0.719   5.953
28988WAT      O87205   1.818   7.446   9.267
28988WAT     H187206   1.875   7.514   9.221
28988WAT     H287207   1.751   7.494   9.325
28989WAT      O87208   7.463   8.255   4.923
28989WAT     H187209   7.382   8.268   4.980
28989WAT     H287210   7.470   8.159   4.897
28990WAT      O87211   4.514   4.056   8.734
28990WAT     H187212   4.583   3.994   8.771
28990WAT     H287213   4.508   4.138   8.791
28991WAT      O87214   7.806   6.678   7.028
28991WAT     H187215   7.861   6.622   7.090
28991WAT     H287216   7.729   6.717   7.078
28992WAT      O87217   0.766   0.883   7.372
28992WAT     H187218   0.703   0.960   7.380
28992WAT     H287219   0.717   0.802   7.339
28993WAT      O87220   8.222   5.441   1.718
28993WAT     H187221   8.268   5.475   1.636
28993WAT     H287222   8.288   5.430   1.792
28994WAT      O87223   8.292   0.333   2.024
28994WAT     H187224   8.233   0.266   2.069
28994WAT     H287225   8.251   0.424   2.032
28995WAT      O87226   5.501   9.551   5.549
28995WAT     H187227   5.466   9.643   5.567
28995WAT     H287228   5.563   9.554   5.470
28996WAT      O87229   2.239   2.715   9.746
28996WAT     H187230   2.264   2.690   9.653
28996WAT     H287231   2.221   2.633   9.799
28997WAT      O87232   1.554   8.312   1.419
28997WAT     H187233   1.560   8.328   1.518
28997WAT     H287234   1.588   8.392   1.370
28998WAT      O87235   1.101   2.874   5.825
28998WAT     H187236   1.041   2.795   5.815
28998WAT     H287237   1.187   2.857   5.778
28999WAT      O87238   8.611   8.154   0.108
28999WAT     H187239   8.577   8.103   0.187
28999WAT     H287240   8.576   8.247   0.111
29000WAT      O87241   6.365   0.728   7.361
29000WAT     H187242   6.346   0.700   7.456
29000WAT     H287243   6.316   0.668   7.298
29001WAT      O87244   4.641   4.680   2.933
29001WAT     H187245   4.655   4.600   2.991
29001WAT     H287246   4.726   4.731   2.925
29002WAT      O87247   9.629   8.317   5.552
29002WAT     H187248   9.606   8.257   5.475
29002WAT     H287249   9.545   8.354   5.592
29003WAT      O87250   6.966   4.721   2.719
29003WAT     H187251   6.972   4.631   2.675
29003WAT     H287252   6.945   4.709   2.816
29004WAT      O87253   4.070   9.233   8.493
29004WAT     H187254   4.097   9.202   8.584
29004WAT     H287255   4.120   9.316   8.469
29005WAT      O87256   3.990   6.053   1.148
29005WAT     H187257   4.032   6.119   1.086
29005WAT     H287258   3.917   6.097   1.199
29006WAT      O87259   4.655   1.085   6.815
29006WAT     H187260   4.663   0.986   6.829
29006WAT     H287261   4.562   1.107   6.787
29007WAT      O87262   8.739   7.786   7.050
29007WAT     H187263   8.726   7.687   7.039
29007WAT     H287264   8.779   7.804   7.140
29008WAT      O87265   4.730   2.715   8.436
29008WAT     H187266   4.707   2.777   8.511
29008WAT     H287267   4.825   2.686   8.445
29009WAT      O87268   3.160   0.500   0.126
29009WAT     H187269   3.252   0.540   0.131
29009WAT     H287270   3.121   0.496   0.218
29010WAT      O87271   0.490   2.613   4.215
29010WAT     H187272   0.537   2.556   4.147
29010WAT     H287273   0.535   2.603   4.303
29011WAT      O87274   6.264   9.600   5.925
29011WAT     H187275   6.341   9.648   5.966
29011WAT     H287276   6.297   9.530   5.862
29012WAT      O87277   1.484   6.832   1.935
29012WAT     H187278   1.553   6.888   1.890
29012WAT     H287279   1.485   6.740   1.895
29013WAT      O87280   9.884   7.275   6.161
29013WAT     H187281   9.794   7.250   6.196
29013WAT     H287282   9.874   7.332   6.080
29014WAT      O87283   4.104   3.297   2.368
29014WAT     H187284   4.080   3.222   2.430
29014WAT     H287285   4.201   3.319   2.379
29015WAT      O87286   7.155   6.166   3.820
29015WAT     H187287   7.239   6.172   3.766
29015WAT     H287288   7.178   6.142   3.914
29016WAT      O87289   4.167   2.933   7.711
29016WAT     H187290   4.209   2.910   7.798
29016WAT     H287291   4.178   3.030   7.692
29017WAT      O87292   3.496   1.212   5.526
29017WAT     H187293   3.590   1.185   5.508
29017WAT     H287294   3.478   1.301   5.484
29018WAT      O87295   8.919   8.247   1.626
29018WAT     H187296   8.836   8.193   1.610
29018WAT     H287297   8.999   8.188   1.618
29019WAT      O87298   1.034   8.407   3.733
29019WAT     H187299   0.959   8.409   3.667
29019WAT     H287300   1.085   8.321   3.724
29020WAT      O87301   6.217   0.992   2.146
29020WAT     H187302   6.217   0.929   2.223
29020WAT     H287303   6.311   1.023   2.128
29021WAT      O87304   8.205   5.090   1.677
29021WAT     H187305   8.205   5.030   1.597
29021WAT     H287306   8.287   5.148   1.674
29022WAT      O87307   5.115   6.313   1.634
29022WAT     H187308   5.109   6.235   1.572
29022WAT     H287309   5.182   6.379   1.599
29023WAT      O87310   0.255   6.059   4.904
29023WAT     H187311   0.222   6.128   4.968
29023WAT     H287312   0.219   5.970   4.929
29024WAT      O87313   8.788   4.478   7.003
29024WAT     H187314   8.721   4.540   6.962
29024WAT     H287315   8.755   4.384   6.998
29025WAT      O87316   2.919   3.469   7.242
29025WAT     H187317   2.965   3.541   7.294
29025WAT     H287318   2.824   3.497   7.224
29026WAT      O87319   1.876   4.726   8.873
29026WAT     H187320   1.802   4.664   8.899
29026WAT     H287321   1.953   4.714   8.936
29027WAT      O87322   0.106   2.107   2.767
29027WAT     H187323   0.188   2.149   2.728
29027WAT     H287324   0.127   2.016   2.801
29028WAT      O87325   3.894   6.791   9.131
29028WAT     H187326   3.904   6.838   9.218
29028WAT     H287327   3.912   6.694   9.142
29029WAT      O87328   8.991   6.308   5.463
29029WAT     H187329   8.915   6.268   5.515
29029WAT     H287330   9.028   6.386   5.515
29030WAT      O87331   5.281   7.678   8.825
29030WAT     H187332   5.217   7.725   8.764
29030WAT     H287333   5.253   7.583   8.836
29031WAT      O87334   5.287   2.397   5.107
29031WAT     H187335   5.377   2.428   5.074
29031WAT     H287336   5.223   2.474   5.105
29032WAT      O87337   3.760   7.622   3.955
29032WAT     H187338   3.838   7.618   4.017
29032WAT     H287339   3.732   7.717   3.944
29033WAT      O87340   1.758   7.070   4.156
29033WAT     H187341   1.816   7.096   4.234
29033WAT     H287342   1.815   7.052   4.076
29034WAT      O87343   7.060   0.022   3.637
29034WAT     H187344   7.075  -0.075   3.653
29034WAT     H287345   7.005   0.034   3.554
29035WAT      O87346   8.112   6.892   7.274
29035WAT     H187347   8.036   6.837   7.309
29035WAT     H287348   8.145   6.853   7.188
29036WAT      O87349   3.295   7.747   9.773
29036WAT     H187350   3.380   7.726   9.724
29036WAT     H287351   3.308   7.829   9.828
29037WAT      O87352   6.725   2.323   4.465
29037WAT     H187353   6.635   2.328   4.507
29037WAT     H287354   6.794   2.311   4.536
29038WAT      O87355   2.229   2.467   9.200
29038WAT     H187356   2.328   2.479   9.198
29038WAT     H287357   2.206   2.373   9.176
29039WAT      O87358   3.427   5.199   1.910
29039WAT     H187359   3.372   5.196   1.827
29039WAT     H287360   3.366   5.209   1.989
29040WAT      O87361   2.367   8.337   7.344
29040WAT     H187362   2.294   8.269   7.342
29040WAT     H287363   2.453   8.293   7.372
29041WAT      O87364   0.885   3.306   9.541
29041WAT     H187365   0.976   3.278   9.572
29041WAT     H287366   0.845   3.233   9.485
29042WAT      O87367   7.113   0.320   8.961
29042WAT     H187368   7.168   0.239   8.943
29042WAT     H287369   7.125   0.350   9.055
29043WAT      O87370   1.899   7.559   8.278
29043WAT     H187371   1.896   7.525   8.184
29043WAT     H287372   1.806   7.575   8.311
29044WAT      O87373   1.718   4.700   0.359
29044WAT     H187374   1.702   4.649   0.275
29044WAT     H287375   1.758   4.640   0.428
29045WAT      O87376   7.123   6.346   6.065
29045WAT     H187377   7.161   6.278   6.127
29045WAT     H287378   7.192   6.371   5.996
29046WAT      O87379   5.189   7.512   2.468
29046WAT     H187380   5.253   7.578   2.507
29046WAT     H287381   5.183   7.525   2.369
29047WAT      O87382   2.435   2.983   5.793
29047WAT     H187383   2.506   2.922   5.827
29047WAT     H287384   2.359   2.985   5.858
29048WAT      O87385   7.249   9.297   0.564
29048WAT     H187386   7.221   9.392   0.579
29048WAT     H287387   7.304   9.291   0.480
29049WAT      O87388   9.422   3.767   3.415
29049WAT     H187389   9.408   3.840   3.482
29049WAT     H287390   9.339   3.713   3.405
29050WAT      O87391   4.462   9.342   0.214
29050WAT     H187392   4.406   9.277   0.265
29050WAT     H287393   4.403   9.415   0.178
29051WAT      O87394   5.594   7.426   3.551
29051WAT     H187395   5.553   7.342   3.517
29051WAT     H287396   5.633   7.477   3.474
29052WAT      O87397   3.822   6.675   3.589
29052WAT     H187398   3.921   6.685   3.583
29052WAT     H287399   3.784   6.746   3.648
29053WAT      O87400   9.058   9.622   4.819
29053WAT     H187401   9.092   9.535   4.783
29053WAT     H287402   9.105   9.698   4.773
29054WAT      O87403   0.847   8.452   4.739
29054WAT     H187404   0.938   8.483   4.709
29054WAT     H287405   0.778   8.487   4.675
29055WAT      O87406   4.056   4.414   8.264
29055WAT     H187407   4.128   4.372   8.320
29055WAT     H287408   4.092   4.492   8.215
29056WAT      O87409   0.212   5.481   9.115
29056WAT     H187410   0.273   5.451   9.188
29056WAT     H287411   0.120   5.444   9.130
29057WAT      O87412   5.030   0.823   2.652
29057WAT     H187413   5.082   0.849   2.734
29057WAT     H287414   5.020   0.723   2.650
29058WAT      O87415   9.651   9.709   4.878
29058WAT     H187416   9.684   9.615   4.868
29058WAT     H287417   9.551   9.709   4.873
29059WAT      O87418   9.385   6.128   2.200
29059WAT     H187419   9.469   6.144   2.149
29059WAT     H287420   9.355   6.033   2.187
29060WAT      O87421   6.009   4.769   8.095
29060WAT     H187422   5.946   4.780   8.018
29060WAT     H287423   5.959   4.737   8.175
29061WAT      O87424   3.537   6.032   0.357
29061WAT     H187425   3.555   5.937   0.333
29061WAT     H287426   3.449   6.040   0.403
29062WAT      O87427   8.402   2.297   6.934
29062WAT     H187428   8.313   2.259   6.961
29062WAT     H287429   8.419   2.278   6.838
29063WAT      O87430   2.871   7.862   3.919
29063WAT     H187431   2.812   7.854   3.999
29063WAT     H287432   2.881   7.958   3.895
29064WAT      O87433   7.096   1.631   6.131
29064WAT     H187434   7.113   1.535   6.154
29064WAT     H287435   7.057   1.637   6.040
29065WAT      O87436   8.411   2.875   0.470
29065WAT     H187437   8.451   2.964   0.489
29065WAT     H287438   8.431   2.848   0.375
29066WAT      O87439   8.032   7.652   1.909
29066WAT     H187440   8.049   7.614   1.818
29066WAT     H287441   7.938   7.633   1.936
29067WAT      O87442   3.348   8.697   7.095
29067WAT     H187443   3.264   8.710   7.147
29067WAT     H287444   3.338   8.738   7.004
29068WAT      O87445   9.545   4.656   8.869
29068WAT     H187446   9.628   4.603   8.886
29068WAT     H287447   9.482   4.646   8.946
29069WAT      O87448   7.140   2.325   5.003
29069WAT     H187449   7.151   2.338   4.904
29069WAT     H287450   7.073   2.390   5.038
29070WAT      O87451   0.100   8.518   9.438
29070WAT     H187452   0.093   8.552   9.532
29070WAT     H287453   0.033   8.446   9.423
29071WAT      O87454   0.621   6.452   9.843
29071WAT     H187455   0.574   6.540   9.850
29071WAT     H287456   0.713   6.467   9.807
29072WAT      O87457   7.127   4.269   8.419
29072WAT     H187458   7.079   4.196   8.370
29072WAT     H287459   7.224   4.266   8.395
29073WAT      O87460   6.162   3.607   1.840
29073WAT     H187461   6.175   3.523   1.893
29073WAT     H287462   6.069   3.640   1.853
29074WAT      O87463   5.791   0.993   5.885
29074WAT     H187464   5.710   0.935   5.895
29074WAT     H287465   5.803   1.017   5.789
29075WAT      O87466   3.644   5.256   0.312
29075WAT     H187467   3.619   5.191   0.240
29075WAT     H287468   3.568   5.318   0.328
29076WAT      O87469   9.343   6.843   0.051
29076WAT     H187470   9.421   6.787   0.023
29076WAT     H287471   9.332   6.920  -0.012
29077WAT      O87472   4.678   6.097   1.109
29077WAT     H187473   4.620   6.034   1.056
29077WAT     H287474   4.771   6.060   1.115
29078WAT      O87475   9.785   4.672   0.272
29078WAT     H187476   9.764   4.575   0.256
29078WAT     H287477   9.804   4.686   0.369
29079WAT      O87478   2.276   2.867   3.638
29079WAT     H187479   2.296   2.946   3.580
29079WAT     H287480   2.216   2.804   3.588
29080WAT      O87481   7.991   7.938   4.048
29080WAT     H187482   7.995   7.854   3.993
29080WAT     H287483   7.895   7.968   4.054
29081WAT      O87484   6.690   3.916   4.632
29081WAT     H187485   6.698   3.941   4.729
29081WAT     H287486   6.612   3.965   4.592
29082WAT      O87487   7.543   1.099   4.253
29082WAT     H187488   7.549   1.199   4.246
29082WAT     H287489   7.523   1.074   4.348
29083WAT      O87490   0.874   9.559   5.702
29083WAT     H187491   0.807   9.630   5.680
29083WAT     H287492   0.829   9.482   5.746
29084WAT      O87493   3.968   3.635   6.462
29084WAT     H187494   4.019   3.550   6.477
29084WAT     H287495   3.875   3.624   6.498
29085WAT      O87496   2.669   8.096   8.475
29085WAT     H187497   2.703   8.168   8.535
29085WAT     H287498   2.657   8.012   8.528
29086WAT      O87499   2.138   4.037   5.760
29086WAT     H187500   2.230   4.074   5.750
29086WAT     H287501   2.104   4.057   5.852
29087WAT      O87502   5.547   2.703   5.170
29087WAT     H187503   5.512   2.687   5.263
29087WAT     H287504   5.501   2.782   5.130
29088WAT      O87505   8.910   3.000   0.937
29088WAT     H187506   8.987   2.937   0.924
29088WAT     H287507   8.914   3.072   0.868
29089WAT      O87508   1.867   1.784   8.355
29089WAT     H187509   1.831   1.700   8.394
29089WAT     H287510   1.963   1.795   8.381
29090WAT      O87511   6.460   7.684   5.114
29090WAT     H187512   6.462   7.670   5.015
29090WAT     H287513   6.415   7.771   5.134
29091WAT      O87514   1.176   3.976   8.603
29091WAT     H187515   1.227   4.013   8.525
29091WAT     H287516   1.169   4.045   8.674
29092WAT      O87517   2.458   4.149   5.534
29092WAT     H187518   2.389   4.124   5.466
29092WAT     H287519   2.412   4.179   5.618
29093WAT      O87520   9.219   3.253   5.680
29093WAT     H187521   9.248   3.166   5.721
29093WAT     H287522   9.127   3.276   5.713
29094WAT      O87523   0.921   7.419   0.408
29094WAT     H187524   0.943   7.332   0.452
29094WAT     H287525   0.850   7.466   0.460
29095WAT      O87526   7.823   1.160   1.127
29095WAT     H187527   7.770   1.132   1.207
29095WAT     H287528   7.919   1.138   1.141
29096WAT      O87529   2.331   8.295   5.602
29096WAT     H187530   2.410   8.355   5.595
29096WAT     H287531   2.272   8.307   5.522
29097WAT      O87532   8.499   5.511   5.028
29097WAT     H187533   8.487   5.592   5.085
29097WAT     H287534   8.567   5.531   4.957
29098WAT      O87535   8.891   0.797   2.990
29098WAT     H187536   8.826   0.721   2.996
29098WAT     H287537   8.976   0.772   3.037
29099WAT      O87538   9.075   0.507   9.687
29099WAT     H187539   9.124   0.421   9.697
29099WAT     H287540   9.120   0.578   9.741
29100WAT      O87541   8.578   5.132   2.144
29100WAT     H187542   8.506   5.110   2.079
29100WAT     H287543   8.667   5.106   2.107
29101WAT      O87544   4.237   1.345   0.112
29101WAT     H187545   4.176   1.383   0.042
29101WAT     H287546   4.259   1.416   0.179
29102WAT      O87547   7.619   4.758   3.626
29102WAT     H187548   7.666   4.841   3.656
29102WAT     H287549   7.638   4.742   3.529
29103WAT      O87550   9.236   9.835   9.116
29103WAT     H187551   9.187   9.870   9.036
29103WAT     H287552   9.222   9.736   9.123
29104WAT      O87553   3.865   2.740   3.013
29104WAT     H187554   3.827   2.649   3.028
29104WAT     H287555   3.796   2.810   3.034
29105WAT      O87556   9.762   5.944   9.297
29105WAT     H187557   9.794   6.003   9.223
29105WAT     H287558   9.669   5.912   9.276
29106WAT      O87559   4.416   9.286   8.835
29106WAT     H187560   4.470   9.214   8.880
29106WAT     H287561   4.441   9.291   8.738
29107WAT      O87562   7.535   3.651   1.366
29107WAT     H187563   7.586   3.565   1.364
29107WAT     H287564   7.593   3.723   1.404
29108WAT      O87565   2.458   8.642   1.494
29108WAT     H187566   2.452   8.557   1.545
29108WAT     H287567   2.463   8.719   1.558
29109WAT      O87568   8.927   9.087   2.803
29109WAT     H187569   8.896   9.096   2.898
29109WAT     H287570   8.902   9.169   2.752
29110WAT      O87571   8.291   9.447   0.718
29110WAT     H187572   8.345   9.444   0.803
29110WAT     H287573   8.201   9.406   0.735
29111WAT      O87574   7.633   1.862   1.174
29111WAT     H187575   7.701   1.935   1.172
29111WAT     H287576   7.639   1.813   1.261
29112WAT      O87577   3.279   4.409   3.004
29112WAT     H187578   3.266   4.388   2.907
29112WAT     H287579   3.365   4.457   3.017
29113WAT      O87580   6.063   8.179   8.721
29113WAT     H187581   5.973   8.161   8.680
29113WAT     H287582   6.082   8.277   8.716
29114WAT      O87583   6.287   2.349   8.493
29114WAT     H187584   6.385   2.336   8.477
29114WAT     H287585   6.250   2.268   8.539
29115WAT      O87586   4.070   7.200   1.077
29115WAT     H187587   4.169   7.195   1.080
29115WAT     H287588   4.031   7.109   1.096
29116WAT      O87589   3.272   9.225   6.070
29116WAT     H187590   3.200   9.178   6.018
29116WAT     H287591   3.250   9.323   6.075
29117WAT      O87592   3.745   2.395   4.018
29117WAT     H187593   3.654   2.435   4.006
29117WAT     H287594   3.813   2.452   3.972
29118WAT      O87595   4.607   2.851   7.305
29118WAT     H187596   4.522   2.851   7.253
29118WAT     H287597   4.590   2.884   7.398
29119WAT      O87598   1.012   8.921   6.389
29119WAT     H187599   1.013   8.906   6.291
29119WAT     H287600   1.092   8.877   6.431
29120WAT      O87601   7.011   8.523   3.548
29120WAT     H187602   7.044   8.605   3.595
29120WAT     H287603   6.912   8.515   3.560
29121WAT      O87604   9.442   3.389   5.764
29121WAT     H187605   9.361   3.331   5.749
29121WAT     H287606   9.435   3.433   5.853
29122WAT      O87607   6.189   3.946   6.399
29122WAT     H187608   6.228   3.854   6.403
29122WAT     H287609   6.090   3.941   6.410
29123WAT      O87610   4.232   0.360   0.596
29123WAT     H187611   4.162   0.306   0.643
29123WAT     H287612   4.188   0.416   0.525
29124WAT      O87613   0.869   1.936   4.530
29124WAT     H187614   0.893   1.883   4.448
29124WAT     H287615   0.933   1.914   4.604
29125WAT      O87616   6.067   7.495   6.104
29125WAT     H187617   6.129   7.416   6.097
29125WAT     H287618   6.092   7.563   6.035
29126WAT      O87619   2.991   9.052   5.287
29126WAT     H187620   2.986   9.139   5.337
29126WAT     H287621   2.923   9.052   5.214
29127WAT      O87622   7.506   7.974   7.816
29127WAT     H187623   7.446   7.900   7.784
29127WAT     H287624   7.486   7.993   7.913
29128WAT      O87625   9.593   8.822   9.210
29128WAT     H187626   9.630   8.732   9.233
29128WAT     H287627   9.588   8.832   9.111
29129WAT      O87628   8.934   5.454   4.223
29129WAT     H187629   8.843   5.493   4.232
29129WAT     H287630   8.927   5.358   4.198
29130WAT      O87631   4.446   1.770   8.406
29130WAT     H187632   4.362   1.716   8.411
29130WAT     H287633   4.525   1.710   8.415
29131WAT      O87634   6.377   7.801   4.580
29131WAT     H187635   6.339   7.891   4.598
29131WAT     H287636   6.304   7.739   4.551
29132WAT      O87637   8.387   1.663   3.233
29132WAT     H187638   8.320   1.680   3.305
29132WAT     H287639   8.340   1.641   3.147
29133WAT      O87640   2.682   7.697   7.554
29133WAT     H187641   2.670   7.599   7.539
29133WAT     H287642   2.780   7.719   7.553
29134WAT      O87643   4.866   6.357   1.754
29134WAT     H187644   4.818   6.270   1.756
29134WAT     H287645   4.953   6.346   1.705
29135WAT      O87646   8.935   2.306   1.748
29135WAT     H187647   8.950   2.323   1.846
29135WAT     H287648   8.970   2.383   1.695
29136WAT      O87649   5.121   4.113   4.994
29136WAT     H187650   5.208   4.064   5.001
29136WAT     H287651   5.088   4.107   4.900
29137WAT      O87652   5.200   1.983   3.835
29137WAT     H187653   5.226   1.898   3.881
29137WAT     H287654   5.242   1.987   3.745
29138WAT      O87655   3.142   4.160   1.152
29138WAT     H187656   3.199   4.116   1.082
29138WAT     H287657   3.129   4.256   1.128
29139WAT      O87658   8.373   5.353   6.750
29139WAT     H187659   8.297   5.390   6.803
29139WAT     H287660   8.350   5.260   6.721
29140WAT      O87661   5.413   5.861   8.372
29140WAT     H187662   5.403   5.838   8.469
29140WAT     H287663   5.468   5.791   8.326
29141WAT      O87664   3.294   5.247   0.566
29141WAT     H187665   3.336   5.288   0.647
29141WAT     H287666   3.323   5.151   0.558
29142WAT      O87667   7.224   7.399   0.686
29142WAT     H187668   7.168   7.323   0.718
29142WAT     H287669   7.185   7.436   0.602
29143WAT      O87670   1.447   1.658   6.084
29143WAT     H187671   1.475   1.682   6.177
29143WAT     H287672   1.507   1.586   6.049
29144WAT      O87673   2.859   7.711   1.239
29144WAT     H187674   2.900   7.633   1.286
29144WAT     H287675   2.929   7.758   1.186
29145WAT      O87676   3.547   6.450   7.968
29145WAT     H187677   3.603   6.468   8.049
29145WAT     H287678   3.485   6.527   7.953
29146WAT      O87679   5.442   6.454   7.897
29146WAT     H187680   5.504   6.376   7.908
29146WAT     H287681   5.489   6.538   7.925
29147WAT      O87682   0.061   8.801   2.871
29147WAT     H187683   0.085   8.787   2.967
29147WAT     H287684   0.012   8.720   2.837
29148WAT      O87685   4.687   4.961   1.728
29148WAT     H187686   4.631   4.881   1.706
29148WAT     H287687   4.751   4.937   1.801
29149WAT      O87688   1.381   3.715   0.922
29149WAT     H187689   1.461   3.759   0.964
29149WAT     H287690   1.408   3.676   0.834
29150WAT      O87691   1.095   4.241   7.999
29150WAT     H187692   1.002   4.258   8.031
29150WAT     H287693   1.097   4.155   7.947
29151WAT      O87694   6.042   8.606   6.429
29151WAT     H187695   6.106   8.646   6.364
29151WAT     H287696   5.951   8.645   6.415
29152WAT      O87697   9.665   9.342   3.402
29152WAT     H187698   9.669   9.327   3.501
29152WAT     H287699   9.631   9.434   3.384
29153WAT      O87700   1.200   0.958   2.215
29153WAT     H187701   1.159   0.953   2.306
29153WAT     H287702   1.264   0.883   2.203
29154WAT      O87703   0.298   9.149   4.402
29154WAT     H187704   0.310   9.248   4.401
29154WAT     H287705   0.207   9.127   4.436
29155WAT      O87706   7.737   2.744   3.889
29155WAT     H187707   7.639   2.735   3.868
29155WAT     H287708   7.750   2.809   3.963
29156WAT      O87709   1.461   6.744   0.200
29156WAT     H187710   1.531   6.673   0.191
29156WAT     H287711   1.466   6.784   0.292
29157WAT      O87712   1.459   0.277   4.737
29157WAT     H187713   1.554   0.249   4.752
29157WAT     H287714   1.430   0.336   4.813
29158WAT      O87715   9.849   3.964   4.358
29158WAT     H187716   9.917   3.908   4.405
29158WAT     H287717   9.779   3.906   4.317
29159WAT      O87718   4.516   8.376   2.965
29159WAT     H187719   4.508   8.368   3.064
29159WAT     H287720   4.574   8.302   2.931
29160WAT      O87721   0.911   1.757   9.193
29160WAT     H187722   0.985   1.720   9.250
29160WAT     H287723   0.934   1.743   9.096
29161WAT      O87724   0.181   8.215   3.380
29161WAT     H187725   0.090   8.255   3.394
29161WAT     H287726   0.176   8.116   3.390
29162WAT      O87727   3.575   8.722   3.783
29162WAT     H187728   3.476   8.709   3.786
29162WAT     H287729   3.607   8.710   3.689
29163WAT      O87730   6.939   5.605   1.936
29163WAT     H187731   7.016   5.608   1.873
29163WAT     H287732   6.973   5.605   2.030
29164WAT      O87733   7.847   6.440   1.741
29164WAT     H187734   7.902   6.416   1.661
29164WAT     H287735   7.764   6.487   1.712
29165WAT      O87736   9.797   6.779   2.333
29165WAT     H187737   9.762   6.868   2.303
29165WAT     H287738   9.851   6.739   2.259
29166WAT      O87739   8.464   6.659   2.482
29166WAT     H187740   8.386   6.596   2.483
29166WAT     H287741   8.443   6.736   2.422
29167WAT      O87742   6.370   2.985   3.585
29167WAT     H187743   6.345   2.899   3.628
29167WAT     H287744   6.427   2.967   3.505
29168WAT      O87745   9.716   5.826   0.566
29168WAT     H187746   9.637   5.809   0.506
29168WAT     H287747   9.789   5.763   0.543
29169WAT      O87748   4.726   3.486   0.519
29169WAT     H187749   4.744   3.409   0.458
29169WAT     H287750   4.643   3.533   0.489
29170WAT      O87751   6.132   5.003   6.392
29170WAT     H187752   6.166   5.092   6.422
29170WAT     H287753   6.069   5.015   6.316
29171WAT      O87754   1.105   1.200   9.383
29171WAT     H187755   1.142   1.207   9.290
29171WAT     H287756   1.050   1.280   9.404
29172WAT      O87757   8.862   1.411   4.586
29172WAT     H187758   8.902   1.348   4.519
29172WAT     H287759   8.932   1.439   4.651
29173WAT      O87760   7.972   4.124   9.462
29173WAT     H187761   7.892   4.179   9.438
29173WAT     H287762   7.982   4.122   9.561
29174WAT      O87763   9.200   9.641   6.387
29174WAT     H187764   9.159   9.582   6.317
29174WAT     H287765   9.250   9.715   6.344
29175WAT      O87766   0.674   7.859   9.854
29175WAT     H187767   0.686   7.821   9.947
29175WAT     H287768   0.598   7.923   9.854
29176WAT      O87769   1.749   6.139   2.698
29176WAT     H187770   1.766   6.131   2.600
29176WAT     H287771   1.786   6.059   2.745
29177WAT      O87772   4.252   5.552   1.513
29177WAT     H187773   4.238   5.496   1.432
29177WAT     H287774   4.307   5.632   1.490
29178WAT      O87775   3.548   6.996   4.311
29178WAT     H187776   3.515   6.913   4.356
29178WAT     H287777   3.511   7.076   4.357
29179WAT      O87778   9.081   8.190   5.445
29179WAT     H187779   9.111   8.285   5.433
29179WAT     H287780   8.999   8.188   5.501
29180WAT      O87781   3.291   3.520   5.652
29180WAT     H187782   3.192   3.520   5.659
29180WAT     H287783   3.325   3.614   5.657
29181WAT      O87784   5.966   6.558   4.549
29181WAT     H187785   5.891   6.589   4.490
29181WAT     H287786   6.028   6.634   4.566
29182WAT      O87787   7.684   2.363   4.728
29182WAT     H187788   7.692   2.275   4.773
29182WAT     H287789   7.683   2.436   4.796
29183WAT      O87790   1.157   0.628   1.989
29183WAT     H187791   1.062   0.657   1.986
29183WAT     H287792   1.206   0.662   1.909
29184WAT      O87793   0.860   6.061   5.573
29184WAT     H187794   0.936   6.110   5.530
29184WAT     H287795   0.792   6.036   5.504
29185WAT      O87796   5.937   1.913   7.278
29185WAT     H187797   5.986   1.858   7.346
29185WAT     H287798   6.004   1.965   7.224
29186WAT      O87799   1.652   7.100   5.983
29186WAT     H187800   1.723   7.074   5.918
29186WAT     H287801   1.633   7.198   5.973
29187WAT      O87802   7.551   3.541   8.004
29187WAT     H187803   7.586   3.479   7.934
29187WAT     H287804   7.602   3.527   8.089
29188WAT      O87805   5.610   7.634   1.540
29188WAT     H187806   5.637   7.564   1.475
29188WAT     H287807   5.594   7.720   1.492
29189WAT      O87808   8.336   3.904   4.104
29189WAT     H187809   8.367   3.949   4.187
29189WAT     H287810   8.260   3.842   4.125
29190WAT      O87811   6.725   3.751   3.399
29190WAT     H187812   6.660   3.700   3.343
29190WAT     H287813   6.699   3.847   3.401
29191WAT      O87814   5.790   9.111   8.605
29191WAT     H187815   5.729   9.191   8.610
29191WAT     H287816   5.766   9.046   8.677
29192WAT      O87817   3.340   5.720   8.693
29192WAT     H187818   3.339   5.729   8.793
29192WAT     H287819   3.433   5.730   8.659
29193WAT      O87820   3.488   0.397   5.452
29193WAT     H187821   3.462   0.483   5.494
29193WAT     H287822   3.434   0.322   5.491
29194WAT      O87823   1.702   2.254   0.223
29194WAT     H187824   1.796   2.278   0.244
29194WAT     H287825   1.640   2.317   0.269
29195WAT      O87826   1.810   5.251   9.754
29195WAT     H187827   1.899   5.209   9.738
29195WAT     H287828   1.740   5.203   9.701
29196WAT      O87829   5.218   4.579   5.318
29196WAT     H187830   5.189   4.538   5.231
29196WAT     H287831   5.313   4.554   5.337
29197WAT      O87832   6.443   8.528   5.440
29197WAT     H187833   6.446   8.538   5.340
29197WAT     H287834   6.428   8.432   5.463
29198WAT      O87835   6.774   1.239   0.594
29198WAT     H187836   6.782   1.151   0.641
29198WAT     H287837   6.708   1.231   0.519
29199WAT      O87838   3.696   6.964   3.249
29199WAT     H187839   3.721   6.870   3.271
29199WAT     H287840   3.767   7.026   3.284
29200WAT      O87841   7.691   9.558   9.547
29200WAT     H187842   7.620   9.629   9.557
29200WAT     H287843   7.647   9.470   9.531
29201WAT      O87844   7.273   4.189   9.412
29201WAT     H187845   7.319   4.215   9.497
29201WAT     H287846   7.221   4.268   9.377
29202WAT      O87847   2.655   0.528   0.841
29202WAT     H187848   2.623   0.476   0.761
29202WAT     H287849   2.579   0.578   0.881
29203WAT      O87850   8.860   7.091   2.240
29203WAT     H187851   8.884   7.188   2.249
29203WAT     H287852   8.917   7.037   2.301
29204WAT      O87853   2.480   3.596   5.102
29204WAT     H187854   2.525   3.590   5.013
29204WAT     H287855   2.448   3.689   5.118
29205WAT      O87856   8.152   4.863   9.028
29205WAT     H187857   8.188   4.776   9.062
29205WAT     H287858   8.203   4.891   8.947
29206WAT      O87859   2.245   6.828   1.039
29206WAT     H187860   2.274   6.921   1.017
29206WAT     H287861   2.145   6.824   1.042
29207WAT      O87862   5.880   0.365   0.246
29207WAT     H187863   5.829   0.381   0.331
29207WAT     H287864   5.950   0.295   0.263
29208WAT      O87865   6.852   7.799   0.381
29208WAT     H187866   6.856   7.792   0.282
29208WAT     H287867   6.767   7.758   0.415
29209WAT      O87868   6.384   1.502   2.471
29209WAT     H187869   6.393   1.485   2.373
29209WAT     H287870   6.463   1.554   2.503
29210WAT      O87871   7.198   6.268   4.550
29210WAT     H187872   7.113   6.314   4.576
29210WAT     H287873   7.250   6.245   4.632
29211WAT      O87874   8.328   0.883   7.473
29211WAT     H187875   8.309   0.805   7.532
29211WAT     H287876   8.396   0.857   7.404
29212WAT      O87877   4.246   7.820   0.641
29212WAT     H187878   4.156   7.785   0.667
29212WAT     H287879   4.236   7.885   0.565
29213WAT      O87880   5.311   1.888   6.391
29213WAT     H187881   5.360   1.936   6.463
29213WAT     H287882   5.213   1.907   6.399
29214WAT      O87883   6.711   6.400   1.877
29214WAT     H187884   6.672   6.455   1.803
29214WAT     H287885   6.808   6.387   1.862
29215WAT      O87886   0.411   8.666   4.360
29215WAT     H187887   0.404   8.597   4.432
29215WAT     H287888   0.344   8.739   4.377
29216WAT      O87889   4.620   0.061   1.945
29216WAT     H187890   4.617   0.160   1.930
29216WAT     H287891   4.715   0.031   1.950
29217WAT      O87892   5.073   3.973   7.918
29217WAT     H187893   5.006   3.915   7.962
29217WAT     H287894   5.056   4.069   7.942
29218WAT      O87895   3.597   4.181   4.242
29218WAT     H187896   3.533   4.105   4.250
29218WAT     H287897   3.672   4.168   4.307
29219WAT      O87898   9.855   7.438   8.561
29219WAT     H187899   9.878   7.472   8.470
29219WAT     H287900   9.939   7.413   8.609
29220WAT      O87901   6.265   8.182   9.141
29220WAT     H187902   6.281   8.123   9.220
29220WAT     H287903   6.229   8.270   9.173
29221WAT      O87904   7.662   3.550   0.718
29221WAT     H187905   7.667   3.541   0.818
29221WAT     H287906   7.751   3.580   0.683
29222WAT      O87907   3.749   4.048   4.428
29222WAT     H187908   3.743   3.956   4.465
29222WAT     H287909   3.844   4.069   4.404
29223WAT      O87910   7.314   0.202   8.102
29223WAT     H187911   7.263   0.280   8.140
29223WAT     H287912   7.396   0.235   8.057
29224WAT      O87913   9.223   9.633   7.678
29224WAT     H187914   9.212   9.648   7.579
29224WAT     H287915   9.155   9.567   7.710
29225WAT      O87916   9.806   9.812   3.960
29225WAT     H187917   9.902   9.841   3.955
29225WAT     H287918   9.779   9.802   4.056
29226WAT      O87919   6.712   9.176   4.630
29226WAT     H187920   6.802   9.216   4.611
29226WAT     H287921   6.641   9.244   4.613
29227WAT      O87922   1.839   2.261   6.728
29227WAT     H187923   1.822   2.352   6.765
29227WAT     H287924   1.755   2.207   6.733
29228WAT      O87925   8.536   0.850   5.271
29228WAT     H187926   8.520   0.806   5.359
29228WAT     H287927   8.584   0.787   5.210
29229WAT      O87928   8.713   8.006   5.442
29229WAT     H187929   8.712   8.024   5.344
29229WAT     H287930   8.622   7.978   5.472
29230WAT      O87931   2.219   2.674   1.535
29230WAT     H187932   2.199   2.611   1.611
29230WAT     H287933   2.191   2.766   1.560
29231WAT      O87934   5.653   5.729   1.999
29231WAT     H187935   5.638   5.723   1.900
29231WAT     H287936   5.714   5.806   2.018
29232WAT      O87937   9.226   2.567   7.673
29232WAT     H187938   9.127   2.562   7.687
29232WAT     H287939   9.244   2.603   7.581
29233WAT      O87940   8.405   7.170   6.468
29233WAT     H187941   8.466   7.123   6.533
29233WAT     H287942   8.327   7.207   6.518
29234WAT      O87943   9.115   9.388   8.386
29234WAT     H187944   9.020   9.384   8.419
29234WAT     H287945   9.115   9.380   8.287
29235WAT      O87946   2.914   0.131   7.531
29235WAT     H187947   2.843   0.066   7.556
29235WAT     H287948   2.974   0.090   7.462
29236WAT      O87949   3.288   0.564   1.211
29236WAT     H187950   3.266   0.662   1.209
29236WAT     H287951   3.222   0.513   1.155
29237WAT      O87952   6.732   6.926   1.323
29237WAT     H187953   6.671   6.894   1.396
29237WAT     H287954   6.815   6.870   1.322
29238WAT      O87955   7.339   9.671   2.210
29238WAT     H187956   7.279   9.686   2.131
29238WAT     H287957   7.430   9.708   2.191
29239WAT      O87958   4.012   7.351   3.228
29239WAT     H187959   3.988   7.329   3.133
29239WAT     H287960   3.943   7.411   3.268
29240WAT      O87961   0.915   0.346   5.120
29240WAT     H187962   0.947   0.310   5.208
29240WAT     H287963   0.922   0.275   5.051
29241WAT      O87964   1.951   1.356   4.078
29241WAT     H187965   1.946   1.271   4.131
29241WAT     H287966   1.858   1.391   4.063
29242WAT      O87967   2.311   5.623   6.605
29242WAT     H187968   2.249   5.582   6.672
29242WAT     H287969   2.329   5.557   6.532
29243WAT      O87970   3.636   1.392   4.778
29243WAT     H187971   3.682   1.344   4.853
29243WAT     H287972   3.538   1.392   4.794
29244WAT      O87973   6.378   6.237   6.125
29244WAT     H187974   6.306   6.212   6.060
29244WAT     H287975   6.437   6.158   6.141
29245WAT      O87976   9.497   3.924   7.080
29245WAT     H187977   9.553   3.844   7.061
29245WAT     H287978   9.475   3.971   6.995
29246WAT      O87979   9.587   3.634   8.849
29246WAT     H187980   9.507   3.581   8.879
29246WAT     H287981   9.639   3.664   8.929
29247WAT      O87982   5.976   0.959   7.095
29247WAT     H187983   5.972   1.049   7.052
29247WAT     H287984   5.910   0.955   7.171
29248WAT      O87985   3.748   9.507   4.133
29248WAT     H187986   3.757   9.606   4.141
29248WAT     H287987   3.728   9.483   4.039
29249WAT      O87988   2.653   7.760   5.781
29249WAT     H187989   2.750   7.748   5.800
29249WAT     H287990   2.626   7.853   5.806
29250WAT      O87991   1.268   6.259   9.848
29250WAT     H187992   1.293   6.162   9.843
29250WAT     H287993   1.173   6.267   9.879
29251WAT      O87994   4.328   2.814   1.701
29251WAT     H187995   4.378   2.754   1.639
29251WAT     H287996   4.390   2.844   1.774
29252WAT      O87997   7.796   5.624   5.484
29252WAT     H187998   7.861   5.549   5.499
29252WAT     H287999   7.767   5.660   5.572
29253WAT      O88000   7.109   0.443   0.235
29253WAT     H188001   7.150   0.387   0.162
29253WAT     H288002   7.011   0.451   0.219
29254WAT      O88003   1.516   1.014   6.508
29254WAT     H188004   1.497   1.110   6.487
29254WAT     H288005   1.430   0.967   6.529
29255WAT      O88006   7.337   0.194   4.836
29255WAT     H188007   7.340   0.094   4.829
29255WAT     H288008   7.426   0.228   4.870
29256WAT      O88009   8.988   2.756   5.399
29256WAT     H188010   9.057   2.787   5.333
29256WAT     H288011   8.915   2.708   5.350
29257WAT      O88012   7.607   1.158   8.135
29257WAT     H188013   7.622   1.250   8.170
29257WAT     H288014   7.695   1.110   8.131
29258WAT      O88015   0.048   7.322   3.808
29258WAT     H188016  -0.011   7.242   3.798
29258WAT     H288017  -0.004   7.405   3.786
29259WAT      O88018   9.096   1.063   7.135
29259WAT     H188019   9.183   1.113   7.134
29259WAT     H288020   9.104   0.982   7.194
29260WAT      O88021   4.552   6.715   3.150
29260WAT     H188022   4.532   6.798   3.098
29260WAT     H288023   4.494   6.712   3.232
29261WAT      O88024   4.186   4.190   1.024
29261WAT     H188025   4.108   4.224   0.973
29261WAT     H288026   4.163   4.185   1.122
29262WAT      O88027   4.415   1.963   9.667
29262WAT     H188028   4.395   2.059   9.649
29262WAT     H288029   4.438   1.917   9.582
29263WAT      O88030   1.606   3.158   6.953
29263WAT     H188031   1.554   3.124   7.031
29263WAT     H288032   1.669   3.229   6.984
29264WAT      O88033   8.166   4.646   6.658
29264WAT     H188034   8.134   4.568   6.711
29264WAT     H288035   8.119   4.648   6.570
29265WAT      O88036   0.895   2.329   4.210
29265WAT     H188037   0.924   2.263   4.279
29265WAT     H288038   0.824   2.288   4.152
29266WAT      O88039   9.648   5.708   7.435
29266WAT     H188040   9.619   5.803   7.442
29266WAT     H288041   9.698   5.682   7.517
29267WAT      O88042   1.293   3.413   0.769
29267WAT     H188043   1.305   3.505   0.806
29267WAT     H288044   1.382   3.372   0.750
29268WAT      O88045   9.709   2.473   5.661
29268WAT     H188046   9.639   2.536   5.694
29268WAT     H288047   9.783   2.526   5.618
29269WAT      O88048   3.152   4.093   5.802
29269WAT     H188049   3.073   4.149   5.827
29269WAT     H288050   3.124   3.997   5.798
29270WAT      O88051   1.626   6.167   3.389
29270WAT     H188052   1.553   6.235   3.377
29270WAT     H288053   1.715   6.211   3.375
29271WAT      O88054   7.710   6.510   8.973
29271WAT     H188055   7.686   6.502   8.876
29271WAT     H288056   7.704   6.420   9.016
29272WAT      O88057   5.021   4.141   1.090
29272WAT     H188058   5.034   4.094   1.002
29272WAT     H288059   5.044   4.238   1.080
29273WAT      O88060   4.991   7.872   5.919
29273WAT     H188061   4.957   7.890   5.826
29273WAT     H288062   4.931   7.918   5.985
29274WAT      O88063   0.884   3.386   5.574
29274WAT     H188064   0.981   3.399   5.556
29274WAT     H288065   0.872   3.303   5.629
29275WAT      O88066   9.503   3.495   1.359
29275WAT     H188067   9.418   3.520   1.311
29275WAT     H288068   9.523   3.563   1.429
29276WAT      O88069   8.601   0.453   6.436
29276WAT     H188070   8.589   0.355   6.452
29276WAT     H288071   8.640   0.468   6.345
29277WAT      O88072   7.814   0.372   6.781
29277WAT     H188073   7.886   0.392   6.715
29277WAT     H288074   7.851   0.315   6.855
29278WAT      O88075   8.752   0.615   0.718
29278WAT     H188076   8.673   0.665   0.754
29278WAT     H288077   8.732   0.581   0.626
29279WAT      O88078   0.733   2.550   1.411
29279WAT     H188079   0.733   2.539   1.510
29279WAT     H288080   0.827   2.562   1.379
29280WAT      O88081   3.041   1.507   1.968
29280WAT     H188082   3.118   1.559   2.004
29280WAT     H288083   2.969   1.570   1.937
29281WAT      O88084   7.520   0.581   1.620
29281WAT     H188085   7.569   0.655   1.573
29281WAT     H288086   7.585   0.528   1.675
29282WAT      O88087   3.373   5.756   2.648
29282WAT     H188088   3.454   5.697   2.646
29282WAT     H288089   3.394   5.843   2.603
29283WAT      O88090   3.373   7.728   3.211
29283WAT     H188091   3.452   7.762   3.161
29283WAT     H288092   3.324   7.661   3.155
29284WAT      O88093   8.910   0.420   2.583
29284WAT     H188094   8.890   0.323   2.568
29284WAT     H288095   8.993   0.445   2.533
29285WAT      O88096   0.308   0.067   7.619
29285WAT     H188097   0.251   0.032   7.693
29285WAT     H288098   0.319  -0.003   7.549
29286WAT      O88099   9.738   7.143   3.779
29286WAT     H188100   9.650   7.176   3.743
29286WAT     H288101   9.751   7.048   3.752
29287WAT      O88102   4.028   6.799   8.340
29287WAT     H188103   3.939   6.836   8.362
29287WAT     H288104   4.090   6.811   8.417
29288WAT      O88105   6.200   8.206   1.993
29288WAT     H188106   6.106   8.237   2.005
29288WAT     H288107   6.232   8.230   1.901
29289WAT      O88108   1.053   7.647   0.105
29289WAT     H188109   0.992   7.647   0.026
29289WAT     H288110   1.093   7.738   0.116
29290WAT      O88111   9.537   2.361   7.367
29290WAT     H188112   9.610   2.354   7.434
29290WAT     H288113   9.453   2.322   7.405
29291WAT      O88114   5.652   8.987   2.029
29291WAT     H188115   5.698   8.898   2.034
29291WAT     H288116   5.584   8.993   2.102
29292WAT      O88117   0.031   4.031   8.044
29292WAT     H188118   0.126   4.051   8.020
29292WAT     H288119   0.017   3.932   8.048
29293WAT      O88120   7.969   3.954   2.129
29293WAT     H188121   7.904   4.015   2.173
29293WAT     H288122   8.036   4.007   2.078
29294WAT      O88123   4.850   9.548   7.547
29294WAT     H188124   4.864   9.647   7.549
29294WAT     H288125   4.752   9.528   7.539
29295WAT      O88126   4.834   2.098   2.019
29295WAT     H188127   4.855   2.194   2.036
29295WAT     H288128   4.917   2.052   1.986
29296WAT      O88129   2.049   7.464   4.274
29296WAT     H188130   2.095   7.486   4.188
29296WAT     H288131   2.075   7.531   4.344
29297WAT      O88132   2.966   1.756   7.130
29297WAT     H188133   2.980   1.826   7.060
29297WAT     H288134   2.940   1.800   7.216
29298WAT      O88135   7.575   0.255   2.657
29298WAT     H188136   7.504   0.249   2.728
29298WAT     H288137   7.647   0.317   2.687
29299WAT      O88138   0.464   7.605   3.380
29299WAT     H188139   0.415   7.610   3.467
29299WAT     H288140   0.501   7.513   3.367
29300WAT      O88141   0.228   5.078   3.590
29300WAT     H188142   0.267   5.080   3.682
29300WAT     H288143   0.130   5.094   3.595
29301WAT      O88144   7.148   9.221   5.652
29301WAT     H188145   7.174   9.241   5.746
29301WAT     H288146   7.166   9.125   5.632
29302WAT      O88147   9.491   1.339   6.375
29302WAT     H188148   9.475   1.242   6.396
29302WAT     H288149   9.448   1.361   6.287
29303WAT      O88150   6.144   0.431   5.443
29303WAT     H188151   6.219   0.476   5.491
29303WAT     H288152   6.076   0.400   5.509
29304WAT      O88153   8.209   9.013   0.331
29304WAT     H188154   8.234   9.006   0.234
29304WAT     H288155   8.219   8.924   0.374
29305WAT      O88156   6.562   7.583   6.961
29305WAT     H188157   6.470   7.593   6.999
29305WAT     H288158   6.610   7.670   6.966
29306WAT      O88159   5.896   8.545   6.156
29306WAT     H188160   5.817   8.566   6.214
29306WAT     H288161   5.921   8.627   6.104
29307WAT      O88162   8.272   6.164   7.701
29307WAT     H188163   8.222   6.138   7.783
29307WAT     H288164   8.364   6.123   7.703
29308WAT      O88165   9.363   8.395   5.630
29308WAT     H188166   9.324   8.461   5.694
29308WAT     H288167   9.318   8.404   5.541
29309WAT      O88168   8.951   0.660   7.763
29309WAT     H188169   8.947   0.691   7.668
29309WAT     H288170   9.019   0.587   7.771
29310WAT      O88171   2.989   9.195   4.140
29310WAT     H188172   2.968   9.200   4.042
29310WAT     H288173   2.989   9.287   4.179
29311WAT      O88174   7.702   4.301   0.212
29311WAT     H188175   7.697   4.325   0.115
29311WAT     H288176   7.701   4.202   0.222
29312WAT      O88177   3.778   6.191   1.243
29312WAT     H188178   3.731   6.270   1.204
29312WAT     H288179   3.774   6.196   1.343
29313WAT      O88180   9.279   9.484   5.154
29313WAT     H188181   9.362   9.521   5.196
29313WAT     H288182   9.226   9.434   5.222
29314WAT      O88183   9.585   4.114   3.113
29314WAT     H188184   9.583   4.018   3.142
29314WAT     H288185   9.649   4.165   3.170
29315WAT      O88186   8.059   0.531   9.098
29315WAT     H188187   8.082   0.579   9.183
29315WAT     H288188   7.973   0.568   9.061
29316WAT      O88189   2.291   4.459   7.431
29316WAT     H188190   2.320   4.509   7.512
29316WAT     H288191   2.353   4.480   7.355
29317WAT      O88192   7.822   4.771   7.456
29317WAT     H188193   7.838   4.869   7.462
29317WAT     H288194   7.868   4.725   7.532
29318WAT      O88195   7.287   6.953   0.584
29318WAT     H188196   7.264   6.900   0.665
29318WAT     H288197   7.381   6.934   0.557
29319WAT      O88198   6.030   9.270   8.987
29319WAT     H188199   5.988   9.180   9.000
29319WAT     H288200   6.085   9.270   8.904
29320WAT      O88201   0.268   1.966   2.114
29320WAT     H188202   0.312   2.003   2.196
29320WAT     H288203   0.285   2.026   2.037
29321WAT      O88204   8.721   1.390   5.194
29321WAT     H188205   8.763   1.464   5.246
29321WAT     H288206   8.621   1.397   5.200
29322WAT      O88207   8.308   9.582   7.989
29322WAT     H188208   8.255   9.532   8.057
29322WAT     H288209   8.353   9.517   7.927
29323WAT      O88210   4.944   6.307   2.295
29323WAT     H188211   5.030   6.342   2.333
29323WAT     H288212   4.870   6.371   2.316
29324WAT      O88213   9.112   4.510   4.910
29324WAT     H188214   9.162   4.562   4.979
29324WAT     H288215   9.114   4.559   4.822
29325WAT      O88216   2.378   5.842   6.318
29325WAT     H188217   2.336   5.861   6.407
29325WAT     H288218   2.398   5.744   6.311
29326WAT      O88219   6.953   2.131   2.306
29326WAT     H188220   6.884   2.087   2.249
29326WAT     H288221   7.043   2.122   2.262
29327WAT      O88222   6.902   5.918   4.179
29327WAT     H188223   6.838   5.877   4.243
29327WAT     H288224   6.869   6.008   4.150
29328WAT      O88225   0.736   5.926   7.080
29328WAT     H188226   0.788   5.942   6.996
29328WAT     H288227   0.768   5.987   7.152
29329WAT      O88228   9.428   5.321   7.342
29329WAT     H188229   9.340   5.286   7.309
29329WAT     H288230   9.413   5.402   7.398
29330WAT      O88231   3.291   8.272   9.851
29330WAT     H188232   3.247   8.354   9.885
29330WAT     H288233   3.383   8.295   9.819
29331WAT      O88234   9.611   8.586   1.365
29331WAT     H188235   9.540   8.522   1.394
29331WAT     H288236   9.570   8.672   1.336
29332WAT      O88237   2.767   3.666   9.763
29332WAT     H188238   2.799   3.601   9.694
29332WAT     H288239   2.844   3.692   9.822
29333WAT      O88240   3.434   3.742   5.620
29333WAT     H188241   3.447   3.799   5.701
29333WAT     H288242   3.421   3.801   5.540
29334WAT      O88243   3.934   1.829   1.516
29334WAT     H188244   3.856   1.788   1.563
29334WAT     H288245   3.970   1.905   1.570
29335WAT      O88246   0.214   5.425   1.171
29335WAT     H188247   0.209   5.425   1.271
29335WAT     H288248   0.152   5.495   1.135
29336WAT      O88249   6.376   8.545   5.170
29336WAT     H188250   6.434   8.479   5.122
29336WAT     H288251   6.283   8.542   5.132
29337WAT      O88252   1.723   9.232   8.390
29337WAT     H188253   1.638   9.189   8.421
29337WAT     H288254   1.775   9.166   8.336
29338WAT      O88255   3.611   6.257   9.066
29338WAT     H188256   3.699   6.297   9.043
29338WAT     H288257   3.541   6.291   9.003
29339WAT      O88258   4.965   1.911   2.866
29339WAT     H188259   5.017   1.841   2.817
29339WAT     H288260   4.940   1.984   2.802
29340WAT      O88261   0.767   2.403   6.230
29340WAT     H188262   0.815   2.483   6.265
29340WAT     H288263   0.673   2.403   6.264
29341WAT      O88264   5.337   7.704   0.079
29341WAT     H188265   5.396   7.702   0.159
29341WAT     H288266   5.391   7.723  -0.003
29342WAT      O88267   9.763   5.935   3.340
29342WAT     H188268   9.780   5.873   3.264
29342WAT     H288269   9.687   5.996   3.317
29343WAT      O88270   3.985   4.286   3.099
29343WAT     H188271   3.999   4.365   3.159
29343WAT     H288272   4.031   4.206   3.138
29344WAT      O88273   2.764   5.698   3.302
29344WAT     H188274   2.730   5.644   3.379
29344WAT     H288275   2.724   5.665   3.217
29345WAT      O88276   3.699   3.650   2.358
29345WAT     H188277   3.640   3.570   2.373
29345WAT     H288278   3.755   3.635   2.277
29346WAT      O88279   8.697   5.206   2.380
29346WAT     H188280   8.737   5.294   2.354
29346WAT     H288281   8.641   5.171   2.305
29347WAT      O88282   4.781   8.354   0.817
29347WAT     H188283   4.744   8.276   0.766
29347WAT     H288284   4.794   8.431   0.755
29348WAT      O88285   4.689   8.582   3.047
29348WAT     H188286   4.597   8.545   3.033
29348WAT     H288287   4.689   8.679   3.025
29349WAT      O88288   0.824   1.937   0.589
29349WAT     H188289   0.885   1.969   0.661
29349WAT     H288290   0.745   1.997   0.582
29350WAT      O88291   4.419   3.787   6.488
29350WAT     H188292   4.355   3.743   6.552
29350WAT     H288293   4.396   3.885   6.482
29351WAT      O88294   6.097   3.436   5.034
29351WAT     H188295   6.007   3.448   4.994
29351WAT     H288296   6.087   3.419   5.133
29352WAT      O88297   6.633   8.041   7.933
29352WAT     H188298   6.589   8.115   7.883
29352WAT     H288299   6.600   8.040   8.028
29353WAT      O88300   1.792   9.552   0.028
29353WAT     H188301   1.881   9.597   0.032
29353WAT     H288302   1.806   9.455   0.008
29354WAT      O88303   7.589   1.993   6.824
29354WAT     H188304   7.665   1.945   6.867
29354WAT     H288305   7.503   1.961   6.863
29355WAT      O88306   0.294   1.811   9.283
29355WAT     H188307   0.385   1.805   9.323
29355WAT     H288308   0.293   1.879   9.210
29356WAT      O88309   4.693   4.185   6.275
29356WAT     H188310   4.791   4.198   6.265
29356WAT     H288311   4.644   4.254   6.222
29357WAT      O88312   6.761   8.416   9.865
29357WAT     H188313   6.710   8.502   9.874
29357WAT     H288314   6.703   8.339   9.889
29358WAT      O88315   9.416   6.610   7.213
29358WAT     H188316   9.459   6.604   7.123
29358WAT     H288317   9.486   6.629   7.282
29359WAT      O88318   7.520   7.351   6.563
29359WAT     H188319   7.489   7.260   6.536
29359WAT     H288320   7.492   7.418   6.493
29360WAT      O88321   2.542   1.919   7.716
29360WAT     H188322   2.538   1.993   7.649
29360WAT     H288323   2.589   1.840   7.676
29361WAT      O88324   0.370   4.420   2.271
29361WAT     H188325   0.409   4.465   2.191
29361WAT     H288326   0.287   4.370   2.245
29362WAT      O88327   3.452   3.020   9.737
29362WAT     H188328   3.547   2.990   9.735
29362WAT     H288329   3.393   2.944   9.709
29363WAT      O88330   9.120   1.504   2.240
29363WAT     H188331   9.198   1.565   2.223
29363WAT     H288332   9.088   1.517   2.333
29364WAT      O88333   3.095   6.264   4.656
29364WAT     H188334   3.024   6.194   4.641
29364WAT     H288335   3.143   6.280   4.570
29365WAT      O88336   1.436   4.779   0.425
29365WAT     H188337   1.528   4.774   0.386
29365WAT     H288338   1.437   4.742   0.518
29366WAT      O88339   8.263   6.599   8.026
29366WAT     H188340   8.201   6.658   8.077
29366WAT     H288341   8.211   6.528   7.980
29367WAT      O88342   6.056   0.121   9.183
29367WAT     H188343   5.994   0.176   9.239
29367WAT     H288344   6.003   0.052   9.133
29368WAT      O88345   9.456   3.926   2.737
29368WAT     H188346   9.408   3.960   2.656
29368WAT     H288347   9.397   3.860   2.785
29369WAT      O88348   8.381   6.411   5.086
29369WAT     H188349   8.439   6.491   5.078
29369WAT     H288350   8.354   6.398   5.181
29370WAT      O88351   3.141   3.761   8.306
29370WAT     H188352   3.088   3.784   8.224
29370WAT     H288353   3.213   3.696   8.283
29371WAT      O88354   5.320   2.979   8.555
29371WAT     H188355   5.334   3.007   8.650
29371WAT     H288356   5.347   2.884   8.544
29372WAT      O88357   7.344   2.044   7.239
29372WAT     H188358   7.262   2.032   7.184
29372WAT     H288359   7.398   1.960   7.238
29373WAT      O88360   8.909   0.330   9.230
29373WAT     H188361   9.002   0.324   9.265
29373WAT     H288362   8.910   0.337   9.131
29374WAT      O88363   1.037   7.384   9.081
29374WAT     H188364   1.117   7.422   9.034
29374WAT     H288365   0.973   7.457   9.102
29375WAT      O88366   0.004   5.677   3.880
29375WAT     H188367  -0.010   5.668   3.782
29375WAT     H288368   0.013   5.586   3.921
29376WAT      O88369   0.952   6.497   2.797
29376WAT     H188370   1.040   6.496   2.748
29376WAT     H288371   0.900   6.415   2.774
29377WAT      O88372   6.587   3.315   5.132
29377WAT     H188373   6.541   3.375   5.066
29377WAT     H288374   6.593   3.361   5.220
29378WAT      O88375   8.977   4.012   4.545
29378WAT     H188376   8.964   4.087   4.610
29378WAT     H288377   9.047   4.038   4.479
29379WAT      O88378   3.110   8.661   2.795
29379WAT     H188379   3.151   8.752   2.793
29379WAT     H288380   3.034   8.659   2.860
29380WAT      O88381   2.083   9.831   2.456
29380WAT     H188382   1.990   9.843   2.421
29380WAT     H288383   2.147   9.832   2.379
29381WAT      O88384   5.885   6.079   9.440
29381WAT     H188385   5.961   6.141   9.459
29381WAT     H288386   5.846   6.046   9.525
29382WAT      O88387   0.155   5.306   3.029
29382WAT     H188388   0.097   5.305   3.111
29382WAT     H288389   0.099   5.282   2.949
29383WAT      O88390   5.633   1.726   0.965
29383WAT     H188391   5.558   1.659   0.968
29383WAT     H288392   5.675   1.725   0.875
29384WAT      O88393   8.598   2.315   1.025
29384WAT     H188394   8.544   2.399   1.025
29384WAT     H288395   8.613   2.285   0.931
29385WAT      O88396   0.328   1.525   8.309
29385WAT     H188397   0.248   1.577   8.336
29385WAT     H288398   0.349   1.541   8.213
29386WAT      O88399   8.184   3.452   7.172
29386WAT     H188400   8.165   3.386   7.244
29386WAT     H288401   8.097   3.488   7.136
29387WAT      O88402   8.432   2.416   9.540
29387WAT     H188403   8.383   2.431   9.455
29387WAT     H288404   8.455   2.504   9.581
29388WAT      O88405   8.797   5.270   2.985
29388WAT     H188406   8.733   5.198   2.960
29388WAT     H288407   8.843   5.305   2.903
29389WAT      O88408   2.628   9.044   2.305
29389WAT     H188409   2.721   9.082   2.309
29389WAT     H288410   2.616   8.994   2.219
29390WAT      O88411   7.107   7.192   9.655
29390WAT     H188412   7.020   7.149   9.678
29390WAT     H288413   7.090   7.284   9.620
29391WAT      O88414   2.499   0.684   7.013
29391WAT     H188415   2.577   0.621   7.013
29391WAT     H288416   2.487   0.723   6.921
29392WAT      O88417   3.905   4.801   7.365
29392WAT     H188418   3.958   4.885   7.374
29392WAT     H288419   3.967   4.725   7.344
29393WAT      O88420   9.466   8.410   9.118
29393WAT     H188421   9.409   8.492   9.105
29393WAT     H288422   9.485   8.397   9.215
29394WAT      O88423   2.862   5.409   7.303
29394WAT     H188424   2.817   5.471   7.238
29394WAT     H288425   2.960   5.413   7.289
29395WAT      O88426   5.062   7.926   4.023
29395WAT     H188427   5.145   7.971   4.058
29395WAT     H288428   5.083   7.880   3.937
29396WAT      O88429   1.823   7.702   4.409
29396WAT     H188430   1.908   7.653   4.430
29396WAT     H288431   1.843   7.799   4.396
29397WAT      O88432   4.132   4.746   7.681
29397WAT     H188433   4.178   4.689   7.612
29397WAT     H288434   4.033   4.739   7.670
29398WAT      O88435   8.028   7.493   2.545
29398WAT     H188436   8.066   7.401   2.539
29398WAT     H288437   8.098   7.559   2.519
29399WAT      O88438   8.883   9.297   4.603
29399WAT     H188439   8.897   9.198   4.608
29399WAT     H288440   8.966   9.344   4.633
29400WAT      O88441   3.937   2.703   7.905
29400WAT     H188442   3.968   2.627   7.963
29400WAT     H288443   3.933   2.672   7.810
29401WAT      O88444   5.655   3.972   8.559
29401WAT     H188445   5.715   3.907   8.514
29401WAT     H288446   5.570   3.981   8.508
29402WAT      O88447   5.178   2.671   5.536
29402WAT     H188448   5.116   2.667   5.457
29402WAT     H288449   5.194   2.767   5.560
29403WAT      O88450   8.527   2.186   7.142
29403WAT     H188451   8.512   2.088   7.125
29403WAT     H288452   8.482   2.239   7.070
29404WAT      O88453   5.708   6.537   8.655
29404WAT     H188454   5.708   6.486   8.569
29404WAT     H288455   5.670   6.480   8.728
29405WAT      O88456   1.517   4.147   9.002
29405WAT     H188457   1.538   4.174   9.096
29405WAT     H288458   1.514   4.228   8.944
29406WAT      O88459   4.579   6.770   7.088
29406WAT     H188460   4.516   6.846   7.100
29406WAT     H288461   4.669   6.794   7.125
29407WAT      O88462   7.972   3.922   7.378
29407WAT     H188463   8.045   3.942   7.314
29407WAT     H288464   8.003   3.940   7.472
29408WAT      O88465   9.604   9.218   2.767
29408WAT     H188466   9.633   9.234   2.673
29408WAT     H288467   9.520   9.268   2.785
29409WAT      O88468   2.831   3.843   1.276
29409WAT     H188469   2.896   3.919   1.284
29409WAT     H288470   2.754   3.859   1.338
29410WAT      O88471   8.961   8.238   6.866
29410WAT     H188472   8.911   8.285   6.793
29410WAT     H288473   8.897   8.215   6.940
29411WAT      O88474   9.183   3.128   8.628
29411WAT     H188475   9.107   3.186   8.658
29411WAT     H288476   9.269   3.168   8.658
29412WAT      O88477   4.690   0.799   5.481
29412WAT     H188478   4.758   0.854   5.529
29412WAT     H288479   4.600   0.843   5.488
29413WAT      O88480   8.456   4.163   5.428
29413WAT     H188481   8.403   4.104   5.489
29413WAT     H288482   8.554   4.147   5.442
29414WAT      O88483   1.554   2.275   1.836
29414WAT     H188484   1.624   2.236   1.896
29414WAT     H288485   1.468   2.283   1.885
29415WAT      O88486   3.555   9.616   9.426
29415WAT     H188487   3.577   9.545   9.493
29415WAT     H288488   3.631   9.626   9.362
29416WAT      O88489   0.898   0.006   2.847
29416WAT     H188490   0.842  -0.025   2.924
29416WAT     H288491   0.974  -0.058   2.834
29417WAT      O88492   4.476   6.052   4.904
29417WAT     H188493   4.460   5.983   4.833
29417WAT     H288494   4.561   6.030   4.952
29418WAT      O88495   6.995   2.883   5.914
29418WAT     H188496   7.058   2.834   5.975
29418WAT     H288497   7.032   2.884   5.821
29419WAT      O88498   3.028   7.655   6.488
29419WAT     H188499   2.990   7.748   6.490
29419WAT     H288500   3.111   7.652   6.543
29420WAT      O88501   8.004   6.022   4.837
29420WAT     H188502   7.980   5.960   4.763
29420WAT     H288503   8.004   6.116   4.803
29421WAT      O88504   4.405   8.835   2.310
29421WAT     H188505   4.422   8.854   2.406
29421WAT     H288506   4.367   8.743   2.299
29422WAT      O88507   8.143   7.966   7.737
29422WAT     H188508   8.103   8.055   7.755
29422WAT     H288509   8.092   7.921   7.663
29423WAT      O88510   9.620   4.657   7.188
29423WAT     H188511   9.594   4.740   7.139
29423WAT     H288512   9.544   4.628   7.247
29424WAT      O88513   1.847   9.146   3.632
29424WAT     H188514   1.915   9.080   3.601
29424WAT     H288515   1.822   9.207   3.557
29425WAT      O88516   0.872   5.214   4.736
29425WAT     H188517   0.879   5.272   4.818
29425WAT     H288518   0.931   5.134   4.747
29426WAT      O88519   0.473   8.615   0.835
29426WAT     H188520   0.519   8.526   0.844
29426WAT     H288521   0.542   8.687   0.822
29427WAT      O88522   2.877   9.677   3.377
29427WAT     H188523   2.868   9.747   3.306
29427WAT     H288524   2.800   9.613   3.370
29428WAT      O88525   0.807   9.439   1.694
29428WAT     H188526   0.788   9.525   1.647
29428WAT     H288527   0.792   9.362   1.632
29429WAT      O88528   8.554   5.728   8.958
29429WAT     H188529   8.477   5.754   9.017
29429WAT     H288530   8.617   5.670   9.009
29430WAT      O88531   8.168   1.696   3.400
29430WAT     H188532   8.092   1.694   3.335
29430WAT     H288533   8.177   1.788   3.438
29431WAT      O88534   9.862   7.286   9.194
29431WAT     H188535   9.804   7.206   9.201
29431WAT     H288536   9.806   7.369   9.192
29432WAT      O88537   9.689   6.100   5.022
29432WAT     H188538   9.601   6.054   5.038
29432WAT     H288539   9.724   6.136   5.108
29433WAT      O88540   2.484   1.947   0.653
29433WAT     H188541   2.441   2.009   0.719
29433WAT     H288542   2.521   1.868   0.702
29434WAT      O88543   6.290   1.322   2.123
29434WAT     H188544   6.350   1.246   2.145
29434WAT     H288545   6.268   1.320   2.025
29435WAT      O88546   5.860   4.405   6.390
29435WAT     H188547   5.826   4.465   6.462
29435WAT     H288548   5.944   4.442   6.352
29436WAT      O88549   7.548   0.619   3.503
29436WAT     H188550   7.483   0.546   3.480
29436WAT     H288551   7.511   0.707   3.475
29437WAT      O88552   2.237   6.042   8.231
29437WAT     H188553   2.303   6.077   8.298
29437WAT     H288554   2.182   6.118   8.196
29438WAT      O88555   0.056   3.007   3.003
29438WAT     H188556   0.054   3.009   3.103
29438WAT     H288557   0.150   3.008   2.970
29439WAT      O88558   0.660   1.649   0.594
29439WAT     H188559   0.753   1.656   0.631
29439WAT     H288560   0.605   1.593   0.656
29440WAT      O88561   2.744   3.815   6.862
29440WAT     H188562   2.665   3.834   6.919
29440WAT     H288563   2.718   3.754   6.787
29441WAT      O88564   4.011   8.643   4.412
29441WAT     H188565   4.016   8.727   4.359
29441WAT     H288566   4.029   8.564   4.353
29442WAT      O88567   0.949   6.050   4.873
29442WAT     H188568   0.925   5.955   4.893
29442WAT     H288569   1.019   6.081   4.937
29443WAT      O88570   6.869   6.193   8.107
29443WAT     H188571   6.786   6.145   8.079
29443WAT     H288572   6.846   6.265   8.172
29444WAT      O88573   7.797   4.135   6.579
29444WAT     H188574   7.773   4.228   6.550
29444WAT     H288575   7.715   4.079   6.581
29445WAT      O88576   2.009   9.700   3.166
29445WAT     H188577   2.061   9.694   3.252
29445WAT     H288578   1.934   9.765   3.177
29446WAT      O88579   5.646   1.852   0.356
29446WAT     H188580   5.608   1.790   0.425
29446WAT     H288581   5.592   1.936   0.354
29447WAT      O88582   5.351   3.491   7.067
29447WAT     H188583   5.267   3.538   7.042
29447WAT     H288584   5.376   3.514   7.161
29448WAT      O88585   1.209   8.875   5.035
29448WAT     H188586   1.302   8.874   5.071
29448WAT     H288587   1.196   8.955   4.978
29449WAT      O88588   0.439   0.755  -0.001
29449WAT     H188589   0.388   0.835  -0.031
29449WAT     H288590   0.428   0.743   0.098
29450WAT      O88591   3.239   1.878   8.394
29450WAT     H188592   3.191   1.793   8.372
29450WAT     H288593   3.227   1.898   8.492
29451WAT      O88594   4.036   8.810   5.244
29451WAT     H188595   4.090   8.813   5.329
29451WAT     H288596   4.087   8.856   5.171
29452WAT      O88597   2.465   1.878   0.105
29452WAT     H188598   2.435   1.828   0.186
29452WAT     H288599   2.519   1.957   0.133
29453WAT      O88600   6.893   8.646   0.960
29453WAT     H188601   6.948   8.700   1.023
29453WAT     H288602   6.925   8.662   0.866
29454WAT      O88603   7.998   3.641   6.021
29454WAT     H188604   7.968   3.722   6.070
29454WAT     H288605   7.935   3.621   5.946
29455WAT      O88606   8.656   7.291   5.102
29455WAT     H188607   8.621   7.384   5.103
29455WAT     H288608   8.585   7.228   5.134
29456WAT      O88609   2.628   3.175   8.306
29456WAT     H188610   2.723   3.160   8.336
29456WAT     H288611   2.585   3.243   8.365
29457WAT      O88612   0.989   2.231   2.367
29457WAT     H188613   1.033   2.142   2.372
29457WAT     H288614   0.958   2.258   2.458
29458WAT      O88615   3.177   0.955   3.259
29458WAT     H188616   3.153   1.030   3.320
29458WAT     H288617   3.143   0.869   3.297
29459WAT      O88618   1.877   0.366   9.173
29459WAT     H188619   1.825   0.451   9.172
29459WAT     H288620   1.929   0.360   9.258
29460WAT      O88621   6.385   2.900   0.895
29460WAT     H188622   6.468   2.956   0.893
29460WAT     H288623   6.342   2.901   0.805
29461WAT      O88624   2.792   7.134   4.264
29461WAT     H188625   2.801   7.233   4.248
29461WAT     H288626   2.881   7.091   4.249
29462WAT      O88627   4.130   3.583   9.747
29462WAT     H188628   4.209   3.618   9.696
29462WAT     H288629   4.046   3.615   9.705
29463WAT      O88630   6.155   6.204   7.226
29463WAT     H188631   6.118   6.182   7.316
29463WAT     H288632   6.185   6.121   7.180
29464WAT      O88633   1.485   2.656   2.049
29464WAT     H188634   1.480   2.561   2.079
29464WAT     H288635   1.411   2.708   2.091
29465WAT      O88636   0.899   5.549   4.854
29465WAT     H188637   0.826   5.558   4.786
29465WAT     H288638   0.912   5.637   4.900
29466WAT      O88639   5.287   8.756   7.590
29466WAT     H188640   5.241   8.802   7.514
29466WAT     H288641   5.378   8.726   7.560
29467WAT      O88642   9.008   3.968   6.763
29467WAT     H188643   8.959   3.915   6.694
29467WAT     H288644   9.084   3.914   6.799
29468WAT      O88645   8.502   4.151   7.319
29468WAT     H188646   8.422   4.210   7.319
29468WAT     H288647   8.553   4.163   7.234
29469WAT      O88648   1.089   0.656   2.557
29469WAT     H188649   1.088   0.727   2.487
29469WAT     H288650   1.001   0.654   2.603
29470WAT      O88651   9.374   9.626   4.903
29470WAT     H188652   9.369   9.546   4.844
29470WAT     H288653   9.352   9.599   4.997
29471WAT      O88654   0.772   2.939   2.773
29471WAT     H188655   0.851   2.997   2.753
29471WAT     H288656   0.702   2.953   2.703
29472WAT      O88657   5.636   6.372   3.488
29472WAT     H188658   5.720   6.380   3.434
29472WAT     H288659   5.610   6.462   3.524
29473WAT      O88660   2.461   5.498   5.250
29473WAT     H188661   2.459   5.542   5.340
29473WAT     H288662   2.387   5.534   5.193
29474WAT      O88663   0.540   1.178   9.191
29474WAT     H188664   0.612   1.247   9.199
29474WAT     H288665   0.455   1.223   9.163
29475WAT      O88666   0.889   6.176   0.745
29475WAT     H188667   0.882   6.092   0.798
29475WAT     H288668   0.803   6.227   0.751
29476WAT      O88669   1.280   9.132   0.336
29476WAT     H188670   1.215   9.105   0.266
29476WAT     H288671   1.231   9.151   0.421
29477WAT      O88672   4.687   5.313   9.655
29477WAT     H188673   4.682   5.377   9.732
29477WAT     H288674   4.601   5.261   9.649
29478WAT      O88675   8.305   4.143   3.525
29478WAT     H188676   8.387   4.087   3.534
29478WAT     H288677   8.316   4.208   3.450
29479WAT      O88678   2.486   2.723   7.801
29479WAT     H188679   2.476   2.624   7.800
29479WAT     H288680   2.524   2.752   7.889
29480WAT      O88681   6.830   0.582   2.893
29480WAT     H188682   6.902   0.580   2.824
29480WAT     H288683   6.764   0.509   2.877
29481WAT      O88684   2.881   9.754   2.546
29481WAT     H188685   2.868   9.689   2.471
29481WAT     H288686   2.832   9.721   2.627
29482WAT      O88687   2.868   5.394   2.681
29482WAT     H188688   2.831   5.425   2.593
29482WAT     H288689   2.859   5.295   2.688
29483WAT      O88690   5.301   9.317   1.118
29483WAT     H188691   5.231   9.388   1.118
29483WAT     H288692   5.281   9.250   1.190
29484WAT      O88693   5.655   9.135   6.503
29484WAT     H188694   5.606   9.101   6.423
29484WAT     H288695   5.748   9.159   6.477
29485WAT      O88696   4.846   4.906   5.749
29485WAT     H188697   4.881   4.985   5.700
29485WAT     H288698   4.881   4.906   5.842
29486WAT      O88699   8.460   0.579   8.833
29486WAT     H188700   8.461   0.676   8.857
29486WAT     H288701   8.462   0.569   8.734
29487WAT      O88702   1.734   9.526   9.056
29487WAT     H188703   1.699   9.611   9.093
29487WAT     H288704   1.692   9.509   8.966
29488WAT      O88705   9.001   8.962   8.163
29488WAT     H188706   8.919   8.965   8.221
29488WAT     H288707   9.042   8.871   8.168
29489WAT      O88708   9.234   4.428   2.033
29489WAT     H188709   9.288   4.464   2.109
29489WAT     H288710   9.269   4.466   1.947
29490WAT      O88711   5.255   4.414   0.256
29490WAT     H188712   5.338   4.443   0.304
29490WAT     H288713   5.182   4.480   0.273
29491WAT      O88714   6.857   4.620   4.807
29491WAT     H188715   6.926   4.584   4.744
29491WAT     H288716   6.829   4.548   4.870
29492WAT      O88717   4.615   4.877   8.763
29492WAT     H188718   4.523   4.847   8.786
29492WAT     H288719   4.620   4.902   8.667
29493WAT      O88720   0.654   4.033   2.664
29493WAT     H188721   0.688   4.119   2.627
29493WAT     H288722   0.563   4.014   2.627
29494WAT      O88723   7.976   1.650   0.654
29494WAT     H188724   7.991   1.554   0.678
29494WAT     H288725   7.913   1.691   0.719
29495WAT      O88726   7.303   4.710   7.685
29495WAT     H188727   7.352   4.658   7.755
29495WAT     H288728   7.348   4.798   7.671
29496WAT      O88729   0.979   0.320   7.215
29496WAT     H188730   0.979   0.408   7.263
29496WAT     H288731   0.931   0.252   7.271
29497WAT      O88732   6.226   8.434   2.481
29497WAT     H188733   6.323   8.457   2.473
29497WAT     H288734   6.195   8.389   2.397
29498WAT      O88735   2.858   1.318   5.490
29498WAT     H188736   2.856   1.271   5.578
29498WAT     H288737   2.917   1.398   5.496
29499WAT      O88738   8.853   5.894   4.688
29499WAT     H188739   8.848   5.922   4.784
29499WAT     H288740   8.899   5.806   4.681
29500WAT      O88741   9.808   2.576   2.508
29500WAT     H188742   9.834   2.512   2.579
29500WAT     H288743   9.799   2.528   2.421
29501WAT      O88744   1.507   1.926   7.610
29501WAT     H188745   1.552   1.848   7.653
29501WAT     H288746   1.467   1.897   7.523
29502WAT      O88747   6.831   8.765   6.662
29502WAT     H188748   6.868   8.678   6.694
29502WAT     H288749   6.749   8.749   6.608
29503WAT      O88750   4.461   8.137   5.858
29503WAT     H188751   4.533   8.137   5.927
29503WAT     H288752   4.401   8.215   5.873
29504WAT      O88753   7.412   2.481   0.502
29504WAT     H188754   7.498   2.501   0.455
29504WAT     H288755   7.415   2.388   0.539
29505WAT      O88756   9.259   3.073   3.026
29505WAT     H188757   9.331   3.014   2.991
29505WAT     H288758   9.216   3.122   2.950
29506WAT      O88759   4.930   6.338   7.149
29506WAT     H188760   4.951   6.420   7.095
29506WAT     H288761   5.010   6.311   7.202
29507WAT      O88762   2.079   7.807   8.580
29507WAT     H188763   2.002   7.854   8.623
29507WAT     H288764   2.164   7.836   8.624
29508WAT      O88765   0.300   4.054   7.939
29508WAT     H188766   0.313   3.971   7.994
29508WAT     H288767   0.255   4.030   7.853
29509WAT      O88768   0.577   1.000   1.715
29509WAT     H188769   0.584   1.002   1.616
29509WAT     H288770   0.593   0.907   1.748
29510WAT      O88771   0.180   1.725   6.766
29510WAT     H188772   0.193   1.627   6.749
29510WAT     H288773   0.089   1.739   6.806
29511WAT      O88774   8.380   3.227   8.612
29511WAT     H188775   8.396   3.147   8.554
29511WAT     H288776   8.376   3.198   8.708
29512WAT      O88777   5.712   0.057   2.094
29512WAT     H188778   5.631   0.096   2.050
29512WAT     H288779   5.761   0.128   2.144
29513WAT      O88780   4.053   0.152   0.045
29513WAT     H188781   4.081   0.224   0.109
29513WAT     H288782   3.959   0.125   0.063
29514WAT      O88783   8.142   8.385   4.904
29514WAT     H188784   8.105   8.459   4.961
29514WAT     H288785   8.084   8.304   4.912
29515WAT      O88786   6.192   4.231   4.414
29515WAT     H188787   6.267   4.255   4.476
29515WAT     H288788   6.116   4.293   4.429
29516WAT      O88789   5.115   3.330   5.364
29516WAT     H188790   5.052   3.399   5.330
29516WAT     H288791   5.065   3.263   5.419
29517WAT      O88792   7.214   4.034   7.282
29517WAT     H188793   7.234   4.061   7.376
29517WAT     H288794   7.299   4.036   7.228
29518WAT      O88795   0.887   5.165   1.548
29518WAT     H188796   0.845   5.179   1.458
29518WAT     H288797   0.984   5.189   1.544
29519WAT      O88798   2.643   0.302   6.025
29519WAT     H188799   2.586   0.313   5.944
29519WAT     H288800   2.615   0.219   6.074
29520WAT      O88801   8.455   9.696   2.165
29520WAT     H188802   8.393   9.622   2.140
29520WAT     H288803   8.515   9.717   2.087
29521WAT      O88804   2.050   8.688   3.674
29521WAT     H188805   1.976   8.686   3.607
29521WAT     H288806   2.085   8.595   3.688
29522WAT      O88807   7.157   9.036   0.403
29522WAT     H188808   7.121   9.118   0.447
29522WAT     H288809   7.252   9.022   0.431
29523WAT      O88810   4.788   1.519   1.418
29523WAT     H188811   4.853   1.582   1.375
29523WAT     H288812   4.778   1.543   1.515
29524WAT      O88813   8.222   5.845   8.345
29524WAT     H188814   8.151   5.846   8.274
29524WAT     H288815   8.312   5.847   8.301
29525WAT      O88816   2.718   2.468   9.889
29525WAT     H188817   2.694   2.496   9.795
29525WAT     H288818   2.814   2.443   9.893
29526WAT      O88819   0.090   6.072   6.161
29526WAT     H188820   0.099   6.065   6.061
29526WAT     H288821   0.035   5.996   6.194
29527WAT      O88822   4.689   6.985   7.412
29527WAT     H188823   4.618   6.953   7.475
29527WAT     H288824   4.778   6.975   7.455
29528WAT      O88825   8.125   0.453   8.571
29528WAT     H188826   8.077   0.521   8.516
29528WAT     H288827   8.144   0.490   8.662
29529WAT      O88828   5.268   5.828   5.255
29529WAT     H188829   5.232   5.842   5.163
29529WAT     H288830   5.368   5.833   5.254
29530WAT      O88831   1.269   2.384   0.319
29530WAT     H188832   1.237   2.370   0.225
29530WAT     H288833   1.220   2.461   0.360
29531WAT      O88834   2.640   2.178   9.035
29531WAT     H188835   2.714   2.232   8.994
29531WAT     H288836   2.638   2.087   8.993
29532WAT      O88837   2.095   5.715   6.399
29532WAT     H188838   2.116   5.618   6.410
29532WAT     H288839   2.130   5.747   6.311
29533WAT      O88840   8.823   7.452   0.608
29533WAT     H188841   8.781   7.398   0.681
29533WAT     H288842   8.922   7.437   0.608
29534WAT      O88843   6.697   5.944   7.256
29534WAT     H188844   6.606   5.964   7.293
29534WAT     H288845   6.687   5.896   7.169
29535WAT      O88846   0.076   8.840   7.727
29535WAT     H188847   0.041   8.813   7.637
29535WAT     H288848   0.176   8.842   7.725
29536WAT      O88849   3.713   2.822   2.407
29536WAT     H188850   3.794   2.877   2.428
29536WAT     H288851   3.655   2.870   2.341
29537WAT      O88852   4.349   5.125   2.433
29537WAT     H188853   4.268   5.183   2.434
29537WAT     H288854   4.398   5.137   2.347
29538WAT      O88855   9.796   5.024   7.995
29538WAT     H188856   9.766   5.088   7.924
29538WAT     H288857   9.855   5.072   8.061
29539WAT      O88858   1.738   8.496   4.942
29539WAT     H188859   1.816   8.538   4.895
29539WAT     H288860   1.716   8.409   4.899
29540WAT      O88861   1.282   4.036   1.252
29540WAT     H188862   1.197   3.985   1.245
29540WAT     H288863   1.267   4.117   1.309
29541WAT      O88864   8.114   1.711   9.780
29541WAT     H188865   8.109   1.622   9.734
29541WAT     H288866   8.156   1.699   9.870
29542WAT      O88867   5.001   6.330   3.121
29542WAT     H188868   4.951   6.320   3.207
29542WAT     H288869   4.939   6.361   3.050
29543WAT      O88870   1.358   9.509   7.086
29543WAT     H188871   1.444   9.525   7.035
29543WAT     H288872   1.281   9.524   7.025
29544WAT      O88873   5.918   8.292   8.168
29544WAT     H188874   5.920   8.192   8.161
29544WAT     H288875   5.949   8.320   8.259
29545WAT      O88876   6.139   8.355   7.078
29545WAT     H188877   6.133   8.323   6.984
29545WAT     H288878   6.200   8.434   7.082
29546WAT      O88879   4.457   7.309   7.665
29546WAT     H188880   4.527   7.316   7.594
29546WAT     H288881   4.483   7.366   7.743
29547WAT      O88882   3.490   0.750   0.555
29547WAT     H188883   3.507   0.848   0.560
29547WAT     H288884   3.541   0.703   0.627
29548WAT      O88885   0.076   9.535   5.950
29548WAT     H188886   0.122   9.573   6.030
29548WAT     H288887   0.040   9.610   5.893
29549WAT      O88888   5.135   9.580   7.523
29549WAT     H188889   5.147   9.670   7.563
29549WAT     H288890   5.037   9.557   7.521
29550WAT      O88891   9.197   8.366   4.930
29550WAT     H188892   9.220   8.309   5.009
29550WAT     H288893   9.280   8.411   4.896
29551WAT      O88894   8.631   8.261   3.048
29551WAT     H188895   8.701   8.328   3.023
29551WAT     H288896   8.556   8.307   3.096
29552WAT      O88897   3.750   0.699   8.092
29552WAT     H188898   3.744   0.622   8.029
29552WAT     H288899   3.745   0.785   8.042
29553WAT      O88900   1.829   6.062   2.438
29553WAT     H188901   1.831   5.965   2.461
29553WAT     H288902   1.746   6.082   2.386
29554WAT      O88903   4.647   2.045   2.753
29554WAT     H188904   4.634   2.060   2.655
29554WAT     H288905   4.629   1.949   2.774
29555WAT      O88906   3.802   1.248   6.451
29555WAT     H188907   3.758   1.159   6.437
29555WAT     H288908   3.732   1.319   6.452
29556WAT      O88909   0.011   4.125   5.328
29556WAT     H188910   0.029   4.223   5.321
29556WAT     H288911   0.008   4.085   5.237
29557WAT      O88912   2.331   5.926   6.060
29557WAT     H188913   2.292   6.018   6.058
29557WAT     H288914   2.374   5.910   6.149
29558WAT      O88915   4.465   3.946   2.003
29558WAT     H188916   4.384   3.949   2.061
29558WAT     H288917   4.446   3.994   1.917
29559WAT      O88918   4.599   5.042   5.091
29559WAT     H188919   4.578   4.998   5.004
29559WAT     H288920   4.698   5.040   5.106
29560WAT      O88921   1.480   0.035   4.210
29560WAT     H188922   1.529  -0.050   4.190
29560WAT     H288923   1.445   0.074   4.124
29561WAT      O88924   4.637   2.176   2.998
29561WAT     H188925   4.655   2.110   3.071
29561WAT     H288926   4.630   2.128   2.910
29562WAT      O88927   5.534   2.303   2.560
29562WAT     H188928   5.559   2.397   2.537
29562WAT     H288929   5.452   2.277   2.511
29563WAT      O88930   7.217   6.417   2.325
29563WAT     H188931   7.190   6.485   2.257
29563WAT     H288932   7.145   6.348   2.334
29564WAT      O88933   6.451   5.348   2.661
29564WAT     H188934   6.481   5.258   2.693
29564WAT     H288935   6.521   5.387   2.600
29565WAT      O88936   5.959   5.662   7.868
29565WAT     H188937   6.001   5.716   7.795
29565WAT     H288938   5.914   5.724   7.932
29566WAT      O88939   9.000   2.058   5.516
29566WAT     H188940   8.987   2.156   5.534
29566WAT     H288941   9.034   2.046   5.422
29567WAT      O88942   5.324   6.884   8.257
29567WAT     H188943   5.420   6.907   8.270
29567WAT     H288944   5.305   6.872   8.160
29568WAT      O88945   4.443   3.832   6.858
29568WAT     H188946   4.471   3.736   6.853
29568WAT     H288947   4.518   3.890   6.827
29569WAT      O88948   6.597   2.516   6.752
29569WAT     H188949   6.503   2.495   6.725
29569WAT     H288950   6.623   2.460   6.830
29570WAT      O88951   7.987   6.295   6.340
29570WAT     H188952   8.031   6.366   6.395
29570WAT     H288953   8.047   6.214   6.337
29571WAT      O88954   7.261   8.254   1.672
29571WAT     H188955   7.251   8.321   1.599
29571WAT     H288956   7.205   8.174   1.651
29572WAT      O88957   3.796   3.115   5.407
29572WAT     H188958   3.736   3.037   5.393
29572WAT     H288959   3.779   3.156   5.497
29573WAT      O88960   1.261   2.828   0.346
29573WAT     H188961   1.218   2.741   0.370
29573WAT     H288962   1.257   2.841   0.247
29574WAT      O88963   7.056   9.319   7.026
29574WAT     H188964   7.036   9.363   6.938
29574WAT     H288965   7.054   9.219   7.015
29575WAT      O88966   9.339   7.464   4.393
29575WAT     H188967   9.358   7.445   4.296
29575WAT     H288968   9.250   7.426   4.417
29576WAT      O88969   1.326   9.763   0.634
29576WAT     H188970   1.283   9.757   0.724
29576WAT     H288971   1.256   9.779   0.565
29577WAT      O88972   0.235   8.879   9.744
29577WAT     H188973   0.179   8.961   9.740
29577WAT     H288974   0.325   8.898   9.705
29578WAT      O88975   9.348   3.053   0.370
29578WAT     H188976   9.290   2.981   0.333
29578WAT     H288977   9.325   3.140   0.326
29579WAT      O88978   5.673   9.750   8.467
29579WAT     H188979   5.584   9.792   8.484
29579WAT     H288980   5.722   9.801   8.397
29580WAT      O88981   2.972   2.304   1.750
29580WAT     H188982   2.912   2.348   1.683
29580WAT     H288983   2.950   2.337   1.842
29581WAT      O88984   3.483   3.256   7.301
29581WAT     H188985   3.412   3.318   7.266
29581WAT     H288986   3.440   3.172   7.334
29582WAT      O88987   7.885   5.329   6.852
29582WAT     H188988   7.975   5.341   6.810
29582WAT     H288989   7.882   5.242   6.900
29583WAT      O88990   8.942   5.698   8.988
29583WAT     H188991   8.891   5.755   8.924
29583WAT     H288992   8.890   5.689   9.073
29584WAT      O88993   8.953   9.325   7.428
29584WAT     H188994   8.875   9.336   7.366
29584WAT     H288995   8.926   9.354   7.520
29585WAT      O88996   0.438   1.994   9.476
29585WAT     H188997   0.422   1.978   9.573
29585WAT     H288998   0.487   1.916   9.437
29586WAT      O88999   2.842   0.081   1.712
29586WAT     H189000   2.824   0.040   1.801
29586WAT     H289001   2.920   0.144   1.719
29587WAT      O89002   7.507   3.255   2.388
29587WAT     H189003   7.594   3.270   2.434
29587WAT     H289004   7.439   3.318   2.424
29588WAT      O89005   9.446   2.279   7.108
29588WAT     H189006   9.452   2.188   7.065
29588WAT     H289007   9.458   2.270   7.207
29589WAT      O89008   7.766   0.308   0.423
29589WAT     H189009   7.790   0.405   0.423
29589WAT     H289010   7.776   0.271   0.330
29590WAT      O89011   2.191   7.475   8.065
29590WAT     H189012   2.154   7.395   8.111
29590WAT     H289013   2.204   7.549   8.131
29591WAT      O89014   4.277   6.823   0.970
29591WAT     H189015   4.331   6.753   0.923
29591WAT     H289016   4.324   6.911   0.966
29592WAT      O89017   6.072   4.994   4.042
29592WAT     H189018   6.137   5.048   4.095
29592WAT     H289019   6.039   5.048   3.965
29593WAT      O89020   1.957   7.843   0.686
29593WAT     H189021   1.924   7.754   0.719
29593WAT     H289022   1.908   7.867   0.602
29594WAT      O89023   7.138   8.066   1.950
29594WAT     H189024   7.179   8.157   1.958
29594WAT     H289025   7.133   8.041   1.854
29595WAT      O89026   4.717   3.908   5.291
29595WAT     H189027   4.736   4.000   5.327
29595WAT     H289028   4.622   3.902   5.262
29596WAT      O89029   3.859   5.430   9.509
29596WAT     H189030   3.861   5.412   9.608
29596WAT     H289031   3.778   5.483   9.486
29597WAT      O89032   1.560   6.622   4.295
29597WAT     H189033   1.508   6.592   4.215
29597WAT     H289034   1.628   6.690   4.268
29598WAT      O89035   7.069   4.769   6.205
29598WAT     H189036   7.040   4.759   6.301
29598WAT     H289037   7.006   4.718   6.146
29599WAT      O89038   5.291   3.051   3.261
29599WAT     H189039   5.223   2.989   3.301
29599WAT     H289040   5.357   3.078   3.331
29600WAT      O89041   6.184   6.631   0.625
29600WAT     H189042   6.192   6.730   0.620
29600WAT     H289043   6.185   6.593   0.532
29601WAT      O89044   7.905   2.085   5.721
29601WAT     H189045   7.806   2.072   5.719
29601WAT     H289046   7.950   2.013   5.668
29602WAT      O89047   6.184   3.225   5.518
29602WAT     H189048   6.103   3.266   5.560
29602WAT     H289049   6.198   3.133   5.555
29603WAT      O89050   6.073   8.337   6.203
29603WAT     H189051   5.986   8.387   6.200
29603WAT     H289052   6.116   8.351   6.292
29604WAT      O89053   6.128   8.775   5.043
29604WAT     H189054   6.097   8.804   4.952
29604WAT     H289055   6.177   8.851   5.086
29605WAT      O89056   2.881   3.406   9.313
29605WAT     H189057   2.894   3.505   9.312
29605WAT     H289058   2.946   3.364   9.377
29606WAT      O89059   1.064   7.527   2.847
29606WAT     H189060   1.113   7.487   2.924
29606WAT     H289061   1.073   7.627   2.851
29607WAT      O89062   1.046   3.597   5.900
29607WAT     H189063   1.125   3.563   5.952
29607WAT     H289064   1.078   3.642   5.816
29608WAT      O89065   1.598   2.765   4.047
29608WAT     H189066   1.679   2.762   3.990
29608WAT     H289067   1.531   2.698   4.014
29609WAT      O89068   6.558   5.321   0.538
29609WAT     H189069   6.519   5.409   0.511
29609WAT     H289070   6.657   5.323   0.523
29610WAT      O89071   1.465   0.221   6.159
29610WAT     H189072   1.400   0.150   6.184
29610WAT     H289073   1.436   0.264   6.074
29611WAT      O89074   3.960   7.587   9.440
29611WAT     H189075   3.965   7.683   9.467
29611WAT     H289076   4.045   7.560   9.395
29612WAT      O89077   2.007   7.479   3.364
29612WAT     H189078   2.054   7.426   3.293
29612WAT     H289079   2.045   7.455   3.454
29613WAT      O89080   5.672   4.256   0.154
29613WAT     H189081   5.716   4.212   0.076
29613WAT     H289082   5.715   4.226   0.239
29614WAT      O89083   3.542   7.986   2.121
29614WAT     H189084   3.621   8.043   2.096
29614WAT     H289085   3.521   7.924   2.046
29615WAT      O89086   6.733   3.822   7.415
29615WAT     H189087   6.679   3.754   7.366
29615WAT     H289088   6.820   3.837   7.367
29616WAT      O89089   1.877   7.852   3.935
29616WAT     H189090   1.840   7.789   4.003
29616WAT     H289091   1.828   7.842   3.849
29617WAT      O89092   2.780   2.449   1.253
29617WAT     H189093   2.850   2.424   1.186
29617WAT     H289094   2.778   2.549   1.262
29618WAT      O89095   2.903   4.957   3.405
29618WAT     H189096   2.967   4.898   3.456
29618WAT     H289097   2.817   4.964   3.455
29619WAT      O89098   0.680   2.010   2.149
29619WAT     H189099   0.617   1.966   2.085
29619WAT     H289100   0.725   1.940   2.204
29620WAT      O89101   7.475   7.348   3.324
29620WAT     H189102   7.543   7.418   3.303
29620WAT     H289103   7.510   7.288   3.396
29621WAT      O89104   2.843   5.156   5.481
29621WAT     H189105   2.787   5.203   5.413
29621WAT     H289106   2.863   5.218   5.557
29622WAT      O89107   3.198   9.062   7.117
29622WAT     H189108   3.144   9.054   7.033
29622WAT     H289109   3.204   8.973   7.162
29623WAT      O89110   1.517   2.644   0.821
29623WAT     H189111   1.445   2.711   0.801
29623WAT     H289112   1.510   2.568   0.756
29624WAT      O89113   6.598   1.235   0.391
29624WAT     H189114   6.562   1.149   0.354
29624WAT     H289115   6.522   1.291   0.425
29625WAT      O89116   7.351   8.681   0.206
29625WAT     H189117   7.392   8.590   0.212
29625WAT     H289118   7.268   8.685   0.262
29626WAT      O89119   0.131   8.128   2.528
29626WAT     H189120   0.151   8.103   2.623
29626WAT     H289121   0.112   8.045   2.475
29627WAT      O89122   6.159   3.515   6.281
29627WAT     H189123   6.099   3.471   6.348
29627WAT     H289124   6.158   3.462   6.196
29628WAT      O89125   4.422   0.141   1.212
29628WAT     H189126   4.445   0.232   1.246
29628WAT     H289127   4.332   0.144   1.167
29629WAT      O89128   1.749   8.082   3.567
29629WAT     H189129   1.662   8.103   3.524
29629WAT     H289130   1.791   8.166   3.600
29630WAT      O89131   5.612   4.907   1.246
29630WAT     H189132   5.575   4.876   1.158
29630WAT     H289133   5.629   5.005   1.242
29631WAT      O89134   8.732   3.739   0.875
29631WAT     H189135   8.651   3.765   0.926
29631WAT     H289136   8.775   3.821   0.836
29632WAT      O89137   8.895   0.769   1.846
29632WAT     H189138   8.819   0.733   1.900
29632WAT     H289139   8.967   0.801   1.907
29633WAT      O89140   4.888   9.729   7.289
29633WAT     H189141   4.935   9.641   7.283
29633WAT     H289142   4.927   9.791   7.221
29634WAT      O89143   8.516   2.573   1.090
29634WAT     H189144   8.477   2.659   1.055
29634WAT     H289145   8.490   2.561   1.185
29635WAT      O89146   9.834   5.791   6.857
29635WAT     H189147   9.897   5.813   6.783
29635WAT     H289148   9.822   5.692   6.862
29636WAT      O89149   8.438   4.787   6.890
29636WAT     H189150   8.343   4.818   6.901
29636WAT     H289151   8.497   4.835   6.955
29637WAT      O89152   0.978   7.970   4.794
29637WAT     H189153   0.905   8.035   4.811
29637WAT     H289154   0.939   7.881   4.768
29638WAT      O89155   5.575   8.706   2.294
29638WAT     H189156   5.662   8.666   2.267
29638WAT     H289157   5.584   8.805   2.303
29639WAT      O89158   1.648   7.764   6.146
29639WAT     H189159   1.611   7.745   6.055
29639WAT     H289160   1.638   7.683   6.203
29640WAT      O89161   8.376   3.407   6.904
29640WAT     H189162   8.317   3.410   6.984
29640WAT     H289163   8.332   3.355   6.831
29641WAT      O89164   3.312   4.569   4.490
29641WAT     H189165   3.305   4.603   4.397
29641WAT     H289166   3.401   4.526   4.504
29642WAT      O89167   7.167   7.124   5.368
29642WAT     H189168   7.256   7.159   5.399
29642WAT     H289169   7.157   7.144   5.271
29643WAT      O89170   3.134   5.602   3.120
29643WAT     H189171   3.159   5.684   3.172
29643WAT     H289172   3.207   5.534   3.126
29644WAT      O89173   1.102   8.326   4.439
29644WAT     H189174   1.024   8.344   4.379
29644WAT     H289175   1.088   8.369   4.528
29645WAT      O89176   4.977   0.778   8.486
29645WAT     H189177   4.991   0.877   8.476
29645WAT     H289178   4.923   0.761   8.569
29646WAT      O89179   6.139   3.114   7.096
29646WAT     H189180   6.218   3.079   7.148
29646WAT     H289181   6.171   3.180   7.028
29647WAT      O89182   4.855   9.433   3.603
29647WAT     H189183   4.914   9.419   3.682
29647WAT     H289184   4.814   9.346   3.575
29648WAT      O89185   3.857   8.712   6.904
29648WAT     H189186   3.912   8.760   6.836
29648WAT     H289187   3.813   8.633   6.862
29649WAT      O89188   5.381   4.178   0.494
29649WAT     H189189   5.315   4.104   0.509
29649WAT     H289190   5.438   4.156   0.415
29650WAT      O89191   4.063   1.382   9.492
29650WAT     H189192   4.154   1.355   9.524
29650WAT     H289193   4.001   1.391   9.569
29651WAT      O89194   7.160   1.036   6.353
29651WAT     H189195   7.162   1.071   6.447
29651WAT     H289196   7.212   1.098   6.294
29652WAT      O89197   0.895   2.205   1.809
29652WAT     H189198   0.799   2.176   1.818
29652WAT     H289199   0.917   2.270   1.882
29653WAT      O89200   1.137   4.190   8.271
29653WAT     H189201   1.200   4.113   8.275
29653WAT     H289202   1.117   4.212   8.176
29654WAT      O89203   0.044   1.376   0.300
29654WAT     H189204   0.115   1.426   0.251
29654WAT     H289205  -0.028   1.440   0.329
29655WAT      O89206   8.535   6.359   3.370
29655WAT     H189207   8.602   6.325   3.303
29655WAT     H289208   8.574   6.355   3.462
29656WAT      O89209   8.881   8.885   3.998
29656WAT     H189210   8.836   8.806   3.955
29656WAT     H289211   8.934   8.934   3.929
29657WAT      O89212   6.459   9.513   4.025
29657WAT     H189213   6.419   9.460   4.099
29657WAT     H289214   6.459   9.610   4.050
29658WAT      O89215   9.658   6.161   5.328
29658WAT     H189216   9.560   6.141   5.322
29658WAT     H289217   9.700   6.099   5.395
29659WAT      O89218   0.122   9.535   7.153
29659WAT     H189219   0.212   9.491   7.159
29659WAT     H289220   0.052   9.472   7.187
29660WAT      O89221   7.937   4.539   7.972
29660WAT     H189222   7.898   4.606   8.035
29660WAT     H289223   8.031   4.519   7.998
29661WAT      O89224   2.562   5.339   1.207
29661WAT     H189225   2.513   5.273   1.264
29661WAT     H289226   2.554   5.313   1.111
29662WAT      O89227   9.849   4.390   5.332
29662WAT     H189228   9.800   4.454   5.273
29662WAT     H289229   9.850   4.426   5.426
29663WAT      O89230   3.862   9.471   0.937
29663WAT     H189231   3.830   9.541   1.001
29663WAT     H289232   3.833   9.494   0.845
29664WAT      O89233   4.225   3.997   0.396
29664WAT     H189234   4.191   3.969   0.486
29664WAT     H289235   4.246   4.095   0.397
29665WAT      O89236   6.478   1.276   1.008
29665WAT     H189237   6.478   1.202   0.941
29665WAT     H289238   6.385   1.298   1.035
29666WAT      O89239   4.804   3.139   6.291
29666WAT     H189240   4.845   3.053   6.320
29666WAT     H289241   4.706   3.137   6.307
29667WAT      O89242   7.226   2.028   6.147
29667WAT     H189243   7.286   2.082   6.089
29667WAT     H289244   7.279   1.984   6.219
29668WAT      O89245   7.187   5.897   3.642
29668WAT     H189246   7.145   5.971   3.693
29668WAT     H289247   7.255   5.935   3.579
29669WAT      O89248   2.071   4.196   5.528
29669WAT     H189249   1.974   4.206   5.508
29669WAT     H289250   2.082   4.146   5.614
29670WAT      O89251   0.246   9.348   3.218
29670WAT     H189252   0.260   9.389   3.127
29670WAT     H289253   0.335   9.325   3.257
29671WAT      O89254   4.721   9.331   8.099
29671WAT     H189255   4.806   9.306   8.052
29671WAT     H289256   4.677   9.248   8.134
29672WAT      O89257   1.778   2.218   1.968
29672WAT     H189258   1.756   2.125   1.996
29672WAT     H289259   1.826   2.265   2.041
29673WAT      O89260   0.126   9.084   8.058
29673WAT     H189261   0.028   9.099   8.055
29673WAT     H289262   0.145   8.997   8.106
29674WAT      O89263   4.664   4.759   4.487
29674WAT     H189264   4.637   4.848   4.524
29674WAT     H289265   4.718   4.709   4.554
29675WAT      O89266   8.427   0.835   1.298
29675WAT     H189267   8.459   0.740   1.300
29675WAT     H289268   8.359   0.847   1.225
29676WAT      O89269   4.030   8.629   6.278
29676WAT     H189270   4.075   8.682   6.206
29676WAT     H289271   3.931   8.627   6.261
29677WAT      O89272   6.026   0.261   0.891
29677WAT     H189273   5.962   0.236   0.818
29677WAT     H289274   6.013   0.200   0.969
29678WAT      O89275   5.996   8.226   0.554
29678WAT     H189276   5.963   8.256   0.465
29678WAT     H289277   5.935   8.155   0.590
29679WAT      O89278   9.714   7.436   3.282
29679WAT     H189279   9.708   7.395   3.373
29679WAT     H289280   9.626   7.426   3.235
29680WAT      O89281   0.221   5.817   3.945
29680WAT     H189282   0.163   5.736   3.929
29680WAT     H289283   0.163   5.893   3.974
29681WAT      O89284   0.137   6.776   7.699
29681WAT     H189285   0.118   6.848   7.632
29681WAT     H289286   0.218   6.801   7.752
29682WAT      O89287   6.570   1.444   9.090
29682WAT     H189288   6.477   1.410   9.103
29682WAT     H289289   6.585   1.523   9.150
29683WAT      O89290   2.966   6.146   6.852
29683WAT     H189291   2.958   6.142   6.951
29683WAT     H289292   2.937   6.058   6.812
29684WAT      O89293   5.986   4.876   5.719
29684WAT     H189294   6.060   4.867   5.785
29684WAT     H289295   6.023   4.881   5.626
29685WAT      O89296   6.015   9.796   0.266
29685WAT     H189297   6.085   9.727   0.284
29685WAT     H289298   5.925   9.752   0.264
29686WAT      O89299   4.601   1.264   4.819
29686WAT     H189300   4.686   1.301   4.858
29686WAT     H289301   4.616   1.241   4.723
29687WAT      O89302   1.094   7.856   9.683
29687WAT     H189303   1.012   7.891   9.638
29687WAT     H289304   1.173   7.872   9.625
29688WAT      O89305   2.283   2.351   9.623
29688WAT     H189306   2.301   2.449   9.619
29688WAT     H289307   2.213   2.332   9.692
29689WAT      O89308   2.506   1.395   1.719
29689WAT     H189309   2.596   1.352   1.720
29689WAT     H289310   2.499   1.459   1.643
29690WAT      O89311   8.168   2.852   1.314
29690WAT     H189312   8.087   2.897   1.354
29690WAT     H289313   8.182   2.886   1.221
29691WAT      O89314   9.123   3.231   5.439
29691WAT     H189315   9.037   3.280   5.447
29691WAT     H289316   9.168   3.227   5.529
29692WAT      O89317   9.250   8.532   5.808
29692WAT     H189318   9.289   8.561   5.895
29692WAT     H289319   9.171   8.591   5.786
29693WAT      O89320   3.169   5.542   5.264
29693WAT     H189321   3.074   5.566   5.244
29693WAT     H289322   3.188   5.558   5.361
29694WAT      O89323   1.462   6.197   0.503
29694WAT     H189324   1.527   6.246   0.445
29694WAT     H289325   1.384   6.256   0.522
29695WAT      O89326   4.878   7.770   2.680
29695WAT     H189327   4.806   7.722   2.730
29695WAT     H289328   4.921   7.707   2.615
29696WAT      O89329   8.700   5.701   5.997
29696WAT     H189330   8.705   5.706   5.897
29696WAT     H289331   8.689   5.793   6.034
29697WAT      O89332   9.540   2.286   4.665
29697WAT     H189333   9.485   2.226   4.606
29697WAT     H289334   9.563   2.369   4.615
29698WAT      O89335   3.006   1.521   6.894
29698WAT     H189336   2.920   1.534   6.943
29698WAT     H289337   3.027   1.605   6.843
29699WAT      O89338   3.455   5.016   9.647
29699WAT     H189339   3.374   4.972   9.609
29699WAT     H289340   3.536   4.987   9.596
29700WAT      O89341   5.243   7.967   8.144
29700WAT     H189342   5.220   7.892   8.081
29700WAT     H289343   5.336   7.998   8.126
29701WAT      O89344   2.824   2.451   9.218
29701WAT     H189345   2.791   2.465   9.125
29701WAT     H289346   2.787   2.522   9.278
29702WAT      O89347   1.335   7.466   5.275
29702WAT     H189348   1.294   7.489   5.186
29702WAT     H289349   1.263   7.458   5.344
29703WAT      O89350   2.720   7.122   3.822
29703WAT     H189351   2.801   7.175   3.849
29703WAT     H289352   2.712   7.042   3.882
29704WAT      O89353   0.218   4.663   0.341
29704WAT     H189354   0.141   4.655   0.277
29704WAT     H289355   0.186   4.702   0.427
29705WAT      O89356   2.592   3.875   1.422
29705WAT     H189357   2.598   3.779   1.450
29705WAT     H289358   2.533   3.925   1.485
29706WAT      O89359   2.034   1.988   5.674
29706WAT     H189360   2.032   1.944   5.764
29706WAT     H289361   2.124   1.976   5.633
29707WAT      O89362   5.685   9.278   4.674
29707WAT     H189363   5.735   9.202   4.715
29707WAT     H289364   5.588   9.254   4.666
29708WAT      O89365   3.747   5.193   7.469
29708WAT     H189366   3.660   5.196   7.418
29708WAT     H289367   3.735   5.240   7.557
29709WAT      O89368   1.079   5.206   2.660
29709WAT     H189369   1.175   5.180   2.671
29709WAT     H289370   1.049   5.184   2.567
29710WAT      O89371   6.270   0.928   9.041
29710WAT     H189372   6.244   0.832   9.040
29710WAT     H289373   6.220   0.975   9.115
29711WAT      O89374   5.705   1.788   3.064
29711WAT     H189375   5.647   1.752   3.138
29711WAT     H289376   5.765   1.859   3.101
29712WAT      O89377   3.526   9.765   7.849
29712WAT     H189378   3.517   9.666   7.864
29712WAT     H289379   3.521   9.785   7.751
29713WAT      O89380   2.798   8.025   6.330
29713WAT     H189381   2.721   8.085   6.309
29713WAT     H289382   2.876   8.049   6.272
29714WAT      O89383   9.616   2.454   8.065
29714WAT     H189384   9.545   2.482   8.129
29714WAT     H289385   9.693   2.517   8.071
29715WAT      O89386   4.016   8.543   6.663
29715WAT     H189387   3.924   8.569   6.691
29715WAT     H289388   4.014   8.509   6.569
29716WAT      O89389   1.182   6.461   1.415
29716WAT     H189390   1.250   6.443   1.486
29716WAT     H289391   1.090   6.453   1.454
29717WAT      O89392   1.068   8.888   5.254
29717WAT     H189393   1.015   8.970   5.230
29717WAT     H289394   1.134   8.869   5.182
29718WAT      O89395   4.037   2.033   4.162
29718WAT     H189396   4.051   2.132   4.154
29718WAT     H289397   3.941   2.011   4.144
29719WAT      O89398   8.219   1.806   5.761
29719WAT     H189399   8.147   1.832   5.697
29719WAT     H289400   8.186   1.819   5.855
29720WAT      O89401   0.224   8.801   6.615
29720WAT     H189402   0.198   8.791   6.519
29720WAT     H289403   0.172   8.737   6.671
29721WAT      O89404   5.378   4.034   7.318
29721WAT     H189405   5.286   4.062   7.288
29721WAT     H289406   5.375   3.941   7.352
29722WAT      O89407   6.551   4.087   8.956
29722WAT     H189408   6.569   4.069   9.053
29722WAT     H289409   6.554   4.000   8.905
29723WAT      O89410   0.879   7.719   4.737
29723WAT     H189411   0.875   7.630   4.783
29723WAT     H289412   0.895   7.705   4.639
29724WAT      O89413   3.119   5.830   6.835
29724WAT     H189414   3.207   5.835   6.881
29724WAT     H289415   3.046   5.846   6.902
29725WAT      O89416   2.970   2.493   0.241
29725WAT     H189417   2.947   2.409   0.290
29725WAT     H289418   3.003   2.471   0.150
29726WAT      O89419   8.362   8.390   6.530
29726WAT     H189420   8.433   8.459   6.543
29726WAT     H289421   8.305   8.385   6.612
29727WAT      O89422   0.863   8.733   5.396
29727WAT     H189423   0.784   8.723   5.337
29727WAT     H289424   0.899   8.826   5.388
29728WAT      O89425   6.347   1.896   0.930
29728WAT     H189426   6.291   1.922   1.008
29728WAT     H289427   6.399   1.813   0.953
29729WAT      O89428   3.945   7.224   0.541
29729WAT     H189429   3.948   7.180   0.631
29729WAT     H289430   3.864   7.282   0.535
29730WAT      O89431   8.233   0.487   1.558
29730WAT     H189432   8.273   0.433   1.484
29730WAT     H289433   8.189   0.426   1.624
29731WAT      O89434   1.031   1.877   6.777
29731WAT     H189435   1.028   1.976   6.770
29731WAT     H289436   0.937   1.841   6.776
29732WAT      O89437   9.453   8.466   1.811
29732WAT     H189438   9.498   8.392   1.762
29732WAT     H289439   9.383   8.429   1.872
29733WAT      O89440   9.804   4.462   2.832
29733WAT     H189441   9.831   4.557   2.848
29733WAT     H289442   9.829   4.407   2.911
29734WAT      O89443   0.019   1.496   4.256
29734WAT     H189444   0.115   1.500   4.228
29734WAT     H289445   0.013   1.502   4.356
29735WAT      O89446   7.476   3.746   7.338
29735WAT     H189447   7.417   3.823   7.360
29735WAT     H289448   7.487   3.688   7.419
29736WAT      O89449   5.169   3.517   1.489
29736WAT     H189450   5.222   3.537   1.406
29736WAT     H289451   5.072   3.509   1.466
29737WAT      O89452   1.245   5.292   8.605
29737WAT     H189453   1.324   5.304   8.665
29737WAT     H289454   1.234   5.195   8.584
29738WAT      O89455   2.877   0.262   4.228
29738WAT     H189456   2.889   0.227   4.321
29738WAT     H289457   2.897   0.190   4.162
29739WAT      O89458   2.283   4.937   7.335
29739WAT     H189459   2.242   4.932   7.425
29739WAT     H289460   2.363   4.997   7.338
29740WAT      O89461   9.156   0.873   4.074
29740WAT     H189462   9.195   0.882   4.166
29740WAT     H289463   9.072   0.819   4.078
29741WAT      O89464   3.348   2.206   3.351
29741WAT     H189465   3.268   2.259   3.379
29741WAT     H289466   3.412   2.265   3.302
29742WAT      O89467   6.443   9.505   8.095
29742WAT     H189468   6.540   9.502   8.119
29742WAT     H289469   6.399   9.420   8.124
29743WAT      O89470   6.293   1.187   4.736
29743WAT     H189471   6.307   1.217   4.641
29743WAT     H289472   6.204   1.220   4.768
29744WAT      O89473   2.032   4.190   9.456
29744WAT     H189474   2.039   4.122   9.382
29744WAT     H289475   1.965   4.260   9.431
29745WAT      O89476   7.866   1.061   8.100
29745WAT     H189477   7.936   0.998   8.066
29745WAT     H289478   7.887   1.153   8.068
29746WAT      O89479   3.288   7.135   1.861
29746WAT     H189480   3.305   7.043   1.897
29746WAT     H289481   3.202   7.135   1.811
29747WAT      O89482   4.457   6.772   1.756
29747WAT     H189483   4.539   6.766   1.813
29747WAT     H289484   4.395   6.842   1.793
29748WAT      O89485   6.366   2.327   5.810
29748WAT     H189486   6.338   2.354   5.718
29748WAT     H289487   6.418   2.242   5.806
29749WAT      O89488   2.133   5.754   8.274
29749WAT     H189489   2.055   5.776   8.333
29749WAT     H289490   2.151   5.829   8.212
29750WAT      O89491   8.893   5.563   3.845
29750WAT     H189492   8.956   5.598   3.914
29750WAT     H289493   8.841   5.639   3.805
29751WAT      O89494   6.079   1.567   0.729
29751WAT     H189495   6.078   1.636   0.801
29751WAT     H289496   6.041   1.481   0.765
29752WAT      O89497   5.977   9.776   7.160
29752WAT     H189498   5.900   9.729   7.203
29752WAT     H289499   5.961   9.783   7.062
29753WAT      O89500   3.770   0.065   1.121
29753WAT     H189501   3.731   0.132   1.057
29753WAT     H289502   3.712   0.060   1.203
29754WAT      O89503   0.022   2.565   7.255
29754WAT     H189504  -0.034   2.484   7.239
29754WAT     H289505   0.086   2.546   7.330
29755WAT      O89506   7.589   0.348   8.933
29755WAT     H189507   7.514   0.414   8.937
29755WAT     H289508   7.664   0.386   8.880
29756WAT      O89509   5.719   9.409   0.277
29756WAT     H189510   5.763   9.497   0.258
29756WAT     H289511   5.743   9.380   0.370
29757WAT      O89512   9.436   3.258   4.370
29757WAT     H189513   9.425   3.161   4.353
29757WAT     H289514   9.403   3.280   4.462
29758WAT      O89515   6.673   1.157   9.738
29758WAT     H189516   6.723   1.203   9.811
29758WAT     H289517   6.683   1.208   9.653
29759WAT      O89518   7.868   4.505   2.087
29759WAT     H189519   7.812   4.550   2.018
29759WAT     H289520   7.905   4.574   2.150
29760WAT      O89521   7.608   7.996   2.977
29760WAT     H189522   7.518   7.956   2.961
29760WAT     H289523   7.625   8.069   2.910
29761WAT      O89524   4.018   4.266   8.582
29761WAT     H189525   3.962   4.219   8.514
29761WAT     H289526   4.058   4.199   8.645
29762WAT      O89527   1.522   8.346   2.305
29762WAT     H189528   1.455   8.285   2.264
29762WAT     H289529   1.610   8.299   2.312
29763WAT      O89530   8.341   6.430   2.927
29763WAT     H189531   8.250   6.454   2.893
29763WAT     H289532   8.404   6.506   2.909
29764WAT      O89533   1.493   0.057   2.667
29764WAT     H189534   1.439   0.089   2.746
29764WAT     H289535   1.439   0.067   2.584
29765WAT      O89536   4.330   2.956   2.327
29765WAT     H189537   4.354   2.858   2.326
29765WAT     H289538   4.404   3.008   2.284
29766WAT      O89539   5.784   6.320   3.234
29766WAT     H189540   5.873   6.343   3.273
29766WAT     H289541   5.795   6.253   3.161
29767WAT      O89542   8.547   0.840   2.791
29767WAT     H189543   8.591   0.902   2.855
29767WAT     H289544   8.615   0.800   2.729
29768WAT      O89545   2.337   0.374   4.502
29768WAT     H189546   2.273   0.304   4.535
29768WAT     H289547   2.286   0.449   4.461
29769WAT      O89548   8.477   6.697   5.626
29769WAT     H189549   8.434   6.787   5.624
29769WAT     H289550   8.446   6.646   5.706
29770WAT      O89551   0.236   9.784   2.742
29770WAT     H189552   0.284   9.731   2.673
29770WAT     H289553   0.215   9.726   2.821
29771WAT      O89554   9.834   1.401   5.591
29771WAT     H189555   9.867   1.483   5.638
29771WAT     H289556   9.734   1.400   5.594
29772WAT      O89557   7.715   3.516   9.015
29772WAT     H189558   7.694   3.510   9.112
29772WAT     H289559   7.800   3.467   8.996
29773WAT      O89560   9.113   5.045   7.037
29773WAT     H189561   9.092   5.061   6.940
29773WAT     H289562   9.200   4.996   7.044
29774WAT      O89563   3.751   2.225   1.286
29774WAT     H189564   3.750   2.154   1.216
29774WAT     H289565   3.828   2.287   1.270
29775WAT      O89566   7.079   4.953   1.971
29775WAT     H189567   7.087   5.049   1.997
29775WAT     H289568   7.053   4.899   2.051
29776WAT      O89569   0.096   7.681   8.921
29776WAT     H189570   0.101   7.581   8.921
29776WAT     H289571   0.086   7.713   8.827
29777WAT      O89572   2.806   5.652   8.266
29777WAT     H189573   2.802   5.743   8.309
29777WAT     H289574   2.733   5.595   8.302
29778WAT      O89575   9.722   1.880   8.877
29778WAT     H189576   9.699   1.950   8.809
29778WAT     H289577   9.638   1.842   8.917
29779WAT      O89578   1.121   6.662   8.137
29779WAT     H189579   1.076   6.682   8.225
29779WAT     H289580   1.128   6.563   8.126
29780WAT      O89581   7.045   0.518   8.794
29780WAT     H189582   7.072   0.448   8.860
29780WAT     H289583   6.946   0.516   8.780
29781WAT      O89584   3.218   9.719   5.958
29781WAT     H189585   3.159   9.799   5.949
29781WAT     H289586   3.294   9.740   6.020
29782WAT      O89587   8.244   3.006   2.730
29782WAT     H189588   8.207   2.917   2.705
29782WAT     H289589   8.342   2.998   2.746
29783WAT      O89590   3.343   3.342   3.481
29783WAT     H189591   3.323   3.284   3.403
29783WAT     H289592   3.352   3.286   3.564
29784WAT      O89593   3.117   7.668   8.263
29784WAT     H189594   3.067   7.625   8.337
29784WAT     H289595   3.195   7.719   8.300
29785WAT      O89596   5.338   5.391   3.296
29785WAT     H189597   5.406   5.425   3.360
29785WAT     H289598   5.255   5.446   3.304
29786WAT      O89599   3.241   6.970   7.863
29786WAT     H189600   3.309   7.039   7.838
29786WAT     H289601   3.202   6.993   7.953
29787WAT      O89602   3.751   7.901   2.494
29787WAT     H189603   3.654   7.907   2.468
29787WAT     H289604   3.758   7.902   2.594
29788WAT      O89605   0.273   8.434   0.404
29788WAT     H189606   0.225   8.357   0.363
29788WAT     H289607   0.210   8.485   0.462
29789WAT      O89608   1.693   4.087   2.699
29789WAT     H189609   1.610   4.046   2.661
29789WAT     H289610   1.765   4.084   2.630
29790WAT      O89611   4.139   2.450   8.743
29790WAT     H189612   4.105   2.520   8.679
29790WAT     H289613   4.157   2.366   8.693
29791WAT      O89614   2.146   2.888   6.695
29791WAT     H189615   2.231   2.911   6.743
29791WAT     H289616   2.070   2.939   6.734
29792WAT      O89617   3.048   5.143   9.803
29792WAT     H189618   3.044   5.188   9.714
29792WAT     H289619   3.131   5.172   9.851
29793WAT      O89620   7.671   2.332   8.484
29793WAT     H189621   7.735   2.399   8.521
29793WAT     H289622   7.653   2.261   8.552
29794WAT      O89623   1.511   6.052   5.495
29794WAT     H189624   1.592   6.088   5.542
29794WAT     H289625   1.510   5.952   5.502
29795WAT      O89626   9.779   1.229   2.538
29795WAT     H189627   9.779   1.323   2.572
29795WAT     H289628   9.822   1.225   2.448
29796WAT      O89629   3.286   6.101   8.309
29796WAT     H189630   3.221   6.030   8.282
29796WAT     H289631   3.311   6.089   8.405
29797WAT      O89632   6.998   3.484   6.455
29797WAT     H189633   6.922   3.547   6.462
29797WAT     H289634   6.995   3.419   6.531
29798WAT      O89635   6.615   7.606   6.102
29798WAT     H189636   6.606   7.673   6.029
29798WAT     H289637   6.666   7.526   6.068
29799WAT      O89638   9.432   5.134   8.824
29799WAT     H189639   9.375   5.096   8.751
29799WAT     H289640   9.487   5.061   8.865
29800WAT      O89641   8.646   3.117   4.582
29800WAT     H189642   8.685   3.026   4.592
29800WAT     H289643   8.546   3.112   4.585
29801WAT      O89644   0.232   7.784   5.280
29801WAT     H189645   0.157   7.772   5.215
29801WAT     H289646   0.319   7.765   5.235
29802WAT      O89647   4.635   0.386   2.612
29802WAT     H189648   4.568   0.441   2.661
29802WAT     H289649   4.629   0.407   2.514
29803WAT      O89650   4.167   1.188   8.906
29803WAT     H189651   4.104   1.118   8.873
29803WAT     H289652   4.173   1.261   8.838
29804WAT      O89653   1.478   9.463   5.891
29804WAT     H189654   1.409   9.399   5.856
29804WAT     H289655   1.433   9.545   5.927
29805WAT      O89656   1.504   2.740   7.945
29805WAT     H189657   1.413   2.777   7.928
29805WAT     H289658   1.538   2.694   7.864
29806WAT      O89659   6.624   4.328   2.280
29806WAT     H189660   6.535   4.351   2.241
29806WAT     H289661   6.615   4.248   2.339
29807WAT      O89662   3.696   4.380   7.435
29807WAT     H189663   3.667   4.450   7.369
29807WAT     H289664   3.619   4.318   7.453
29808WAT      O89665   4.578   8.411   9.796
29808WAT     H189666   4.639   8.475   9.748
29808WAT     H289667   4.551   8.338   9.734
29809WAT      O89668   6.307   1.992   4.270
29809WAT     H189669   6.375   1.972   4.341
29809WAT     H289670   6.316   2.087   4.240
29810WAT      O89671   0.885   1.080   5.795
29810WAT     H189672   0.807   1.117   5.746
29810WAT     H289673   0.854   1.024   5.871
29811WAT      O89674   5.217   9.655   9.729
29811WAT     H189675   5.255   9.618   9.814
29811WAT     H289676   5.130   9.701   9.749
29812WAT      O89677   8.747   6.348   7.336
29812WAT     H189678   8.767   6.294   7.254
29812WAT     H289679   8.826   6.405   7.358
29813WAT      O89680   9.324   9.307   0.486
29813WAT     H189681   9.302   9.264   0.573
29813WAT     H289682   9.339   9.237   0.416
29814WAT      O89683   5.367   2.402   6.705
29814WAT     H189684   5.434   2.476   6.707
29814WAT     H289685   5.413   2.315   6.719
29815WAT      O89686   7.403   9.273   0.336
29815WAT     H189687   7.370   9.291   0.243
29815WAT     H289688   7.480   9.333   0.357
29816WAT      O89689   1.604   6.219   1.686
29816WAT     H189690   1.653   6.215   1.599
29816WAT     H289691   1.634   6.143   1.744
29817WAT      O89692   6.435   4.058   3.200
29817WAT     H189693   6.499   4.074   3.275
29817WAT     H289694   6.406   4.145   3.161
29818WAT      O89695   9.481   9.382   3.086
29818WAT     H189696   9.554   9.442   3.119
29818WAT     H289697   9.511   9.287   3.091
29819WAT      O89698   6.419   6.778   3.526
29819WAT     H189699   6.370   6.838   3.590
29819WAT     H289700   6.398   6.805   3.432
29820WAT      O89701   2.204   6.600   4.330
29820WAT     H189702   2.253   6.651   4.260
29820WAT     H289703   2.265   6.580   4.407
29821WAT      O89704   4.187   3.751   3.176
29821WAT     H189705   4.216   3.834   3.129
29821WAT     H289706   4.232   3.672   3.135
29822WAT      O89707   3.832   0.250   8.024
29822WAT     H189708   3.832   0.174   7.959
29822WAT     H289709   3.803   0.334   7.977
29823WAT      O89710   7.829   0.901   1.319
29823WAT     H189711   7.824   0.809   1.281
29823WAT     H289712   7.904   0.906   1.386
29824WAT      O89713   1.986   9.602   4.820
29824WAT     H189714   1.951   9.519   4.777
29824WAT     H289715   1.983   9.592   4.919
29825WAT      O89716   2.137   8.620   0.691
29825WAT     H189717   2.102   8.712   0.671
29825WAT     H289718   2.101   8.589   0.779
29826WAT      O89719   0.670   6.597   7.065
29826WAT     H189720   0.646   6.500   7.068
29826WAT     H289721   0.610   6.644   6.999
29827WAT      O89722   5.032   9.542   2.677
29827WAT     H189723   5.112   9.597   2.653
29827WAT     H289724   4.982   9.519   2.594
29828WAT      O89725   6.483   8.116   7.069
29828WAT     H189726   6.455   8.210   7.091
29828WAT     H289727   6.572   8.119   7.023
29829WAT      O89728   1.338   3.589   4.723
29829WAT     H189729   1.258   3.641   4.752
29829WAT     H289730   1.313   3.494   4.707
29830WAT      O89731   7.380   5.432   1.773
29830WAT     H189732   7.395   5.511   1.714
29830WAT     H289733   7.379   5.348   1.718
29831WAT      O89734   6.940   6.826   6.964
29831WAT     H189735   6.938   6.880   6.879
29831WAT     H289736   7.007   6.865   7.027
29832WAT      O89737   4.652   0.586   0.891
29832WAT     H189738   4.669   0.552   0.984
29832WAT     H289739   4.676   0.514   0.825
29833WAT      O89740   2.424   7.791   4.581
29833WAT     H189741   2.449   7.697   4.605
29833WAT     H289742   2.407   7.843   4.665
29834WAT      O89743   4.736   6.750   5.553
29834WAT     H189744   4.661   6.686   5.538
29834WAT     H289745   4.817   6.718   5.503
29835WAT      O89746   7.636   3.890   1.524
29835WAT     H189747   7.658   3.962   1.458
29835WAT     H289748   7.718   3.836   1.542
29836WAT      O89749   8.422   1.079   7.644
29836WAT     H189750   8.360   1.015   7.599
29836WAT     H289751   8.370   1.144   7.699
29837WAT      O89752   0.973   3.210   6.662
29837WAT     H189753   1.068   3.201   6.632
29837WAT     H289754   0.912   3.178   6.590
29838WAT      O89755   7.149   5.333   9.340
29838WAT     H189756   7.230   5.299   9.389
29838WAT     H289757   7.073   5.340   9.404
29839WAT      O89758   7.899   7.751   8.006
29839WAT     H189759   7.972   7.686   8.026
29839WAT     H289760   7.851   7.775   8.090
29840WAT      O89761   8.759   7.046   1.036
29840WAT     H189762   8.708   7.026   0.952
29840WAT     H289763   8.846   7.089   1.012
29841WAT      O89764   1.791   0.880   9.766
29841WAT     H189765   1.874   0.890   9.710
29841WAT     H289766   1.710   0.892   9.709
29842WAT      O89767   2.518   4.624   9.113
29842WAT     H189768   2.604   4.660   9.150
29842WAT     H289769   2.509   4.527   9.136
29843WAT      O89770   1.489   0.551   6.878
29843WAT     H189771   1.537   0.517   6.797
29843WAT     H289772   1.392   0.527   6.871
29844WAT      O89773   3.204   5.460   2.800
29844WAT     H189774   3.213   5.552   2.765
29844WAT     H289775   3.294   5.414   2.799
29845WAT      O89776   7.755   3.311   8.110
29845WAT     H189777   7.749   3.265   8.198
29845WAT     H289778   7.678   3.284   8.052
29846WAT      O89779   5.698   5.371   8.391
29846WAT     H189780   5.795   5.369   8.367
29846WAT     H289781   5.643   5.362   8.308
29847WAT      O89782   3.056   7.030   4.188
29847WAT     H189783   3.147   7.018   4.148
29847WAT     H289784   3.006   6.944   4.181
29848WAT      O89785   5.900   2.125   8.025
29848WAT     H189786   5.930   2.144   8.119
29848WAT     H289787   5.864   2.209   7.984
29849WAT      O89788   4.565   5.295   2.806
29849WAT     H189789   4.523   5.223   2.751
29849WAT     H289790   4.578   5.263   2.900
29850WAT      O89791   3.417   2.388   2.388
29850WAT     H189792   3.500   2.376   2.334
29850WAT     H289793   3.359   2.458   2.346
29851WAT      O89794   8.023   8.857   4.617
29851WAT     H189795   7.978   8.768   4.624
29851WAT     H289796   7.982   8.910   4.543
29852WAT      O89797   8.910   8.900   6.945
29852WAT     H189798   8.943   8.877   6.853
29852WAT     H289799   8.842   8.973   6.938
29853WAT      O89800   5.572   1.415   6.556
29853WAT     H189801   5.598   1.497   6.607
29853WAT     H289802   5.552   1.441   6.461
29854WAT      O89803   7.619   5.728   4.830
29854WAT     H189804   7.658   5.789   4.761
29854WAT     H289805   7.692   5.694   4.889
29855WAT      O89806   1.471   4.983   9.829
29855WAT     H189807   1.507   4.898   9.789
29855WAT     H289808   1.372   4.986   9.815
29856WAT      O89809   0.069   1.424   2.803
29856WAT     H189810   0.118   1.491   2.859
29856WAT     H289811   0.063   1.337   2.853
29857WAT      O89812   4.397   6.020   2.033
29857WAT     H189813   4.383   5.952   1.961
29857WAT     H289814   4.410   6.110   1.991
29858WAT      O89815   6.365   7.050   4.589
29858WAT     H189816   6.273   7.088   4.573
29858WAT     H289817   6.407   7.028   4.501
29859WAT      O89818   8.474   6.279   3.861
29859WAT     H189819   8.377   6.285   3.840
29859WAT     H289820   8.487   6.281   3.960
29860WAT      O89821   2.856   7.367   6.309
29860WAT     H189822   2.916   7.381   6.230
29860WAT     H289823   2.909   7.378   6.394
29861WAT      O89824   0.793   4.672   1.821
29861WAT     H189825   0.708   4.624   1.798
29861WAT     H289826   0.803   4.752   1.762
29862WAT      O89827   2.897   3.783   7.125
29862WAT     H189828   2.990   3.745   7.131
29862WAT     H289829   2.865   3.774   7.031
29863WAT      O89830   0.306   2.482   8.840
29863WAT     H189831   0.318   2.498   8.938
29863WAT     H289832   0.333   2.563   8.790
29864WAT      O89833   7.036   3.223   6.122
29864WAT     H189834   7.126   3.221   6.166
29864WAT     H289835   7.047   3.214   6.023
29865WAT      O89836   2.888   6.267   2.183
29865WAT     H189837   2.809   6.318   2.216
29865WAT     H289838   2.858   6.195   2.120
29866WAT      O89839   8.436   5.849   5.908
29866WAT     H189840   8.501   5.922   5.931
29866WAT     H289841   8.343   5.880   5.927
29867WAT      O89842   8.797   9.667   7.505
29867WAT     H189843   8.839   9.592   7.557
29867WAT     H289844   8.830   9.664   7.411
29868WAT      O89845   6.653   6.588   4.985
29868WAT     H189846   6.557   6.616   4.984
29868WAT     H289847   6.683   6.576   5.080
29869WAT      O89848   4.547   4.823   4.903
29869WAT     H189849   4.450   4.820   4.881
29869WAT     H289850   4.562   4.789   4.996
29870WAT      O89851   8.492   1.882   6.633
29870WAT     H189852   8.538   1.911   6.549
29870WAT     H289853   8.548   1.907   6.712
29871WAT      O89854   6.386   6.844   2.746
29871WAT     H189855   6.468   6.871   2.696
29871WAT     H289856   6.305   6.867   2.691
29872WAT      O89857   5.785   5.380   3.527
29872WAT     H189858   5.884   5.381   3.511
29872WAT     H289859   5.747   5.294   3.494
29873WAT      O89860   6.680   8.365   2.516
29873WAT     H189861   6.771   8.348   2.554
29873WAT     H289862   6.616   8.296   2.549
29874WAT      O89863   6.276   6.411   8.349
29874WAT     H189864   6.191   6.393   8.299
29874WAT     H289865   6.346   6.442   8.285
29875WAT      O89866   2.629   2.030   4.314
29875WAT     H189867   2.623   1.970   4.394
29875WAT     H289868   2.724   2.057   4.300
29876WAT      O89869   6.085   4.067   2.176
29876WAT     H189870   6.172   4.097   2.216
29876WAT     H289871   6.102   4.022   2.088
29877WAT      O89872   8.069   9.604   5.651
29877WAT     H189873   8.049   9.668   5.726
29877WAT     H289874   8.146   9.546   5.676
29878WAT      O89875   9.723   9.271   5.324
29878WAT     H189876   9.631   9.233   5.326
29878WAT     H289877   9.732   9.333   5.247
29879WAT      O89878   6.741   2.440   6.512
29879WAT     H189879   6.714   2.477   6.601
29879WAT     H289880   6.792   2.511   6.462
29880WAT      O89881   7.108   3.465   9.241
29880WAT     H189882   7.107   3.565   9.234
29880WAT     H289883   7.141   3.439   9.332
29881WAT      O89884   4.057   0.335   8.904
29881WAT     H189885   4.021   0.415   8.857
29881WAT     H289886   3.998   0.256   8.886
29882WAT      O89887   0.439   7.108   6.286
29882WAT     H189888   0.397   7.035   6.234
29882WAT     H289889   0.436   7.193   6.233
29883WAT      O89890   7.179   9.696   3.170
29883WAT     H189891   7.265   9.689   3.119
29883WAT     H289892   7.199   9.710   3.267
29884WAT      O89893   9.666   6.032   7.999
29884WAT     H189894   9.609   5.950   7.987
29884WAT     H289895   9.655   6.092   7.920
29885WAT      O89896   8.788   5.328   9.577
29885WAT     H189897   8.849   5.361   9.648
29885WAT     H289898   8.836   5.325   9.489
29886WAT      O89899   6.108   6.454   6.799
29886WAT     H189900   6.188   6.478   6.744
29886WAT     H289901   6.051   6.388   6.749
29887WAT      O89902   3.135   4.404   0.645
29887WAT     H189903   3.106   4.311   0.624
29887WAT     H289904   3.172   4.447   0.563
29888WAT      O89905   6.708   7.332   5.770
29888WAT     H189906   6.732   7.387   5.850
29888WAT     H289907   6.659   7.389   5.704
29889WAT      O89908   4.857   5.670   8.974
29889WAT     H189909   4.935   5.627   9.020
29889WAT     H289910   4.773   5.622   8.999
29890WAT      O89911   4.587   0.831   1.099
29890WAT     H189912   4.576   0.768   1.023
29890WAT     H289913   4.684   0.838   1.123
29891WAT      O89914   0.416   0.835   8.596
29891WAT     H189915   0.397   0.785   8.681
29891WAT     H289916   0.371   0.924   8.599
29892WAT      O89917   5.534   2.112   3.074
29892WAT     H189918   5.461   2.113   3.005
29892WAT     H289919   5.579   2.023   3.072
29893WAT      O89920   6.548   4.994   2.188
29893WAT     H189921   6.540   5.030   2.281
29893WAT     H289922   6.491   4.912   2.179
29894WAT      O89923   1.728   5.003   3.026
29894WAT     H189924   1.816   5.007   3.073
29894WAT     H289925   1.677   5.088   3.043
29895WAT      O89926   5.210   0.995   4.289
29895WAT     H189927   5.175   1.054   4.216
29895WAT     H289928   5.147   0.919   4.304
29896WAT      O89929   7.015   7.089   1.194
29896WAT     H189930   6.987   7.181   1.165
29896WAT     H289931   6.933   7.033   1.209
29897WAT      O89932   5.438   3.841   9.859
29897WAT     H189933   5.424   3.899   9.780
29897WAT     H289934   5.536   3.835   9.879
29898WAT      O89935   3.374   7.506   3.442
29898WAT     H189936   3.358   7.560   3.360
29898WAT     H289937   3.448   7.548   3.495
29899WAT      O89938   0.144   1.617   8.634
29899WAT     H189939   0.051   1.604   8.601
29899WAT     H289940   0.153   1.709   8.672
29900WAT      O89941   0.378   2.290   5.477
29900WAT     H189942   0.295   2.235   5.493
29900WAT     H289943   0.428   2.299   5.563
29901WAT      O89944   6.298   4.902   1.925
29901WAT     H189945   6.277   4.927   2.019
29901WAT     H289946   6.311   4.803   1.919
29902WAT      O89947   7.169   1.452   1.440
29902WAT     H189948   7.088   1.507   1.460
29902WAT     H289949   7.159   1.410   1.350
29903WAT      O89950   2.167   3.399   6.512
29903WAT     H189951   2.265   3.384   6.500
29903WAT     H289952   2.143   3.388   6.609
29904WAT      O89953   5.715   9.665   2.734
29904WAT     H189954   5.726   9.579   2.684
29904WAT     H289955   5.689   9.738   2.670
29905WAT      O89956   4.976   3.506   3.507
29905WAT     H189957   5.001   3.598   3.475
29905WAT     H289958   5.017   3.438   3.447
29906WAT      O89959   3.510   6.758   4.870
29906WAT     H189960   3.427   6.708   4.846
29906WAT     H289961   3.583   6.693   4.890
29907WAT      O89962   7.077   6.150   4.921
29907WAT     H189963   7.037   6.102   4.843
29907WAT     H289964   7.163   6.194   4.893
29908WAT      O89965   5.003   3.797   3.287
29908WAT     H189966   5.082   3.765   3.234
29908WAT     H289967   5.026   3.884   3.331
29909WAT      O89968   2.941   2.132   2.716
29909WAT     H189969   2.988   2.113   2.802
29909WAT     H289970   2.938   2.049   2.661
29910WAT      O89971   9.361   7.090   6.597
29910WAT     H189972   9.296   7.136   6.536
29910WAT     H289973   9.429   7.157   6.630
29911WAT      O89974   4.241   6.357   0.784
29911WAT     H189975   4.330   6.343   0.741
29911WAT     H289976   4.174   6.382   0.714
29912WAT      O89977   6.944   8.592   2.263
29912WAT     H189978   6.941   8.668   2.198
29912WAT     H289979   6.851   8.571   2.294
29913WAT      O89980   6.215   3.328   6.588
29913WAT     H189981   6.234   3.369   6.677
29913WAT     H289982   6.295   3.279   6.555
29914WAT      O89983   9.347   7.597   0.602
29914WAT     H189984   9.401   7.513   0.607
29914WAT     H289985   9.404   7.671   0.566
29915WAT      O89986   3.987   4.233   9.891
29915WAT     H189987   4.075   4.256   9.933
29915WAT     H289988   4.003   4.183   9.806
29916WAT      O89989   3.765   7.685   2.195
29916WAT     H189990   3.840   7.718   2.252
29916WAT     H289991   3.750   7.749   2.120
29917WAT      O89992   2.487   5.171   8.289
29917WAT     H189993   2.456   5.184   8.384
29917WAT     H289994   2.429   5.105   8.243
29918WAT      O89995   1.255   0.137   2.059
29918WAT     H189996   1.344   0.172   2.029
29918WAT     H289997   1.184   0.204   2.039
29919WAT      O89998   8.979   7.265   8.182
29919WAT     H189999   8.934   7.199   8.122
29919WAT     H290000   8.995   7.224   8.271
29920WAT      O90001   6.036   6.109   1.311
29920WAT     H190002   5.981   6.041   1.262
29920WAT     H290003   6.076   6.173   1.245
29921WAT      O90004   8.186   3.803   2.591
29921WAT     H190005   8.123   3.777   2.517
29921WAT     H290006   8.137   3.806   2.677
29922WAT      O90007   4.528   3.757   4.935
29922WAT     H190008   4.602   3.715   4.986
29922WAT     H290009   4.557   3.773   4.840
29923WAT      O90010   2.803   7.356   3.270
29923WAT     H190011   2.736   7.292   3.232
29923WAT     H290012   2.858   7.309   3.339
29924WAT      O90013   2.848   8.268   1.437
29924WAT     H190014   2.789   8.188   1.449
29924WAT     H290015   2.943   8.238   1.427
29925WAT      O90016   8.271   0.224   6.174
29925WAT     H190017   8.319   0.260   6.094
29925WAT     H290018   8.299   0.129   6.189
29926WAT      O90019   0.757   3.152   0.701
29926WAT     H190020   0.676   3.197   0.664
29926WAT     H290021   0.775   3.067   0.651
29927WAT      O90022   6.789   2.611   3.627
29927WAT     H190023   6.747   2.689   3.673
29927WAT     H290024   6.875   2.640   3.584
29928WAT      O90025   4.830   3.352   9.425
29928WAT     H190026   4.764   3.316   9.491
29928WAT     H290027   4.909   3.387   9.474
29929WAT      O90028   6.950   1.482   8.895
29929WAT     H190029   6.851   1.472   8.912
29929WAT     H290030   6.970   1.458   8.800
29930WAT      O90031   9.865   4.384   2.280
29930WAT     H190032   9.846   4.336   2.366
29930WAT     H290033   9.865   4.483   2.297
29931WAT      O90034   8.069   4.265   5.025
29931WAT     H190035   8.099   4.292   4.934
29931WAT     H290036   8.040   4.347   5.076
29932WAT      O90037   2.301   3.164   7.197
29932WAT     H190038   2.227   3.153   7.264
29932WAT     H290039   2.262   3.191   7.109
29933WAT      O90040   6.096   3.900   5.381
29933WAT     H190041   6.155   3.835   5.335
29933WAT     H290042   6.063   3.968   5.315
29934WAT      O90043   6.140   7.082   2.797
29934WAT     H190044   6.190   7.163   2.827
29934WAT     H290045   6.145   7.012   2.868
29935WAT      O90046   5.565   5.777   6.752
29935WAT     H190047   5.630   5.844   6.715
29935WAT     H290048   5.560   5.787   6.851
29936WAT      O90049   1.952   0.606   4.443
29936WAT     H190050   1.897   0.689   4.432
29936WAT     H290051   1.892   0.530   4.469
29937WAT      O90052   6.476   8.504   9.799
29937WAT     H190053   6.533   8.578   9.835
29937WAT     H290054   6.416   8.540   9.727
29938WAT      O90055   5.326   5.616   4.351
29938WAT     H190056   5.299   5.676   4.427
29938WAT     H290057   5.302   5.660   4.265
29939WAT      O90058   6.785   8.372   1.222
29939WAT     H190059   6.700   8.324   1.246
29939WAT     H290060   6.856   8.348   1.287
29940WAT      O90061   3.179   6.120   2.637
29940WAT     H190062   3.125   6.060   2.696
29940WAT     H290063   3.127   6.142   2.555
29941WAT      O90064   6.403   7.095   1.426
29941WAT     H190065   6.393   7.148   1.510
29941WAT     H290066   6.469   7.141   1.366
29942WAT      O90067   9.444   2.079   3.632
29942WAT     H190068   9.439   2.001   3.570
29942WAT     H290069   9.394   2.057   3.716
29943WAT      O90070   8.713   5.061   1.230
29943WAT     H190071   8.738   5.120   1.153
29943WAT     H290072   8.763   4.975   1.223
29944WAT      O90073   8.475   6.325   4.374
29944WAT     H190074   8.509   6.347   4.466
29944WAT     H290075   8.385   6.367   4.361
29945WAT      O90076   7.327   9.815   1.666
29945WAT     H190077   7.378   9.873   1.729
29945WAT     H290078   7.229   9.831   1.678
29946WAT      O90079   4.894   4.596   8.992
29946WAT     H190080   4.982   4.641   9.009
29946WAT     H290081   4.820   4.662   9.005
29947WAT      O90082   8.123   0.278   9.056
29947WAT     H190083   8.212   0.282   9.011
29947WAT     H290084   8.098   0.370   9.088
29948WAT      O90085   3.190   3.828   3.453
29948WAT     H190086   3.278   3.841   3.407
29948WAT     H290087   3.174   3.904   3.516
29949WAT      O90088   0.437  -0.004   2.014
29949WAT     H190089   0.409   0.092   2.012
29949WAT     H290090   0.492  -0.021   2.095
29950WAT      O90091   8.513   4.753   0.067
29950WAT     H190092   8.581   4.794   0.128
29950WAT     H290093   8.509   4.654   0.082
29951WAT      O90094   6.211   6.025   4.732
29951WAT     H190095   6.190   5.934   4.766
29951WAT     H290096   6.299   6.023   4.684
29952WAT      O90097   7.907   1.072   4.467
29952WAT     H190098   7.867   1.067   4.375
29952WAT     H290099   7.980   1.140   4.468
29953WAT      O90100   3.299   0.255   8.811
29953WAT     H190101   3.372   0.203   8.854
29953WAT     H290102   3.338   0.328   8.755
29954WAT      O90103   4.640   3.851   0.132
29954WAT     H190104   4.689   3.793   0.196
29954WAT     H290105   4.551   3.876   0.170
29955WAT      O90106   8.756   3.153   3.052
29955WAT     H190107   8.839   3.098   3.046
29955WAT     H290108   8.772   3.242   3.010
29956WAT      O90109   4.787   0.962   3.537
29956WAT     H190110   4.786   1.030   3.610
29956WAT     H290111   4.845   0.885   3.563
29957WAT      O90112   3.306   4.962   0.198
29957WAT     H190113   3.288   5.052   0.159
29957WAT     H290114   3.323   4.970   0.296
29958WAT      O90115   2.395   2.273   3.234
29958WAT     H190116   2.428   2.368   3.231
29958WAT     H290117   2.366   2.252   3.328
29959WAT      O90118   3.098   5.411   4.447
29959WAT     H190119   3.131   5.357   4.524
29959WAT     H290120   3.163   5.405   4.371
29960WAT      O90121   6.398   0.802   4.732
29960WAT     H190122   6.376   0.887   4.685
29960WAT     H290123   6.343   0.728   4.694
29961WAT      O90124   7.528   5.757   7.847
29961WAT     H190125   7.608   5.806   7.881
29961WAT     H290126   7.517   5.672   7.897
29962WAT      O90127   7.245   9.790   4.726
29962WAT     H190128   7.328   9.769   4.673
29962WAT     H290129   7.246   9.738   4.811
29963WAT      O90130   4.809   2.768   6.966
29963WAT     H190131   4.727   2.788   6.913
29963WAT     H290132   4.825   2.842   7.032
29964WAT      O90133   2.978   8.190   4.575
29964WAT     H190134   3.065   8.239   4.571
29964WAT     H290135   2.959   8.162   4.669
29965WAT      O90136   5.398   5.950   6.583
29965WAT     H190137   5.369   5.909   6.497
29965WAT     H290138   5.445   5.881   6.638
29966WAT      O90139   3.486   7.747   2.701
29966WAT     H190140   3.471   7.672   2.636
29966WAT     H290141   3.401   7.764   2.750
29967WAT      O90142   7.141   1.930   5.496
29967WAT     H190143   7.118   1.843   5.539
29967WAT     H290144   7.170   1.915   5.402
29968WAT      O90145   2.384   3.160   4.768
29968WAT     H190146   2.346   3.193   4.854
29968WAT     H290147   2.343   3.071   4.746
29969WAT      O90148   9.589   2.892   6.665
29969WAT     H190149   9.611   2.806   6.617
29969WAT     H290150   9.490   2.901   6.673
29970WAT      O90151   2.841   0.436   0.269
29970WAT     H190152   2.899   0.517   0.285
29970WAT     H290153   2.814   0.397   0.357
29971WAT      O90154   2.491   0.368   2.250
29971WAT     H190155   2.588   0.386   2.237
29971WAT     H290156   2.452   0.333   2.165
29972WAT      O90157   6.385   7.695   4.862
29972WAT     H190158   6.314   7.625   4.874
29972WAT     H290159   6.430   7.682   4.773
29973WAT      O90160   1.533   1.525   4.963
29973WAT     H190161   1.434   1.539   4.964
29973WAT     H290162   1.569   1.528   5.056
29974WAT      O90163   3.334   2.085   6.085
29974WAT     H190164   3.311   2.116   5.993
29974WAT     H290165   3.425   2.045   6.086
29975WAT      O90166   6.775   3.711   7.012
29975WAT     H190167   6.754   3.796   6.965
29975WAT     H290168   6.874   3.698   7.017
29976WAT      O90169   2.364   0.300   6.943
29976WAT     H190170   2.387   0.275   7.037
29976WAT     H290171   2.367   0.400   6.933
29977WAT      O90172   4.071   1.952   9.819
29977WAT     H190173   4.107   1.954   9.726
29977WAT     H290174   3.976   1.921   9.817
29978WAT      O90175   1.432   8.942   9.307
29978WAT     H190176   1.530   8.942   9.286
29978WAT     H290177   1.410   8.866   9.367
29979WAT      O90178   9.009   3.047   4.639
29979WAT     H190179   9.068   3.106   4.583
29979WAT     H290180   8.946   2.996   4.581
29980WAT      O90181   4.592   8.976   5.452
29980WAT     H190182   4.495   8.989   5.429
29980WAT     H290183   4.617   9.036   5.527
29981WAT      O90184   6.031   2.819   0.782
29981WAT     H190185   5.957   2.856   0.838
29981WAT     H290186   5.992   2.776   0.700
29982WAT      O90187   4.278   4.075   5.850
29982WAT     H190188   4.364   4.034   5.882
29982WAT     H290189   4.271   4.168   5.886
29983WAT      O90190   1.799   0.735   3.541
29983WAT     H190191   1.780   0.826   3.577
29983WAT     H290192   1.752   0.723   3.453
29984WAT      O90193   8.276   9.028   2.211
29984WAT     H190194   8.235   8.974   2.138
29984WAT     H290195   8.294   9.121   2.178
29985WAT      O90196   1.238   7.641   5.948
29985WAT     H190197   1.155   7.695   5.932
29985WAT     H290198   1.224   7.582   6.027
29986WAT      O90199   5.253   6.198   0.749
29986WAT     H190200   5.301   6.188   0.836
29986WAT     H290201   5.280   6.284   0.705
29987WAT      O90202   3.001   9.040   9.116
29987WAT     H190203   2.927   8.972   9.108
29987WAT     H290204   3.085   8.994   9.144
29988WAT      O90205   9.382   1.483   4.681
29988WAT     H190206   9.475   1.507   4.652
29988WAT     H290207   9.376   1.486   4.781
29989WAT      O90208   9.359   2.300   6.370
29989WAT     H190209   9.371   2.363   6.446
29989WAT     H290210   9.377   2.348   6.284
29990WAT      O90211   3.972   2.818   8.820
29990WAT     H190212   3.998   2.782   8.910
29990WAT     H290213   4.015   2.763   8.749
29991WAT      O90214   4.929   5.239   0.722
29991WAT     H190215   4.976   5.247   0.810
29991WAT     H290216   4.861   5.166   0.727
29992WAT      O90217   5.409   0.483   9.257
29992WAT     H190218   5.469   0.511   9.332
29992WAT     H290219   5.315   0.513   9.276
29993WAT      O90220   1.412   1.260   5.100
29993WAT     H190221   1.466   1.176   5.096
29993WAT     H290222   1.439   1.320   5.024
29994WAT      O90223   8.230   2.084   6.945
29994WAT     H190224   8.228   2.022   6.866
29994WAT     H290225   8.140   2.126   6.956
29995WAT      O90226   4.522   0.641   0.196
29995WAT     H190227   4.603   0.699   0.208
29995WAT     H290228   4.524   0.598   0.106
29996WAT      O90229   9.579   6.533   8.803
29996WAT     H190230   9.606   6.485   8.887
29996WAT     H290231   9.512   6.603   8.825
29997WAT      O90232   2.164   4.871   9.701
29997WAT     H190233   2.170   4.773   9.717
29997WAT     H290234   2.256   4.908   9.683
29998WAT      O90235   6.151   2.354   6.000
29998WAT     H190236   6.068   2.358   5.944
29998WAT     H290237   6.231   2.373   5.943
29999WAT      O90238   2.602   7.259   4.801
29999WAT     H190239   2.595   7.238   4.899
29999WAT     H290240   2.538   7.202   4.750
30000WAT      O90241   4.367   0.257   9.561
30000WAT     H190242   4.448   0.216   9.518
30000WAT     H290243   4.396   0.319   9.634
30001WAT      O90244   0.319   0.917   9.722
30001WAT     H190245   0.409   0.906   9.680
30001WAT     H290246   0.265   0.834   9.709
30002WAT      O90247   5.131   1.934   9.346
30002WAT     H190248   5.127   1.892   9.255
30002WAT     H290249   5.106   1.867   9.415
30003WAT      O90250   8.795   0.915   7.341
30003WAT     H190251   8.844   0.871   7.416
30003WAT     H290252   8.844   0.900   7.255
30004WAT      O90253   7.780   4.272   2.911
30004WAT     H190254   7.848   4.220   2.964
30004WAT     H290255   7.698   4.286   2.967
30005WAT      O90256   6.524   0.004   4.919
30005WAT     H190257   6.489  -0.078   4.966
30005WAT     H290258   6.502   0.085   4.973
30006WAT      O90259   4.935   5.281   8.961
30006WAT     H190260   4.988   5.198   8.978
30006WAT     H290261   4.870   5.295   9.036
30007WAT      O90262   9.507   0.285   4.764
30007WAT     H190263   9.561   0.369   4.757
30007WAT     H290264   9.535   0.235   4.846
30008WAT      O90265   1.035   2.034   3.352
30008WAT     H190266   0.949   1.987   3.375
30008WAT     H290267   1.091   2.042   3.434
30009WAT      O90268   2.857   5.327   8.913
30009WAT     H190269   2.938   5.381   8.892
30009WAT     H290270   2.861   5.241   8.863
30010WAT      O90271   2.721   4.864   0.611
30010WAT     H190272   2.699   4.882   0.707
30010WAT     H290273   2.807   4.909   0.588
30011WAT      O90274   4.737   7.780   2.250
30011WAT     H190275   4.661   7.775   2.186
30011WAT     H290276   4.720   7.855   2.315
30012WAT      O90277   1.018   8.224   6.794
30012WAT     H190278   1.064   8.144   6.832
30012WAT     H290279   1.086   8.288   6.759
30013WAT      O90280   2.255   7.879   3.711
30013WAT     H190281   2.343   7.877   3.663
30013WAT     H290282   2.187   7.829   3.657
30014WAT      O90283   7.952   5.886   9.458
30014WAT     H190284   8.031   5.943   9.481
30014WAT     H290285   7.888   5.886   9.535
30015WAT      O90286   8.174   3.884   8.114
30015WAT     H190287   8.107   3.813   8.133
30015WAT     H290288   8.195   3.935   8.197
30016WAT      O90289   2.810   7.303   1.591
30016WAT     H190290   2.749   7.299   1.511
30016WAT     H290291   2.763   7.351   1.665
30017WAT      O90292   7.317   2.178   2.766
30017WAT     H190293   7.328   2.081   2.787
30017WAT     H290294   7.233   2.212   2.808
30018WAT      O90295   8.033   4.386   8.926
30018WAT     H190296   7.934   4.373   8.934
30018WAT     H290297   8.051   4.478   8.890
30019WAT      O90298   8.752   1.651   3.556
30019WAT     H190299   8.796   1.650   3.646
30019WAT     H290300   8.814   1.609   3.489
30020WAT      O90301   8.897   8.059   4.095
30020WAT     H190302   8.846   8.024   4.017
30020WAT     H290303   8.984   8.011   4.102
30021WAT      O90304   1.107   7.748   3.594
30021WAT     H190305   1.089   7.838   3.554
30021WAT     H290306   1.205   7.738   3.609
30022WAT      O90307   0.394   5.443   0.496
30022WAT     H190308   0.472   5.379   0.495
30022WAT     H290309   0.333   5.421   0.420
30023WAT      O90310   9.718   5.549   6.933
30023WAT     H190311   9.639   5.598   6.969
30023WAT     H290312   9.737   5.470   6.990
30024WAT      O90313   5.025   3.123   4.211
30024WAT     H190314   4.966   3.178   4.152
30024WAT     H290315   5.102   3.088   4.157
30025WAT      O90316   1.589   6.514   5.552
30025WAT     H190317   1.689   6.508   5.562
30025WAT     H290318   1.561   6.463   5.471
30026WAT      O90319   6.895   6.815   0.628
30026WAT     H190320   6.994   6.805   0.639
30026WAT     H290321   6.848   6.787   0.711
30027WAT      O90322   1.787   8.163   6.591
30027WAT     H190323   1.877   8.168   6.636
30027WAT     H290324   1.779   8.075   6.544
30028WAT      O90325   8.435   3.909   9.656
30028WAT     H190326   8.473   3.816   9.652
30028WAT     H290327   8.381   3.919   9.740
30029WAT      O90328   7.515   6.708   2.096
30029WAT     H190329   7.516   6.619   2.050
30029WAT     H290330   7.598   6.718   2.151
30030WAT      O90331   7.841   4.231   3.566
30030WAT     H190332   7.829   4.309   3.503
30030WAT     H290333   7.854   4.147   3.513
30031WAT      O90334   4.048   2.524   2.972
30031WAT     H190335   4.000   2.611   2.985
30031WAT     H290336   3.987   2.459   2.926
30032WAT      O90337   5.357   3.599   9.777
30032WAT     H190338   5.357   3.607   9.677
30032WAT     H290339   5.389   3.685   9.817
30033WAT      O90340   9.327   4.263   3.634
30033WAT     H190341   9.304   4.300   3.724
30033WAT     H290342   9.426   4.266   3.621
30034WAT      O90343   8.738   9.587   6.572
30034WAT     H190344   8.813   9.522   6.558
30034WAT     H290345   8.730   9.609   6.670
30035WAT      O90346   9.156   6.480   5.634
30035WAT     H190347   9.209   6.488   5.549
30035WAT     H290348   9.174   6.391   5.676
30036WAT      O90349   8.371   9.689   1.203
30036WAT     H190350   8.301   9.683   1.133
30036WAT     H290351   8.421   9.602   1.209
30037WAT      O90352   7.905   6.976   3.052
30037WAT     H190353   7.926   7.014   2.962
30037WAT     H290354   7.989   6.973   3.107
30038WAT      O90355   3.270   2.343   9.190
30038WAT     H190356   3.216   2.427   9.186
30038WAT     H290357   3.264   2.302   9.281
30039WAT      O90358   8.191   0.795   1.136
30039WAT     H190359   8.174   0.778   1.039
30039WAT     H290360   8.161   0.715   1.189
30040WAT      O90361   8.072   8.465   9.848
30040WAT     H190362   8.088   8.411   9.766
30040WAT     H290363   8.037   8.555   9.823
30041WAT      O90364   3.650   6.966   7.632
30041WAT     H190365   3.721   6.905   7.597
30041WAT     H290366   3.591   6.996   7.556
30042WAT      O90367   3.788   4.713   5.738
30042WAT     H190368   3.788   4.783   5.809
30042WAT     H290369   3.746   4.750   5.655
30043WAT      O90370   9.564   5.146   7.204
30043WAT     H190371   9.653   5.118   7.239
30043WAT     H290372   9.513   5.194   7.276
30044WAT      O90373   3.630   4.464   2.799
30044WAT     H190374   3.617   4.516   2.714
30044WAT     H290375   3.602   4.369   2.786
30045WAT      O90376   3.178   0.866   6.925
30045WAT     H190377   3.157   0.891   6.831
30045WAT     H290378   3.130   0.929   6.987
30046WAT      O90379   0.608   0.293   9.411
30046WAT     H190380   0.666   0.323   9.335
30046WAT     H290381   0.579   0.372   9.463
30047WAT      O90382   5.789   3.987   7.330
30047WAT     H190383   5.877   3.964   7.289
30047WAT     H290384   5.728   4.025   7.260
30048WAT      O90385   2.788   8.665   0.822
30048WAT     H190386   2.839   8.608   0.887
30048WAT     H290387   2.749   8.607   0.751
30049WAT      O90388   9.756   4.934   1.595
30049WAT     H190389   9.838   4.989   1.586
30049WAT     H290390   9.679   4.981   1.552
30050WAT      O90391   6.119   5.455   4.106
30050WAT     H190392   6.061   5.391   4.055
30050WAT     H290393   6.184   5.499   4.044
30051WAT      O90394   7.471   8.090   6.244
30051WAT     H190395   7.395   8.036   6.207
30051WAT     H290396   7.545   8.029   6.271
30052WAT      O90397   2.758   3.448   6.528
30052WAT     H190398   2.843   3.458   6.477
30052WAT     H290399   2.744   3.528   6.587
30053WAT      O90400   7.868   7.690   4.537
30053WAT     H190401   7.884   7.596   4.508
30053WAT     H290402   7.948   7.725   4.586
30054WAT      O90403   2.413   1.707   6.797
30054WAT     H190404   2.491   1.715   6.860
30054WAT     H290405   2.446   1.681   6.706
30055WAT      O90406   7.037   3.374   2.338
30055WAT     H190407   7.031   3.298   2.403
30055WAT     H290408   6.946   3.396   2.305
30056WAT      O90409   0.627   1.548   8.580
30056WAT     H190410   0.529   1.531   8.594
30056WAT     H290411   0.669   1.575   8.666
30057WAT      O90412   2.058   8.632   7.579
30057WAT     H190413   2.126   8.662   7.512
30057WAT     H290414   2.049   8.533   7.574
30058WAT      O90415   0.795   4.302   9.280
30058WAT     H190416   0.744   4.370   9.332
30058WAT     H290417   0.893   4.320   9.289
30059WAT      O90418   3.286   2.813   3.397
30059WAT     H190419   3.200   2.861   3.380
30059WAT     H290420   3.283   2.723   3.354
30060WAT      O90421   3.965   4.041   7.276
30060WAT     H190422   4.032   4.023   7.348
30060WAT     H290423   4.000   4.007   7.189
30061WAT      O90424   5.985   9.649   1.860
30061WAT     H190425   6.050   9.655   1.785
30061WAT     H290426   6.029   9.604   1.939
30062WAT      O90427   3.827   5.926   7.007
30062WAT     H190428   3.775   5.872   6.942
30062WAT     H290429   3.869   5.865   7.075
30063WAT      O90430   3.385   8.710   8.127
30063WAT     H190431   3.291   8.738   8.106
30063WAT     H290432   3.394   8.692   8.225
30064WAT      O90433   6.130   6.786   4.612
30064WAT     H190434   6.218   6.739   4.617
30064WAT     H290435   6.135   6.857   4.542
30065WAT      O90436   8.015   0.594   2.652
30065WAT     H190437   8.088   0.657   2.626
30065WAT     H290438   8.052   0.501   2.660
30066WAT      O90439   9.474   3.229   0.156
30066WAT     H190440   9.550   3.293   0.161
30066WAT     H290441   9.490   3.153   0.220
30067WAT      O90442   5.336   5.949   9.092
30067WAT     H190443   5.253   5.905   9.127
30067WAT     H290444   5.408   5.943   9.161
30068WAT      O90445   2.998   2.768   4.294
30068WAT     H190446   2.919   2.793   4.239
30068WAT     H290447   3.052   2.850   4.314
30069WAT      O90448   6.603   7.091   0.147
30069WAT     H190449   6.638   7.008   0.105
30069WAT     H290450   6.595   7.163   0.078
30070WAT      O90451   1.281   2.150   0.474
30070WAT     H190452   1.283   2.239   0.429
30070WAT     H290453   1.225   2.087   0.421
30071WAT      O90454   0.476   6.244   0.058
30071WAT     H190455   0.546   6.309   0.028
30071WAT     H290456   0.410   6.231  -0.016
30072WAT      O90457   2.704   1.908   5.745
30072WAT     H190458   2.678   1.937   5.837
30072WAT     H290459   2.672   1.814   5.729
30073WAT      O90460   2.326   6.660   5.674
30073WAT     H190461   2.227   6.651   5.678
30073WAT     H290462   2.359   6.707   5.756
30074WAT      O90463   0.724   5.132   2.508
30074WAT     H190464   0.697   5.219   2.549
30074WAT     H290465   0.675   5.119   2.422
30075WAT      O90466   5.414   4.714   2.732
30075WAT     H190467   5.334   4.743   2.785
30075WAT     H290468   5.423   4.615   2.737
30076WAT      O90469   8.243   1.267   7.742
30076WAT     H190470   8.219   1.236   7.834
30076WAT     H290471   8.162   1.301   7.696
30077WAT      O90472   5.510   0.982   9.796
30077WAT     H190473   5.521   1.061   9.735
30077WAT     H290474   5.538   1.008   9.888
30078WAT      O90475   5.362   4.669   6.722
30078WAT     H190476   5.279   4.723   6.720
30078WAT     H290477   5.377   4.635   6.815
30079WAT      O90478   1.863   7.098   4.736
30079WAT     H190479   1.931   7.028   4.759
30079WAT     H290480   1.798   7.108   4.811
30080WAT      O90481   0.162   3.318   6.589
30080WAT     H190482   0.157   3.314   6.489
30080WAT     H290483   0.197   3.231   6.623
30081WAT      O90484   1.318   1.177   9.531
30081WAT     H190485   1.238   1.199   9.475
30081WAT     H290486   1.388   1.247   9.516
30082WAT      O90487   2.164   6.623   3.501
30082WAT     H190488   2.213   6.629   3.414
30082WAT     H290489   2.099   6.698   3.509
30083WAT      O90490   1.017   9.512   8.066
30083WAT     H190491   1.095   9.550   8.016
30083WAT     H290492   0.996   9.570   8.145
30084WAT      O90493   5.378   3.731   2.813
30084WAT     H190494   5.361   3.633   2.810
30084WAT     H290495   5.399   3.764   2.721
30085WAT      O90496   7.131   6.277   1.624
30085WAT     H190497   7.145   6.360   1.570
30085WAT     H290498   7.216   6.224   1.625
30086WAT      O90499   6.319   8.969   6.439
30086WAT     H190500   6.306   8.889   6.381
30086WAT     H290501   6.372   9.038   6.390
30087WAT      O90502   8.209   5.683   9.163
30087WAT     H190503   8.239   5.724   9.077
30087WAT     H290504   8.254   5.595   9.177
30088WAT      O90505   5.310   9.324   2.625
30088WAT     H190506   5.332   9.227   2.610
30088WAT     H290507   5.332   9.349   2.719
30089WAT      O90508   6.029   9.541   9.349
30089WAT     H190509   5.972   9.517   9.427
30089WAT     H290510   6.080   9.625   9.369
30090WAT      O90511   0.258   0.047   3.136
30090WAT     H190512   0.308   0.106   3.073
30090WAT     H290513   0.307   0.042   3.222
30091WAT      O90514   9.153   4.044   8.072
30091WAT     H190515   9.079   3.977   8.062
30091WAT     H290516   9.187   4.041   8.166
30092WAT      O90517   0.632   4.330   6.256
30092WAT     H190518   0.621   4.270   6.177
30092WAT     H290519   0.729   4.341   6.276
30093WAT      O90520   2.052   5.142   7.136
30093WAT     H190521   1.955   5.151   7.158
30093WAT     H290522   2.106   5.187   7.207
30094WAT      O90523   3.297   0.851   7.807
30094WAT     H190524   3.261   0.786   7.740
30094WAT     H290525   3.231   0.861   7.882
30095WAT      O90526   8.320   2.285   0.852
30095WAT     H190527   8.401   2.246   0.897
30095WAT     H290528   8.260   2.211   0.822
30096WAT      O90529   7.317   1.222   5.161
30096WAT     H190530   7.241   1.175   5.117
30096WAT     H290531   7.314   1.206   5.260
30097WAT      O90532   2.373   2.902   7.078
30097WAT     H190533   2.374   3.002   7.085
30097WAT     H290534   2.367   2.863   7.169
30098WAT      O90535   0.776   9.393   4.832
30098WAT     H190536   0.864   9.377   4.876
30098WAT     H290537   0.712   9.432   4.899
30099WAT      O90538   9.694   1.430   7.529
30099WAT     H190539   9.746   1.399   7.609
30099WAT     H290540   9.670   1.526   7.541
30100WAT      O90541   7.847   6.768   6.461
30100WAT     H190542   7.802   6.811   6.539
30100WAT     H290543   7.914   6.702   6.494
30101WAT      O90544   2.592   5.361   5.600
30101WAT     H190545   2.638   5.364   5.511
30101WAT     H290546   2.645   5.414   5.667
30102WAT      O90547   9.129   4.310   7.445
30102WAT     H190548   9.056   4.288   7.381
30102WAT     H290549   9.113   4.401   7.484
30103WAT      O90550   0.724   9.150   1.071
30103WAT     H190551   0.779   9.152   0.988
30103WAT     H290552   0.768   9.205   1.142
30104WAT      O90553   8.615   7.782   0.144
30104WAT     H190554   8.556   7.850   0.189
30104WAT     H290555   8.561   7.729   0.079
30105WAT      O90556   3.463   9.211   6.349
30105WAT     H190557   3.403   9.182   6.275
30105WAT     H290558   3.408   9.232   6.430
30106WAT      O90559   1.268   5.577   3.534
30106WAT     H190560   1.327   5.508   3.576
30106WAT     H290561   1.281   5.575   3.435
30107WAT      O90562   0.544   9.821   9.609
30107WAT     H190563   0.638   9.797   9.587
30107WAT     H290564   0.504   9.871   9.533
30108WAT      O90565   8.497   8.261   3.717
30108WAT     H190566   8.491   8.217   3.807
30108WAT     H290567   8.593   8.281   3.697
30109WAT      O90568   8.419   4.685   6.640
30109WAT     H190569   8.447   4.731   6.725
30109WAT     H290570   8.322   4.662   6.645
30110WAT      O90571   8.279   7.431   0.662
30110WAT     H190572   8.314   7.404   0.572
30110WAT     H290573   8.260   7.348   0.716
30111WAT      O90574   9.626   3.525   4.863
30111WAT     H190575   9.658   3.450   4.804
30111WAT     H290576   9.533   3.550   4.836
30112WAT      O90577   8.256   4.035   0.767
30112WAT     H190578   8.171   4.037   0.714
30112WAT     H290579   8.328   3.992   0.714
30113WAT      O90580   3.246   9.023   3.306
30113WAT     H190581   3.293   9.103   3.268
30113WAT     H290582   3.183   8.986   3.239
30114WAT      O90583   6.663   0.766   1.545
30114WAT     H190584   6.607   0.813   1.477
30114WAT     H290585   6.631   0.672   1.554
30115WAT      O90586   5.459   6.352   7.589
30115WAT     H190587   5.362   6.341   7.568
30115WAT     H290588   5.470   6.384   7.683
30116WAT      O90589   7.133   5.014   0.565
30116WAT     H190590   7.194   4.994   0.489
30116WAT     H290591   7.072   4.936   0.580
30117WAT      O90592   6.058   6.244   9.570
30117WAT     H190593   6.036   6.286   9.658
30117WAT     H290594   6.157   6.233   9.563
30118WAT      O90595   6.121   4.102   2.774
30118WAT     H190596   6.076   4.191   2.773
30118WAT     H290597   6.124   4.067   2.868
30119WAT      O90598   8.642   8.799   3.330
30119WAT     H190599   8.570   8.729   3.337
30119WAT     H290600   8.616   8.867   3.262
30120WAT      O90601   6.306   5.471   6.147
30120WAT     H190602   6.310   5.467   6.047
30120WAT     H290603   6.221   5.516   6.175
30121WAT      O90604   3.089   0.853   6.248
30121WAT     H190605   3.092   0.754   6.238
30121WAT     H290606   3.035   0.892   6.173
30122WAT      O90607   7.626   9.281   4.547
30122WAT     H190608   7.645   9.230   4.631
30122WAT     H290609   7.646   9.223   4.468
30123WAT      O90610   0.728   8.159   3.734
30123WAT     H190611   0.676   8.090   3.683
30123WAT     H290612   0.805   8.116   3.780
30124WAT      O90613   1.783   3.558   9.291
30124WAT     H190614   1.840   3.591   9.216
30124WAT     H290615   1.839   3.505   9.355
30125WAT      O90616   4.215   4.603   7.468
30125WAT     H190617   4.143   4.567   7.409
30125WAT     H290618   4.283   4.651   7.412
30126WAT      O90619   7.889   3.856   1.265
30126WAT     H190620   7.881   3.795   1.343
30126WAT     H290621   7.895   3.950   1.296
30127WAT      O90622   9.625   9.188   6.797
30127WAT     H190623   9.539   9.167   6.844
30127WAT     H290624   9.608   9.259   6.729
30128WAT      O90625   4.687   1.166   4.189
30128WAT     H190626   4.667   1.076   4.227
30128WAT     H290627   4.775   1.198   4.224
30129WAT      O90628   4.337   6.139   1.516
30129WAT     H190629   4.398   6.158   1.439
30129WAT     H290630   4.243   6.164   1.492
30130WAT      O90631   4.118   4.620   0.011
30130WAT     H190632   4.061   4.641  -0.068
30130WAT     H290633   4.113   4.695   0.077
30131WAT      O90634   2.681   6.852   3.548
30131WAT     H190635   2.663   6.923   3.479
30131WAT     H290636   2.664   6.762   3.508
30132WAT      O90637   2.005   0.365   0.499
30132WAT     H190638   1.919   0.396   0.458
30132WAT     H290639   1.991   0.346   0.596
30133WAT      O90640   6.508   3.626   3.232
30133WAT     H190641   6.425   3.572   3.218
30133WAT     H290642   6.514   3.696   3.161
30134WAT      O90643   0.527   7.224   4.220
30134WAT     H190644   0.491   7.281   4.294
30134WAT     H290645   0.612   7.264   4.185
30135WAT      O90646   8.748   4.830   2.911
30135WAT     H190647   8.775   4.796   2.821
30135WAT     H290648   8.816   4.803   2.980
30136WAT      O90649   5.647   6.394   6.371
30136WAT     H190650   5.699   6.312   6.348
30136WAT     H290651   5.559   6.391   6.324
30137WAT      O90652   2.289   3.734   5.949
30137WAT     H190653   2.365   3.694   6.000
30137WAT     H290654   2.220   3.768   6.013
30138WAT      O90655   2.394   6.842   5.877
30138WAT     H190656   2.470   6.884   5.827
30138WAT     H290657   2.425   6.818   5.969
30139WAT      O90658   0.154   5.820   5.039
30139WAT     H190659   0.161   5.872   5.123
30139WAT     H290660   0.115   5.730   5.058
30140WAT      O90661   2.765   7.228   3.568
30140WAT     H190662   2.858   7.265   3.563
30140WAT     H290663   2.757   7.170   3.649
30141WAT      O90664   9.167   9.608   0.762
30141WAT     H190665   9.169   9.527   0.821
30141WAT     H290666   9.165   9.691   0.818
30142WAT      O90667   3.423   7.027   0.245
30142WAT     H190668   3.390   6.945   0.292
30142WAT     H290669   3.502   7.064   0.294
30143WAT      O90670   0.897   1.208   3.513
30143WAT     H190671   0.896   1.267   3.594
30143WAT     H290672   0.961   1.133   3.527
30144WAT      O90673   2.198   1.427   4.692
30144WAT     H190674   2.280   1.394   4.646
30144WAT     H290675   2.195   1.527   4.690
30145WAT      O90676   0.242   1.600   6.277
30145WAT     H190677   0.304   1.635   6.208
30145WAT     H290678   0.278   1.621   6.369
30146WAT      O90679   6.387   2.503   4.990
30146WAT     H190680   6.330   2.423   4.973
30146WAT     H290681   6.339   2.567   5.050
30147WAT      O90682   8.829   3.930   6.146
30147WAT     H190683   8.869   3.852   6.096
30147WAT     H290684   8.897   3.966   6.210
30148WAT      O90685   3.062   1.969   6.129
30148WAT     H190686   3.087   1.994   6.223
30148WAT     H290687   3.105   2.033   6.065
30149WAT      O90688   6.675   6.253   7.270
30149WAT     H190689   6.606   6.181   7.263
30149WAT     H290690   6.647   6.318   7.341
30150WAT      O90691   5.874   5.557   4.514
30150WAT     H190692   5.938   5.564   4.590
30150WAT     H290693   5.814   5.637   4.514
30151WAT      O90694   5.045   8.181   5.005
30151WAT     H190695   5.106   8.133   5.068
30151WAT     H290696   4.961   8.129   4.994
30152WAT      O90697   9.427   7.665   1.055
30152WAT     H190698   9.404   7.596   0.986
30152WAT     H290699   9.403   7.631   1.146
30153WAT      O90700   7.520   4.908   0.809
30153WAT     H190701   7.531   4.876   0.904
30153WAT     H290702   7.607   4.898   0.760
30154WAT      O90703   4.742   4.125   5.454
30154WAT     H190704   4.745   4.117   5.554
30154WAT     H290705   4.735   4.222   5.429
30155WAT      O90706   0.550   7.152   8.185
30155WAT     H190707   0.557   7.196   8.096
30155WAT     H290708   0.590   7.060   8.179
30156WAT      O90709   8.666   3.358   8.986
30156WAT     H190710   8.725   3.281   9.011
30156WAT     H290711   8.709   3.409   8.912
30157WAT      O90712   0.662   4.528   4.421
30157WAT     H190713   0.623   4.586   4.493
30157WAT     H290714   0.676   4.582   4.338
30158WAT      O90715   5.081   8.507   0.586
30158WAT     H190716   5.087   8.455   0.501
30158WAT     H290717   5.157   8.483   0.646
30159WAT      O90718   8.349   6.919   6.934
30159WAT     H190719   8.275   6.938   6.870
30159WAT     H290720   8.314   6.869   7.013
30160WAT      O90721   1.799   3.975   9.794
30160WAT     H190722   1.894   3.976   9.764
30160WAT     H290723   1.739   3.997   9.717
30161WAT      O90724   8.074   2.904   9.876
30161WAT     H190725   7.984   2.905   9.919
30161WAT     H290726   8.141   2.942   9.940
30162WAT      O90727   2.565   5.415   3.670
30162WAT     H190728   2.621   5.333   3.658
30162WAT     H290729   2.468   5.390   3.661
30163WAT      O90730   6.558   9.323   8.484
30163WAT     H190731   6.598   9.238   8.518
30163WAT     H290732   6.496   9.303   8.409
30164WAT      O90733   4.133   0.783   7.072
30164WAT     H190734   4.230   0.798   7.091
30164WAT     H290735   4.123   0.714   7.001
30165WAT      O90736   0.908   9.391   3.287
30165WAT     H190737   0.919   9.300   3.247
30165WAT     H290738   0.852   9.384   3.370
30166WAT      O90739   9.661   4.060   7.966
30166WAT     H190740   9.638   3.980   7.911
30166WAT     H290741   9.759   4.062   7.985
30167WAT      O90742   7.289   2.958   4.088
30167WAT     H190743   7.242   3.009   4.017
30167WAT     H290744   7.370   3.010   4.118
30168WAT      O90745   1.945   6.673   7.267
30168WAT     H190746   1.970   6.619   7.347
30168WAT     H290747   1.968   6.623   7.184
30169WAT      O90748   9.744   3.653   6.733
30169WAT     H190749   9.754   3.722   6.661
30169WAT     H290750   9.829   3.602   6.742
30170WAT      O90751   1.895   5.859   0.570
30170WAT     H190752   1.980   5.805   0.567
30170WAT     H290753   1.863   5.875   0.477
30171WAT      O90754   2.413   7.084   2.531
30171WAT     H190755   2.497   7.087   2.584
30171WAT     H290756   2.422   7.017   2.458
30172WAT      O90757   7.002   9.264   3.492
30172WAT     H190758   7.030   9.285   3.585
30172WAT     H290759   7.072   9.207   3.448
30173WAT      O90760   6.056   6.637   8.454
30173WAT     H190761   6.151   6.668   8.456
30173WAT     H290762   6.019   6.634   8.547
30174WAT      O90763   8.578   9.360   4.424
30174WAT     H190764   8.486   9.399   4.423
30174WAT     H290765   8.580   9.276   4.368
30175WAT      O90766   7.574   4.462   3.561
30175WAT     H190767   7.592   4.558   3.585
30175WAT     H290768   7.617   4.441   3.473
30176WAT      O90769   6.900   1.325   6.726
30176WAT     H190770   6.970   1.373   6.779
30176WAT     H290771   6.849   1.263   6.785
30177WAT      O90772   8.326   8.079   4.666
30177WAT     H190773   8.253   8.011   4.667
30177WAT     H290774   8.348   8.103   4.571
30178WAT      O90775   3.784   5.679   5.012
30178WAT     H190776   3.717   5.650   4.943
30178WAT     H290777   3.876   5.652   4.983
30179WAT      O90778   6.927   1.191   5.934
30179WAT     H190779   6.912   1.155   6.027
30179WAT     H290780   6.941   1.114   5.871
30180WAT      O90781   5.075   3.247   7.542
30180WAT     H190782   5.100   3.195   7.461
30180WAT     H290783   5.113   3.204   7.624
30181WAT      O90784   2.481   1.126   4.548
30181WAT     H190785   2.506   1.134   4.451
30181WAT     H290786   2.392   1.079   4.555
30182WAT      O90787   4.096   9.075   1.043
30182WAT     H190788   4.067   9.093   1.137
30182WAT     H290789   4.185   9.118   1.027
30183WAT      O90790   0.700   9.335   6.292
30183WAT     H190791   0.706   9.237   6.309
30183WAT     H290792   0.787   9.367   6.254
30184WAT      O90793   0.071   3.480   8.913
30184WAT     H190794   0.161   3.440   8.895
30184WAT     H290795   0.054   3.556   8.851
30185WAT      O90796   8.859   2.338   8.802
30185WAT     H190797   8.835   2.309   8.895
30185WAT     H290798   8.958   2.346   8.794
30186WAT      O90799   1.754   8.963   2.428
30186WAT     H190800   1.736   8.926   2.337
30186WAT     H290801   1.759   8.889   2.494
30187WAT      O90802   8.292   1.406   9.781
30187WAT     H190803   8.233   1.448   9.712
30187WAT     H290804   8.385   1.441   9.771
30188WAT      O90805   2.083   8.573   6.148
30188WAT     H190806   2.056   8.615   6.235
30188WAT     H290807   2.034   8.487   6.137
30189WAT      O90808   6.847   9.354   0.665
30189WAT     H190809   6.912   9.381   0.736
30189WAT     H290810   6.857   9.415   0.586
30190WAT      O90811   9.739   1.110   9.021
30190WAT     H190812   9.663   1.048   9.000
30190WAT     H290813   9.703   1.200   9.045
30191WAT      O90814   3.248   6.369   4.446
30191WAT     H190815   3.321   6.313   4.407
30191WAT     H290816   3.194   6.408   4.372
30192WAT      O90817   6.894   4.112   8.120
30192WAT     H190818   6.935   4.199   8.092
30192WAT     H290819   6.824   4.085   8.054
30193WAT      O90820   9.191   4.418   5.208
30193WAT     H190821   9.278   4.370   5.214
30193WAT     H290822   9.203   4.502   5.155
30194WAT      O90823   2.636   6.773   0.832
30194WAT     H190824   2.679   6.683   0.823
30194WAT     H290825   2.575   6.789   0.755
30195WAT      O90826   5.659   6.408   1.009
30195WAT     H190827   5.694   6.424   0.917
30195WAT     H290828   5.625   6.495   1.047
30196WAT      O90829   5.211   9.793   6.600
30196WAT     H190830   5.233   9.736   6.680
30196WAT     H290831   5.288   9.855   6.582
30197WAT      O90832   1.656   4.444   6.346
30197WAT     H190833   1.680   4.373   6.280
30197WAT     H290834   1.733   4.458   6.409
30198WAT      O90835   6.717   4.452   5.510
30198WAT     H190836   6.780   4.522   5.476
30198WAT     H290837   6.745   4.424   5.602
30199WAT      O90838   8.984   7.829   6.924
30199WAT     H190839   8.911   7.825   6.992
30199WAT     H290840   8.962   7.768   6.848
30200WAT      O90841   2.409   0.148   3.828
30200WAT     H190842   2.415   0.110   3.736
30200WAT     H290843   2.451   0.238   3.830
30201WAT      O90844   2.524   5.930   6.676
30201WAT     H190845   2.545   5.959   6.582
30201WAT     H290846   2.523   6.009   6.736
30202WAT      O90847   8.786   3.170   8.754
30202WAT     H190848   8.777   3.270   8.753
30202WAT     H290849   8.806   3.140   8.847
30203WAT      O90850   1.526   9.666   1.857
30203WAT     H190851   1.593   9.670   1.782
30203WAT     H290852   1.439   9.704   1.825
30204WAT      O90853   3.017   2.157   8.707
30204WAT     H190854   2.960   2.196   8.779
30204WAT     H290855   3.082   2.226   8.675
30205WAT      O90856   9.173   3.662   5.886
30205WAT     H190857   9.136   3.635   5.797
30205WAT     H290858   9.224   3.747   5.876
30206WAT      O90859   5.494   6.225   0.914
30206WAT     H190860   5.549   6.289   0.968
30206WAT     H290861   5.537   6.212   0.825
30207WAT      O90862   4.501   5.783   8.820
30207WAT     H190863   4.414   5.749   8.783
30207WAT     H290864   4.495   5.789   8.919
30208WAT      O90865   4.907   2.111   4.223
30208WAT     H190866   4.826   2.159   4.258
30208WAT     H290867   4.989   2.145   4.269
30209WAT      O90868   1.132   1.712   9.326
30209WAT     H190869   1.181   1.767   9.259
30209WAT     H290870   1.156   1.743   9.418
30210WAT      O90871   2.780   0.978   4.928
30210WAT     H190872   2.725   0.987   5.011
30210WAT     H290873   2.759   1.054   4.866
30211WAT      O90874   2.025   6.810   4.070
30211WAT     H190875   2.058   6.728   4.025
30211WAT     H290876   2.000   6.879   4.002
30212WAT      O90877   0.285   4.060   0.546
30212WAT     H190878   0.355   3.993   0.569
30212WAT     H290879   0.218   4.020   0.484
30213WAT      O90880   2.646   6.082   1.770
30213WAT     H190881   2.693   6.035   1.695
30213WAT     H290882   2.591   6.016   1.821
30214WAT      O90883   6.706   1.237   5.081
30214WAT     H190884   6.761   1.320   5.069
30214WAT     H290885   6.635   1.235   5.011
30215WAT      O90886   1.209   1.420   3.011
30215WAT     H190887   1.290   1.398   3.066
30215WAT     H290888   1.161   1.497   3.053
30216WAT      O90889   0.421   7.645   1.748
30216WAT     H190890   0.483   7.687   1.815
30216WAT     H290891   0.352   7.591   1.796
30217WAT      O90892   1.098   9.670   5.328
30217WAT     H190893   1.174   9.711   5.378
30217WAT     H290894   1.012   9.705   5.364
30218WAT      O90895   2.034   8.914   7.860
30218WAT     H190896   2.133   8.899   7.859
30218WAT     H290897   1.987   8.826   7.856
30219WAT      O90898   7.255   9.177   1.250
30219WAT     H190899   7.196   9.254   1.276
30219WAT     H290900   7.253   9.108   1.322
30220WAT      O90901   0.398   6.294   9.291
30220WAT     H190902   0.332   6.219   9.289
30220WAT     H290903   0.488   6.260   9.265
30221WAT      O90904   7.872   2.492   0.183
30221WAT     H190905   7.845   2.396   0.173
30221WAT     H290906   7.940   2.515   0.114
30222WAT      O90907   8.832   8.278   0.329
30222WAT     H190908   8.784   8.241   0.409
30222WAT     H290909   8.785   8.360   0.296
30223WAT      O90910   0.701   9.661   6.934
30223WAT     H190911   0.663   9.715   6.858
30223WAT     H290912   0.684   9.564   6.918
30224WAT      O90913   8.367   9.317   8.566
30224WAT     H190914   8.304   9.250   8.526
30224WAT     H290915   8.386   9.389   8.499
30225WAT      O90916   1.644   3.517   5.146
30225WAT     H190917   1.734   3.483   5.119
30225WAT     H290918   1.641   3.530   5.245
30226WAT      O90919   2.805   6.251   8.003
30226WAT     H190920   2.785   6.342   8.039
30226WAT     H290921   2.774   6.246   7.908
30227WAT      O90922   2.911   2.243   5.756
30227WAT     H190923   2.835   2.178   5.751
30227WAT     H290924   2.901   2.311   5.684
30228WAT      O90925   4.957   2.701   0.747
30228WAT     H190926   5.049   2.738   0.753
30228WAT     H290927   4.958   2.616   0.694
30229WAT      O90928   0.930   2.868   6.622
30229WAT     H190929   0.889   2.959   6.620
30229WAT     H290930   0.937   2.832   6.528
30230WAT      O90931   4.765   7.571   9.633
30230WAT     H190932   4.794   7.656   9.588
30230WAT     H290933   4.816   7.494   9.595
30231WAT      O90934   2.597   1.161   5.577
30231WAT     H190935   2.644   1.209   5.504
30231WAT     H290936   2.659   1.094   5.619
30232WAT      O90937   5.541   4.021   0.323
30232WAT     H190938   5.563   3.964   0.244
30232WAT     H290939   5.623   4.069   0.354
30233WAT      O90940   2.384   3.894   4.353
30233WAT     H190941   2.464   3.850   4.313
30233WAT     H290942   2.317   3.824   4.378
30234WAT      O90943   9.096   4.876   8.886
30234WAT     H190944   9.167   4.883   8.815
30234WAT     H290945   9.045   4.791   8.872
30235WAT      O90946   7.842   1.186   2.131
30235WAT     H190947   7.923   1.175   2.188
30235WAT     H290948   7.821   1.100   2.085
30236WAT      O90949   6.992   5.512   7.385
30236WAT     H190950   7.022   5.599   7.346
30236WAT     H290951   7.061   5.479   7.449
30237WAT      O90952   2.171   9.035   8.358
30237WAT     H190953   2.188   9.124   8.315
30237WAT     H290954   2.141   9.049   8.452
30238WAT      O90955   5.619   3.128   6.381
30238WAT     H190956   5.695   3.150   6.442
30238WAT     H290957   5.544   3.089   6.433
30239WAT      O90958   8.218   5.974   6.863
30239WAT     H190959   8.306   5.954   6.820
30239WAT     H290960   8.146   5.969   6.794
30240WAT      O90961   1.794   9.790   4.655
30240WAT     H190962   1.743   9.861   4.703
30240WAT     H290963   1.829   9.723   4.720
30241WAT      O90964   6.748   1.123   4.795
30241WAT     H190965   6.759   1.044   4.854
30241WAT     H290966   6.652   1.132   4.768
30242WAT      O90967   6.233   0.629   7.991
30242WAT     H190968   6.322   0.650   8.031
30242WAT     H290969   6.244   0.558   7.921
30243WAT      O90970   2.530   1.680   6.532
30243WAT     H190971   2.524   1.585   6.503
30243WAT     H290972   2.622   1.698   6.568
30244WAT      O90973   2.741   0.269   6.987
30244WAT     H190974   2.688   0.192   7.022
30244WAT     H290975   2.746   0.340   7.058
30245WAT      O90976   7.880   1.780   5.400
30245WAT     H190977   7.912   1.694   5.361
30245WAT     H290978   7.795   1.808   5.354
30246WAT      O90979   4.117   3.620   3.985
30246WAT     H190980   4.108   3.617   4.084
30246WAT     H290981   4.202   3.667   3.960
30247WAT      O90982   6.467   7.643   1.635
30247WAT     H190983   6.532   7.612   1.566
30247WAT     H290984   6.500   7.728   1.676
30248WAT      O90985   0.735   0.724   1.394
30248WAT     H190986   0.680   0.805   1.415
30248WAT     H290987   0.828   0.752   1.370
30249WAT      O90988   1.890   9.413   2.116
30249WAT     H190989   1.978   9.382   2.152
30249WAT     H290990   1.823   9.338   2.124
30250WAT      O90991   6.663   3.455   6.974
30250WAT     H190992   6.756   3.426   6.953
30250WAT     H290993   6.661   3.554   6.987
30251WAT      O90994   9.214   2.864   8.711
30251WAT     H190995   9.262   2.850   8.798
30251WAT     H290996   9.190   2.961   8.701
30252WAT      O90997   4.317   9.729   2.094
30252WAT     H190998   4.225   9.725   2.134
30252WAT     H290999   4.379   9.675   2.150
30253WAT      O91000   7.848   2.158   7.047
30253WAT     H191001   7.801   2.080   7.006
30253WAT     H291002   7.887   2.131   7.135
30254WAT      O91003   9.848   3.442   1.444
30254WAT     H191004   9.907   3.362   1.439
30254WAT     H291005   9.757   3.415   1.477
30255WAT      O91006   7.953   2.707   4.702
30255WAT     H191007   7.929   2.665   4.789
30255WAT     H291008   8.022   2.651   4.656
30256WAT      O91009   1.997   4.170   1.319
30256WAT     H191010   1.929   4.207   1.383
30256WAT     H291011   2.028   4.242   1.257
30257WAT      O91012   3.337   0.477   6.426
30257WAT     H191013   3.347   0.533   6.344
30257WAT     H291014   3.240   0.462   6.445
30258WAT      O91015   1.019   2.503   1.248
30258WAT     H191016   0.977   2.423   1.291
30258WAT     H291017   1.022   2.490   1.149
30259WAT      O91018   2.356   8.143   3.164
30259WAT     H191019   2.282   8.101   3.217
30259WAT     H291020   2.430   8.171   3.225
30260WAT      O91021   2.306   2.281   4.244
30260WAT     H191022   2.390   2.327   4.274
30260WAT     H291023   2.251   2.257   4.323
30261WAT      O91024   0.945   5.459   3.167
30261WAT     H191025   1.012   5.424   3.233
30261WAT     H291026   0.979   5.446   3.074
30262WAT      O91027   7.312   3.257   7.918
30262WAT     H191028   7.281   3.238   8.011
30262WAT     H291029   7.277   3.187   7.856
30263WAT      O91030   6.862   6.096   9.276
30263WAT     H191031   6.894   6.126   9.366
30263WAT     H291032   6.934   6.113   9.208
30264WAT      O91033   2.423   5.690   4.711
30264WAT     H191034   2.387   5.650   4.796
30264WAT     H291035   2.418   5.790   4.717
30265WAT      O91036   2.329   8.546   4.175
30265WAT     H191037   2.337   8.633   4.224
30265WAT     H291038   2.361   8.558   4.081
30266WAT      O91039   4.125   7.109   0.047
30266WAT     H191040   4.118   7.012   0.025
30266WAT     H291041   4.034   7.147   0.064
30267WAT      O91042   8.284   7.353   8.021
30267WAT     H191043   8.382   7.358   8.007
30267WAT     H291044   8.259   7.262   8.056
30268WAT      O91045   6.205   0.910   5.874
30268WAT     H191046   6.131   0.873   5.931
30268WAT     H291047   6.217   0.851   5.794
30269WAT      O91048   0.031   6.419   9.475
30269WAT     H191049  -0.022   6.334   9.472
30269WAT     H291050  -0.008   6.480   9.544
30270WAT      O91051   0.840   6.228   2.756
30270WAT     H191052   0.914   6.229   2.688
30270WAT     H291053   0.798   6.138   2.758
30271WAT      O91054   6.234   1.196   9.746
30271WAT     H191055   6.294   1.116   9.736
30271WAT     H291056   6.226   1.220   9.842
30272WAT      O91057   6.494   0.583   8.708
30272WAT     H191058   6.455   0.660   8.759
30272WAT     H291059   6.553   0.619   8.635
30273WAT      O91060   2.129   9.562   5.601
30273WAT     H191061   2.170   9.644   5.641
30273WAT     H291062   2.087   9.507   5.674
30274WAT      O91063   0.227   8.704   4.656
30274WAT     H191064   0.271   8.790   4.629
30274WAT     H291065   0.285   8.656   4.721
30275WAT      O91066   2.500   9.598   0.890
30275WAT     H191067   2.547   9.650   0.961
30275WAT     H291068   2.401   9.612   0.899
30276WAT      O91069   1.819   3.066   2.629
30276WAT     H191070   1.911   3.100   2.610
30276WAT     H291071   1.765   3.068   2.546
30277WAT      O91072   2.672   6.230   0.044
30277WAT     H191073   2.747   6.292   0.020
30277WAT     H291074   2.697   6.137   0.017
30278WAT      O91075   1.706   9.513   4.478
30278WAT     H191076   1.669   9.487   4.389
30278WAT     H291077   1.771   9.589   4.465
30279WAT      O91078   3.957   0.800   7.709
30279WAT     H191079   3.912   0.800   7.798
30279WAT     H291080   3.912   0.866   7.649
30280WAT      O91081   2.193   9.031   2.027
30280WAT     H191082   2.104   8.991   2.049
30280WAT     H291083   2.201   9.120   2.072
30281WAT      O91084   9.334   3.654   9.261
30281WAT     H191085   9.397   3.726   9.289
30281WAT     H291086   9.240   3.683   9.283
30282WAT      O91087   5.564   9.829   5.610
30282WAT     H191088   5.485   9.890   5.619
30282WAT     H291089   5.645   9.874   5.647
30283WAT      O91090   6.385   0.759   0.129
30283WAT     H191091   6.370   0.663   0.152
30283WAT     H291092   6.371   0.773   0.031
30284WAT      O91093   2.974   7.224   3.923
30284WAT     H191094   2.997   7.290   3.851
30284WAT     H291095   2.975   7.269   4.012
30285WAT      O91096   2.165   9.440   7.337
30285WAT     H191097   2.213   9.457   7.424
30285WAT     H291098   2.120   9.524   7.308
30286WAT      O91099   8.063   9.687   6.061
30286WAT     H191100   8.119   9.605   6.047
30286WAT     H291101   7.982   9.662   6.115
30287WAT      O91102   6.565   1.372   6.085
30287WAT     H191103   6.577   1.284   6.132
30287WAT     H291104   6.506   1.358   6.005
30288WAT      O91105   6.222   9.315   1.678
30288WAT     H191106   6.315   9.327   1.712
30288WAT     H291107   6.174   9.403   1.683
30289WAT      O91108   0.831   5.912   3.295
30289WAT     H191109   0.846   6.003   3.333
30289WAT     H291110   0.775   5.858   3.358
30290WAT      O91111   5.080   1.398   1.258
30290WAT     H191112   5.065   1.494   1.280
30290WAT     H291113   4.997   1.360   1.216
30291WAT      O91114   2.258   8.992   7.197
30291WAT     H191115   2.205   8.970   7.279
30291WAT     H291116   2.267   9.091   7.189
30292WAT      O91117   3.474   5.436   2.891
30292WAT     H191118   3.485   5.349   2.844
30292WAT     H291119   3.419   5.424   2.974
30293WAT      O91120   5.894   1.644   4.691
30293WAT     H191121   5.891   1.609   4.785
30293WAT     H291122   5.910   1.568   4.628
30294WAT      O91123   2.527   4.850   8.772
30294WAT     H191124   2.543   4.767   8.721
30294WAT     H291125   2.433   4.882   8.756
30295WAT      O91126   8.369   4.840   8.191
30295WAT     H191127   8.289   4.858   8.248
30295WAT     H291128   8.350   4.761   8.132
30296WAT      O91129   5.034   8.795   6.167
30296WAT     H191130   5.131   8.804   6.191
30296WAT     H291131   4.990   8.884   6.176
30297WAT      O91132   4.928   5.540   0.008
30297WAT     H191133   4.986   5.566   0.085
30297WAT     H291134   4.858   5.611  -0.006
30298WAT      O91135   4.726   0.577   6.817
30298WAT     H191136   4.744   0.553   6.721
30298WAT     H291137   4.788   0.526   6.876
30299WAT      O91138   4.399   9.656   2.758
30299WAT     H191139   4.344   9.631   2.838
30299WAT     H291140   4.433   9.573   2.714
30300WAT      O91141   0.365   0.152   5.898
30300WAT     H191142   0.342   0.062   5.861
30300WAT     H291143   0.281   0.201   5.924
30301WAT      O91144   8.169   7.570   2.125
30301WAT     H191145   8.122   7.601   2.042
30301WAT     H291146   8.125   7.487   2.159
30302WAT      O91147   7.311   5.769   0.274
30302WAT     H191148   7.410   5.778   0.274
30302WAT     H291149   7.279   5.747   0.366
30303WAT      O91150   8.405   6.553   4.026
30303WAT     H191151   8.454   6.636   4.001
30303WAT     H291152   8.311   6.559   3.991
30304WAT      O91153   0.881   9.569   3.080
30304WAT     H191154   0.870   9.516   3.165
30304WAT     H291155   0.823   9.529   3.009
30305WAT      O91156   5.885   4.199   5.899
30305WAT     H191157   5.957   4.231   5.961
30305WAT     H291158   5.834   4.278   5.865
30306WAT      O91159   9.460   0.016   7.964
30306WAT     H191160   9.408   0.084   8.015
30306WAT     H291161   9.558   0.028   7.983
30307WAT      O91162   0.706   9.799   8.230
30307WAT     H191163   0.683   9.770   8.137
30307WAT     H291164   0.636   9.766   8.293
30308WAT      O91165   0.424   4.112   0.806
30308WAT     H191166   0.369   4.127   0.724
30308WAT     H291167   0.385   4.163   0.882
30309WAT      O91168   5.439   3.391   3.454
30309WAT     H191169   5.438   3.416   3.357
30309WAT     H291170   5.487   3.462   3.505
30310WAT      O91171   0.811   8.962   2.818
30310WAT     H191172   0.806   8.902   2.898
30310WAT     H291173   0.874   8.923   2.751
30311WAT      O91174   3.186   9.367   4.850
30311WAT     H191175   3.194   9.422   4.933
30311WAT     H291176   3.260   9.300   4.846
30312WAT      O91177   9.707   0.294   1.842
30312WAT     H191178   9.621   0.305   1.891
30312WAT     H291179   9.726   0.196   1.830
30313WAT      O91180   5.009   5.327   3.944
30313WAT     H191181   4.917   5.342   3.906
30313WAT     H291182   5.040   5.411   3.989
30314WAT      O91183   9.809   3.441   6.431
30314WAT     H191184   9.745   3.396   6.494
30314WAT     H291185   9.872   3.372   6.395
30315WAT      O91186   4.880   4.359   1.475
30315WAT     H191187   4.956   4.374   1.539
30315WAT     H291188   4.844   4.447   1.445
30316WAT      O91189   7.645   1.996   5.726
30316WAT     H191190   7.553   1.979   5.691
30316WAT     H291191   7.677   1.916   5.777
30317WAT      O91192   3.380   6.044   3.939
30317WAT     H191193   3.310   6.065   3.870
30317WAT     H291194   3.426   6.129   3.967
30318WAT      O91195   8.562   0.725   0.247
30318WAT     H191196   8.645   0.781   0.245
30318WAT     H291197   8.554   0.674   0.161
30319WAT      O91198   2.875   7.459   0.163
30319WAT     H191199   2.897   7.408   0.080
30319WAT     H291200   2.776   7.475   0.167
30320WAT      O91201   1.366   0.543   2.157
30320WAT     H191202   1.289   0.560   2.095
30320WAT     H291203   1.370   0.617   2.225
30321WAT      O91204   7.427   8.985   0.483
30321WAT     H191205   7.432   9.028   0.574
30321WAT     H291206   7.492   9.029   0.422
30322WAT      O91207   0.409   7.997   6.695
30322WAT     H191208   0.506   7.997   6.671
30322WAT     H291209   0.355   8.029   6.617
30323WAT      O91210   3.310   9.689   1.790
30323WAT     H191211   3.283   9.721   1.699
30323WAT     H291212   3.236   9.636   1.830
30324WAT      O91213   8.887   6.612   5.606
30324WAT     H191214   8.952   6.557   5.659
30324WAT     H291215   8.865   6.696   5.656
30325WAT      O91216   9.559   3.853   4.681
30325WAT     H191217   9.507   3.773   4.711
30325WAT     H291218   9.529   3.933   4.733
30326WAT      O91219   2.364   5.430   9.603
30326WAT     H191220   2.394   5.405   9.511
30326WAT     H291221   2.355   5.348   9.659
30327WAT      O91222   7.553   7.028   7.876
30327WAT     H191223   7.590   6.967   7.805
30327WAT     H291224   7.549   6.979   7.963
30328WAT      O91225   3.377   4.559   6.919
30328WAT     H191226   3.407   4.634   6.860
30328WAT     H291227   3.339   4.596   7.003
30329WAT      O91228   0.715   4.332   1.720
30329WAT     H191229   0.803   4.305   1.759
30329WAT     H291230   0.671   4.252   1.680
30330WAT      O91231   0.170   4.486   2.001
30330WAT     H191232   0.094   4.421   2.001
30330WAT     H291233   0.144   4.567   2.053
30331WAT      O91234   5.602   5.792   9.468
30331WAT     H191235   5.699   5.773   9.455
30331WAT     H291236   5.570   5.749   9.552
30332WAT      O91237   9.677   2.226   5.308
30332WAT     H191238   9.714   2.291   5.242
30332WAT     H291239   9.611   2.166   5.262
30333WAT      O91240   1.676   4.975   4.876
30333WAT     H191241   1.664   4.886   4.920
30333WAT     H291242   1.757   4.973   4.817
30334WAT      O91243   0.013   4.055   2.001
30334WAT     H191244  -0.011   4.151   1.999
30334WAT     H291245  -0.014   4.011   1.915
30335WAT      O91246   6.270   2.866   2.161
30335WAT     H191247   6.184   2.904   2.128
30335WAT     H291248   6.343   2.933   2.147
30336WAT      O91249   0.672   7.569   9.449
30336WAT     H191250   0.604   7.562   9.522
30336WAT     H291251   0.733   7.490   9.452
30337WAT      O91252   2.269   5.181   4.675
30337WAT     H191253   2.317   5.153   4.591
30337WAT     H291254   2.310   5.135   4.753
30338WAT      O91255   6.733   7.368   2.123
30338WAT     H191256   6.769   7.448   2.171
30338WAT     H291257   6.636   7.383   2.103
30339WAT      O91258   0.032   1.909   1.784
30339WAT     H191259   0.065   2.003   1.771
30339WAT     H291260  -0.065   1.911   1.809
30340WAT      O91261   6.010   6.780   1.686
30340WAT     H191262   5.962   6.717   1.625
30340WAT     H291263   5.971   6.872   1.675
30341WAT      O91264   2.788   4.043   2.118
30341WAT     H191265   2.823   3.982   2.047
30341WAT     H291266   2.859   4.108   2.144
30342WAT      O91267   7.360   4.938   3.090
30342WAT     H191268   7.426   4.993   3.141
30342WAT     H291269   7.269   4.979   3.098
30343WAT      O91270   0.017   7.022   8.659
30343WAT     H191271  -0.062   6.996   8.603
30343WAT     H291272   0.094   6.960   8.640
30344WAT      O91273   0.392   1.011   4.459
30344WAT     H191274   0.359   0.921   4.430
30344WAT     H291275   0.364   1.080   4.393
30345WAT      O91276   7.236   4.608   6.056
30345WAT     H191277   7.189   4.674   6.114
30345WAT     H291278   7.298   4.656   5.994
30346WAT      O91279   6.162   1.905   9.755
30346WAT     H191280   6.119   1.822   9.790
30346WAT     H291281   6.175   1.896   9.656
30347WAT      O91282   9.742   0.885   5.672
30347WAT     H191283   9.757   0.810   5.736
30347WAT     H291284   9.645   0.906   5.667
30348WAT      O91285   7.974   9.571   7.591
30348WAT     H191286   7.892   9.625   7.611
30348WAT     H291287   7.983   9.558   7.493
30349WAT      O91288   4.081   5.528   1.734
30349WAT     H191289   4.062   5.433   1.755
30349WAT     H291290   4.156   5.533   1.667
30350WAT      O91291   6.900   0.102   3.833
30350WAT     H191292   6.967   0.083   3.760
30350WAT     H291293   6.820   0.146   3.794
30351WAT      O91294   8.316   4.365   5.670
30351WAT     H191295   8.223   4.333   5.688
30351WAT     H291296   8.380   4.290   5.683
30352WAT      O91297   5.778   3.582   7.301
30352WAT     H191298   5.873   3.568   7.275
30352WAT     H291299   5.758   3.530   7.385
30353WAT      O91300   1.331   5.040   9.182
30353WAT     H191301   1.364   5.128   9.218
30353WAT     H291302   1.321   5.046   9.083
30354WAT      O91303   4.020   8.546   5.147
30354WAT     H191304   4.030   8.637   5.189
30354WAT     H291305   4.100   8.526   5.091
30355WAT      O91306   5.773   6.214   1.814
30355WAT     H191307   5.754   6.207   1.912
30355WAT     H291308   5.870   6.195   1.798
30356WAT      O91309   9.386   2.215   1.102
30356WAT     H191310   9.329   2.162   1.040
30356WAT     H291311   9.328   2.268   1.164
30357WAT      O91312   5.061   5.055   9.071
30357WAT     H191313   4.995   5.007   9.128
30357WAT     H291314   5.150   5.056   9.116
30358WAT      O91315   9.152   6.089   4.380
30358WAT     H191316   9.170   6.186   4.362
30358WAT     H291317   9.060   6.079   4.418
30359WAT      O91318   3.226   1.620   0.000
30359WAT     H191319   3.217   1.677   0.082
30359WAT     H291320   3.138   1.616  -0.047
30360WAT      O91321   2.270   3.191   5.516
30360WAT     H191322   2.291   3.101   5.478
30360WAT     H291323   2.344   3.220   5.577
30361WAT      O91324   7.652   2.100   7.301
30361WAT     H191325   7.620   2.155   7.378
30361WAT     H291326   7.580   2.036   7.273
30362WAT      O91327   6.451   2.525   8.918
30362WAT     H191328   6.550   2.523   8.934
30362WAT     H291329   6.418   2.619   8.923
30363WAT      O91330   7.548   5.673   7.204
30363WAT     H191331   7.619   5.742   7.187
30363WAT     H291332   7.518   5.635   7.116
30364WAT      O91333   6.568   1.153   3.303
30364WAT     H191334   6.496   1.141   3.235
30364WAT     H291335   6.527   1.165   3.393
30365WAT      O91336   7.448   8.020   8.094
30365WAT     H191337   7.486   8.112   8.086
30365WAT     H291338   7.444   7.993   8.190
30366WAT      O91339   0.473   3.145   5.738
30366WAT     H191340   0.541   3.079   5.704
30366WAT     H291341   0.396   3.096   5.778
30367WAT      O91342   9.264   9.471   1.688
30367WAT     H191343   9.201   9.446   1.615
30367WAT     H291344   9.265   9.399   1.757
30368WAT      O91345   9.335   1.868   4.760
30368WAT     H191346   9.303   1.955   4.723
30368WAT     H291347   9.257   1.807   4.775
30369WAT      O91348   7.519   4.486   9.372
30369WAT     H191349   7.423   4.481   9.347
30369WAT     H291350   7.559   4.395   9.372
30370WAT      O91351   6.137   0.634   4.027
30370WAT     H191352   6.107   0.538   4.026
30370WAT     H291353   6.098   0.680   4.106
30371WAT      O91354   3.598   3.937   8.367
30371WAT     H191355   3.617   3.844   8.400
30371WAT     H291356   3.658   3.958   8.291
30372WAT      O91357   1.455   8.653   7.648
30372WAT     H191358   1.461   8.561   7.608
30372WAT     H291359   1.478   8.721   7.579
30373WAT      O91360   5.607   1.930   4.672
30373WAT     H191361   5.704   1.913   4.690
30373WAT     H291362   5.564   1.966   4.755
30374WAT      O91363   3.334   4.263   1.959
30374WAT     H191364   3.386   4.258   1.874
30374WAT     H291365   3.279   4.181   1.969
30375WAT      O91366   3.453   0.451   3.353
30375WAT     H191367   3.548   0.460   3.324
30375WAT     H291368   3.398   0.521   3.307
30376WAT      O91369   4.532   9.210   3.744
30376WAT     H191370   4.578   9.260   3.818
30376WAT     H291371   4.601   9.169   3.684
30377WAT      O91372   6.010   9.458   6.765
30377WAT     H191373   5.951   9.405   6.704
30377WAT     H291374   6.001   9.423   6.859
30378WAT      O91375   0.327   9.261   8.025
30378WAT     H191376   0.287   9.342   7.984
30378WAT     H291377   0.263   9.184   8.019
30379WAT      O91378   4.203   3.208   0.805
30379WAT     H191379   4.168   3.267   0.732
30379WAT     H291380   4.299   3.187   0.786
30380WAT      O91381   4.363   1.646   2.454
30380WAT     H191382   4.392   1.726   2.402
30380WAT     H291383   4.309   1.586   2.395
30381WAT      O91384   0.392   5.538   4.608
30381WAT     H191385   0.485   5.574   4.615
30381WAT     H291386   0.327   5.605   4.645
30382WAT      O91387   9.591   5.732   5.667
30382WAT     H191388   9.672   5.697   5.620
30382WAT     H291389   9.547   5.658   5.718
30383WAT      O91390   0.717   6.699   0.977
30383WAT     H191391   0.735   6.764   0.904
30383WAT     H291392   0.787   6.708   1.048
30384WAT      O91393   6.682   4.696   0.489
30384WAT     H191394   6.701   4.752   0.570
30384WAT     H291395   6.646   4.753   0.416
30385WAT      O91396   4.502   8.325   7.135
30385WAT     H191397   4.480   8.229   7.116
30385WAT     H291398   4.499   8.377   7.050
30386WAT      O91399   9.411   1.605   8.373
30386WAT     H191400   9.408   1.661   8.456
30386WAT     H291401   9.411   1.664   8.293
30387WAT      O91402   3.671   5.596   4.023
30387WAT     H191403   3.597   5.610   4.088
30387WAT     H291404   3.633   5.580   3.932
30388WAT      O91405   4.441   6.492   2.183
30388WAT     H191406   4.433   6.495   2.084
30388WAT     H291407   4.482   6.405   2.211
30389WAT      O91408   6.345   8.513   8.116
30389WAT     H191409   6.295   8.534   8.031
30389WAT     H291410   6.327   8.418   8.142
30390WAT      O91411   0.075   1.033   2.062
30390WAT     H191412   0.008   0.971   2.105
30390WAT     H291413   0.029   1.087   1.991
30391WAT      O91414   8.723   1.896   7.364
30391WAT     H191415   8.676   1.967   7.417
30391WAT     H291416   8.686   1.893   7.272
30392WAT      O91417   2.169   3.271   8.093
30392WAT     H191418   2.229   3.237   8.020
30392WAT     H291419   2.214   3.349   8.138
30393WAT      O91420   5.732   3.094   9.642
30393WAT     H191421   5.814   3.065   9.690
30393WAT     H291422   5.653   3.088   9.703
30394WAT      O91423   4.811   6.740   3.076
30394WAT     H191424   4.726   6.753   3.127
30394WAT     H291425   4.888   6.769   3.132
30395WAT      O91426   5.461   5.590   5.396
30395WAT     H191427   5.405   5.557   5.319
30395WAT     H291428   5.544   5.535   5.403
30396WAT      O91429   6.866   4.789   7.580
30396WAT     H191430   6.777   4.775   7.539
30396WAT     H291431   6.882   4.887   7.595
30397WAT      O91432   7.833   4.077   7.195
30397WAT     H191433   7.837   4.177   7.194
30397WAT     H291434   7.886   4.043   7.272
30398WAT      O91435   6.094   1.268   0.399
30398WAT     H191436   6.131   1.264   0.306
30398WAT     H291437   6.006   1.221   0.402
30399WAT      O91438   4.937   6.114   5.135
30399WAT     H191439   4.949   6.033   5.078
30399WAT     H291440   4.839   6.134   5.144
30400WAT      O91441   4.913   1.036   0.511
30400WAT     H191442   4.990   0.977   0.487
30400WAT     H291443   4.896   1.031   0.609
30401WAT      O91444   3.991   2.405   0.360
30401WAT     H191445   4.073   2.387   0.414
30401WAT     H291446   4.014   2.397   0.263
30402WAT      O91447   6.606   7.880   1.689
30402WAT     H191448   6.603   7.926   1.778
30402WAT     H291449   6.678   7.921   1.633
30403WAT      O91450   0.251   1.532   9.262
30403WAT     H191451   0.289   1.508   9.173
30403WAT     H291452   0.271   1.627   9.282
30404WAT      O91453   0.749   8.797   6.965
30404WAT     H191454   0.787   8.773   6.876
30404WAT     H291455   0.655   8.765   6.972
30405WAT      O91456   7.158   9.005   2.261
30405WAT     H191457   7.177   9.100   2.286
30405WAT     H291458   7.091   8.966   2.324
30406WAT      O91459   1.429   4.063   2.610
30406WAT     H191460   1.400   4.004   2.685
30406WAT     H291461   1.396   4.156   2.627
30407WAT      O91462   7.960   4.404   6.007
30407WAT     H191463   7.992   4.310   6.020
30407WAT     H291464   8.018   4.467   6.060
30408WAT      O91465   4.356   2.919   9.805
30408WAT     H191466   4.304   2.869   9.874
30408WAT     H291467   4.329   3.015   9.804
30409WAT      O91468   7.991   4.349   4.211
30409WAT     H191469   8.013   4.323   4.117
30409WAT     H291470   7.904   4.400   4.211
30410WAT      O91471   3.809   5.371   2.345
30410WAT     H191472   3.890   5.412   2.304
30410WAT     H291473   3.781   5.424   2.425
30411WAT      O91474   6.670   5.846   6.977
30411WAT     H191475   6.657   5.945   6.972
30411WAT     H291476   6.708   5.813   6.891
30412WAT      O91477   2.008   7.346   7.137
30412WAT     H191478   2.076   7.279   7.106
30412WAT     H291479   1.990   7.332   7.234
30413WAT      O91480   3.537   9.491   7.844
30413WAT     H191481   3.602   9.450   7.781
30413WAT     H291482   3.539   9.442   7.931
30414WAT      O91483   0.599   3.639   4.003
30414WAT     H191484   0.533   3.574   4.040
30414WAT     H291485   0.592   3.642   3.904
30415WAT      O91486   9.463   0.528   2.880
30415WAT     H191487   9.553   0.517   2.922
30415WAT     H291488   9.427   0.438   2.856
30416WAT      O91489   3.532   6.197   7.915
30416WAT     H191490   3.442   6.162   7.942
30416WAT     H291491   3.541   6.292   7.944
30417WAT      O91492   1.001   9.483   6.368
30417WAT     H191493   1.077   9.442   6.419
30417WAT     H291494   0.976   9.423   6.292
30418WAT      O91495   0.557   7.923   8.799
30418WAT     H191496   0.504   7.841   8.816
30418WAT     H291497   0.645   7.917   8.847
30419WAT      O91498   0.280   0.785   4.302
30419WAT     H191499   0.199   0.728   4.288
30419WAT     H291500   0.311   0.822   4.214
30420WAT      O91501   0.886   4.842   5.888
30420WAT     H191502   0.981   4.841   5.857
30420WAT     H291503   0.848   4.934   5.878
30421WAT      O91504   9.844   6.581   7.683
30421WAT     H191505   9.817   6.540   7.770
30421WAT     H291506   9.900   6.661   7.700
30422WAT      O91507   4.986   1.074   6.826
30422WAT     H191508   4.906   1.106   6.878
30422WAT     H291509   4.976   1.101   6.730
30423WAT      O91510   8.451   2.612   9.722
30423WAT     H191511   8.477   2.709   9.724
30423WAT     H291512   8.360   2.601   9.763
30424WAT      O91513   1.233   3.464   9.417
30424WAT     H191514   1.203   3.515   9.337
30424WAT     H291515   1.251   3.527   9.492
30425WAT      O91516   6.644   7.465   3.131
30425WAT     H191517   6.717   7.525   3.099
30425WAT     H291518   6.682   7.376   3.157
30426WAT      O91519   7.325   5.737   1.276
30426WAT     H191520   7.273   5.777   1.200
30426WAT     H291521   7.368   5.810   1.329
30427WAT      O91522   9.377   7.453   2.141
30427WAT     H191523   9.356   7.356   2.151
30427WAT     H291524   9.413   7.489   2.227
30428WAT      O91525   5.303   3.330   0.458
30428WAT     H191526   5.288   3.233   0.435
30428WAT     H291527   5.286   3.344   0.556
30429WAT      O91528   3.494   3.438   1.894
30429WAT     H191529   3.577   3.460   1.944
30429WAT     H291530   3.456   3.352   1.929
30430WAT      O91531   9.807   4.760   5.423
30430WAT     H191532   9.725   4.710   5.451
30430WAT     H291533   9.781   4.837   5.365
30431WAT      O91534   3.985   1.268   6.781
30431WAT     H191535   3.890   1.244   6.801
30431WAT     H291536   3.993   1.296   6.685
30432WAT      O91537   0.033   5.309   7.136
30432WAT     H191538   0.113   5.368   7.123
30432WAT     H291539  -0.044   5.364   7.169
30433WAT      O91540   4.535   6.995   2.099
30433WAT     H191541   4.445   6.953   2.111
30433WAT     H291542   4.558   7.047   2.181
30434WAT      O91543   6.666   7.333   4.154
30434WAT     H191544   6.698   7.248   4.198
30434WAT     H291545   6.654   7.317   4.056
30435WAT      O91546   2.559   6.284   1.566
30435WAT     H191547   2.632   6.285   1.497
30435WAT     H291548   2.578   6.212   1.633
30436WAT      O91549   0.016   0.966   4.856
30436WAT     H191550  -0.008   0.905   4.931
30436WAT     H291551   0.085   0.923   4.798
30437WAT      O91552   8.806   7.676   9.554
30437WAT     H191553   8.741   7.716   9.490
30437WAT     H291554   8.762   7.662   9.643
30438WAT      O91555   7.539   4.341   4.306
30438WAT     H191556   7.625   4.381   4.276
30438WAT     H291557   7.539   4.243   4.290
30439WAT      O91558   2.477   9.721   2.660
30439WAT     H191559   2.453   9.766   2.573
30439WAT     H291560   2.530   9.639   2.640
30440WAT      O91561   8.999   9.506   3.905
30440WAT     H191562   9.096   9.483   3.905
30440WAT     H291563   8.950   9.443   3.966
30441WAT      O91564   0.917   4.652   1.042
30441WAT     H191565   0.863   4.711   1.103
30441WAT     H291566   0.948   4.706   0.964
30442WAT      O91567   4.260   7.294   6.610
30442WAT     H191568   4.336   7.284   6.674
30442WAT     H291569   4.292   7.340   6.527
30443WAT      O91570   6.204   1.731   8.458
30443WAT     H191571   6.228   1.815   8.409
30443WAT     H291572   6.262   1.723   8.539
30444WAT      O91573   5.994   7.559   4.129
30444WAT     H191574   6.034   7.627   4.190
30444WAT     H291575   6.020   7.467   4.160
30445WAT      O91576   9.549   7.592   9.584
30445WAT     H191577   9.636   7.555   9.613
30445WAT     H291578   9.502   7.634   9.662
30446WAT      O91579   4.488   7.671   2.606
30446WAT     H191580   4.575   7.666   2.655
30446WAT     H291581   4.417   7.625   2.660
30447WAT      O91582   6.762   7.228   3.201
30447WAT     H191583   6.692   7.186   3.259
30447WAT     H291584   6.825   7.157   3.169
30448WAT      O91585   0.770   5.466   7.821
30448WAT     H191586   0.713   5.503   7.747
30448WAT     H291587   0.726   5.484   7.909
30449WAT      O91588   0.131   4.344   7.466
30449WAT     H191589   0.226   4.315   7.463
30449WAT     H291590   0.079   4.297   7.395
30450WAT      O91591   4.623   6.575   0.309
30450WAT     H191592   4.622   6.563   0.210
30450WAT     H291593   4.681   6.505   0.351
30451WAT      O91594   3.567   7.313   2.664
30451WAT     H191595   3.586   7.219   2.634
30451WAT     H291596   3.636   7.374   2.627
30452WAT      O91597   4.231   8.832   2.975
30452WAT     H191598   4.184   8.911   3.015
30452WAT     H291599   4.289   8.863   2.900
30453WAT      O91600   9.402   2.684   6.987
30453WAT     H191601   9.427   2.629   7.068
30453WAT     H291602   9.469   2.756   6.973
30454WAT      O91603   3.068   1.586   7.921
30454WAT     H191604   2.983   1.625   7.885
30454WAT     H291605   3.097   1.511   7.861
30455WAT      O91606   2.922   3.746   1.019
30455WAT     H191607   3.019   3.761   1.038
30455WAT     H291608   2.867   3.781   1.094
30456WAT      O91609   1.087   3.732   3.599
30456WAT     H191610   1.000   3.731   3.648
30456WAT     H291611   1.130   3.822   3.608
30457WAT      O91612   9.041   5.503   9.606
30457WAT     H191613   9.132   5.544   9.616
30457WAT     H291614   9.003   5.527   9.516
30458WAT      O91615   3.032   5.648   4.010
30458WAT     H191616   2.955   5.681   3.955
30458WAT     H291617   3.019   5.551   4.031
30459WAT      O91618   2.067   7.276   7.678
30459WAT     H191619   2.114   7.364   7.682
30459WAT     H291620   1.990   7.276   7.742
30460WAT      O91621   1.210   1.861   9.547
30460WAT     H191622   1.153   1.839   9.626
30460WAT     H291623   1.306   1.852   9.571
30461WAT      O91624   6.844   6.245   3.095
30461WAT     H191625   6.925   6.299   3.070
30461WAT     H291626   6.818   6.266   3.189
30462WAT      O91627   2.639   6.120   5.852
30462WAT     H191628   2.597   6.177   5.782
30462WAT     H291629   2.693   6.177   5.914
30463WAT      O91630   0.936   2.426   6.583
30463WAT     H191631   0.983   2.424   6.494
30463WAT     H291632   0.867   2.353   6.585
30464WAT      O91633   1.608   2.602   4.738
30464WAT     H191634   1.670   2.551   4.679
30464WAT     H291635   1.601   2.557   4.827
30465WAT      O91636   2.057   5.556   8.593
30465WAT     H191637   2.106   5.641   8.578
30465WAT     H291638   2.076   5.493   8.517
30466WAT      O91639   5.119   2.934   4.966
30466WAT     H191640   5.144   3.030   4.965
30466WAT     H291641   5.078   2.911   5.055
30467WAT      O91642   1.531   6.380   1.042
30467WAT     H191643   1.541   6.359   0.945
30467WAT     H291644   1.621   6.380   1.085
30468WAT      O91645   4.666   7.660   0.846
30468WAT     H191646   4.736   7.710   0.898
30468WAT     H291647   4.696   7.649   0.751
30469WAT      O91648   8.272   6.409   6.345
30469WAT     H191649   8.271   6.405   6.445
30469WAT     H291650   8.232   6.495   6.314
30470WAT      O91651   8.639   0.929   7.670
30470WAT     H191652   8.632   0.896   7.765
30470WAT     H291653   8.562   0.989   7.650
30471WAT      O91654   2.102   9.292   0.150
30471WAT     H191655   2.010   9.277   0.187
30471WAT     H291656   2.101   9.276   0.052
30472WAT      O91657   4.035   2.034   3.328
30472WAT     H191658   4.060   2.088   3.247
30472WAT     H291659   4.092   2.062   3.405
30473WAT      O91660   0.881   5.014   4.182
30473WAT     H191661   0.845   4.948   4.248
30473WAT     H291662   0.888   4.970   4.092
30474WAT      O91663   0.025   2.630   4.239
30474WAT     H191664   0.116   2.669   4.254
30474WAT     H291665   0.033   2.542   4.192
30475WAT      O91666   9.251   6.771   6.047
30475WAT     H191667   9.241   6.764   5.948
30475WAT     H291668   9.333   6.723   6.076
30476WAT      O91669   0.178   7.932   3.398
30476WAT     H191670   0.227   7.870   3.336
30476WAT     H291671   0.102   7.883   3.440
30477WAT      O91672   5.631   4.593   4.000
30477WAT     H191673   5.593   4.683   4.018
30477WAT     H291674   5.556   4.527   3.989
30478WAT      O91675   7.155   6.893   8.989
30478WAT     H191676   7.216   6.971   8.978
30478WAT     H291677   7.073   6.906   8.934
30479WAT      O91678   0.667   7.129   3.566
30479WAT     H191679   0.593   7.140   3.633
30479WAT     H291680   0.749   7.095   3.611
30480WAT      O91681   2.927   8.625   6.316
30480WAT     H191682   3.009   8.630   6.372
30480WAT     H291683   2.917   8.533   6.279
30481WAT      O91684   0.662   3.323   6.683
30481WAT     H191685   0.680   3.420   6.698
30481WAT     H291686   0.748   3.273   6.681
30482WAT      O91687   1.667   2.092   8.128
30482WAT     H191688   1.743   2.152   8.104
30482WAT     H291689   1.629   2.050   8.045
30483WAT      O91690   5.917   6.142   0.016
30483WAT     H191691   5.949   6.231  -0.015
30483WAT     H291692   5.825   6.152   0.056
30484WAT      O91693   8.349   8.096   3.193
30484WAT     H191694   8.256   8.114   3.223
30484WAT     H291695   8.348   8.046   3.107
30485WAT      O91696   5.986   7.460   5.320
30485WAT     H191697   5.936   7.527   5.375
30485WAT     H291698   5.950   7.459   5.227
30486WAT      O91699   3.749   9.312   4.322
30486WAT     H191700   3.715   9.223   4.292
30486WAT     H291701   3.758   9.373   4.243
30487WAT      O91702   4.700   3.548   9.324
30487WAT     H191703   4.740   3.464   9.362
30487WAT     H291704   4.615   3.525   9.276
30488WAT      O91705   5.676   0.939   4.940
30488WAT     H191706   5.705   1.006   5.009
30488WAT     H291707   5.577   0.931   4.941
30489WAT      O91708   9.539   6.219   0.733
30489WAT     H191709   9.516   6.251   0.825
30489WAT     H291710   9.597   6.287   0.688
30490WAT      O91711   0.185   6.866   6.323
30490WAT     H191712   0.166   6.851   6.226
30490WAT     H291713   0.229   6.785   6.361
30491WAT      O91714   6.885   7.906   6.706
30491WAT     H191715   6.794   7.913   6.664
30491WAT     H291716   6.927   7.997   6.709
30492WAT      O91717   4.455   4.926   8.260
30492WAT     H191718   4.377   4.975   8.220
30492WAT     H291719   4.421   4.848   8.314
30493WAT      O91720   7.132   2.823   0.809
30493WAT     H191721   7.156   2.747   0.748
30493WAT     H291722   7.201   2.895   0.801
30494WAT      O91723   2.266   4.772   5.449
30494WAT     H191724   2.312   4.690   5.415
30494WAT     H291725   2.212   4.812   5.376
30495WAT      O91726   8.141   1.576   6.668
30495WAT     H191727   8.105   1.504   6.608
30495WAT     H291728   8.226   1.612   6.629
30496WAT      O91729   5.897   4.175   3.110
30496WAT     H191730   5.981   4.207   3.155
30496WAT     H291731   5.818   4.201   3.164
30497WAT      O91732   5.012   6.262   6.749
30497WAT     H191733   4.914   6.253   6.732
30497WAT     H291734   5.040   6.194   6.817
30498WAT      O91735   7.207   3.904   5.530
30498WAT     H191736   7.259   3.913   5.445
30498WAT     H291737   7.196   3.994   5.573
30499WAT      O91738   0.023   1.442   7.115
30499WAT     H191739   0.102   1.502   7.101
30499WAT     H291740  -0.058   1.483   7.073
30500WAT      O91741   2.625   5.114   6.313
30500WAT     H191742   2.531   5.086   6.333
30500WAT     H291743   2.689   5.047   6.349
30501WAT      O91744   8.465   6.123   5.669
30501WAT     H191745   8.403   6.186   5.716
30501WAT     H291746   8.556   6.164   5.662
30502WAT      O91747   4.878   3.549   8.018
30502WAT     H191748   4.806   3.497   7.971
30502WAT     H291749   4.948   3.486   8.052
30503WAT      O91750   1.580   7.673   7.811
30503WAT     H191751   1.606   7.691   7.906
30503WAT     H291752   1.481   7.688   7.800
30504WAT      O91753   0.141   8.533   1.115
30504WAT     H191754   0.191   8.552   1.030
30504WAT     H291755   0.043   8.539   1.097
30505WAT      O91756   6.811   8.274   9.095
30505WAT     H191757   6.837   8.358   9.142
30505WAT     H291758   6.726   8.239   9.134
30506WAT      O91759   9.524   3.464   4.164
30506WAT     H191760   9.458   3.536   4.140
30506WAT     H291761   9.488   3.411   4.241
30507WAT      O91762   5.165   6.912   9.392
30507WAT     H191763   5.141   7.000   9.433
30507WAT     H291764   5.134   6.909   9.297
30508WAT      O91765   2.482   5.594   6.989
30508WAT     H191766   2.431   5.517   7.029
30508WAT     H291767   2.418   5.668   6.967
30509WAT      O91768   7.949   4.296   8.510
30509WAT     H191769   8.046   4.316   8.521
30509WAT     H291770   7.896   4.381   8.523
30510WAT      O91771   6.955   3.486   6.199
30510WAT     H191772   6.973   3.489   6.297
30510WAT     H291773   6.992   3.402   6.160
30511WAT      O91774   0.726   0.184   7.234
30511WAT     H191775   0.710   0.266   7.179
30511WAT     H291776   0.668   0.109   7.201
30512WAT      O91777   6.924   3.642   9.803
30512WAT     H191778   6.848   3.708   9.800
30512WAT     H291779   6.936   3.601   9.712
30513WAT      O91780   9.340   2.953   4.570
30513WAT     H191781   9.358   3.038   4.620
30513WAT     H291782   9.305   2.976   4.479
30514WAT      O91783   7.462   8.829   5.756
30514WAT     H191784   7.377   8.777   5.753
30514WAT     H291785   7.497   8.842   5.663
30515WAT      O91786   9.221   0.695   9.829
30515WAT     H191787   9.320   0.707   9.818
30515WAT     H291788   9.194   0.726   9.920
30516WAT      O91789   4.177   7.465   5.862
30516WAT     H191790   4.206   7.492   5.771
30516WAT     H291791   4.250   7.413   5.907
30517WAT      O91792   2.284   5.979   2.117
30517WAT     H191793   2.290   5.959   2.019
30517WAT     H291794   2.373   6.007   2.151
30518WAT      O91795   1.804   7.453   2.152
30518WAT     H191796   1.867   7.444   2.075
30518WAT     H291797   1.716   7.487   2.119
30519WAT      O91798   0.711   8.639   3.496
30519WAT     H191799   0.661   8.582   3.561
30519WAT     H291800   0.765   8.707   3.547
30520WAT      O91801   6.789   8.742   2.630
30520WAT     H191802   6.783   8.834   2.669
30520WAT     H291803   6.864   8.692   2.672
30521WAT      O91804   2.967   5.103   8.535
30521WAT     H191805   2.973   5.103   8.635
30521WAT     H291806   2.911   5.025   8.506
30522WAT      O91807   0.620   7.110   5.707
30522WAT     H191808   0.690   7.121   5.777
30522WAT     H291809   0.663   7.090   5.619
30523WAT      O91810   1.362   3.534   1.736
30523WAT     H191811   1.341   3.518   1.832
30523WAT     H291812   1.356   3.448   1.685
30524WAT      O91813   1.026   0.977   3.836
30524WAT     H191814   1.073   0.907   3.890
30524WAT     H291815   0.964   0.933   3.771
30525WAT      O91816   1.296   4.221   6.414
30525WAT     H191817   1.373   4.244   6.474
30525WAT     H291818   1.330   4.185   6.328
30526WAT      O91819   2.931   1.796   5.840
30526WAT     H191820   2.899   1.793   5.745
30526WAT     H291821   2.854   1.819   5.900
30527WAT      O91822   7.798   3.852   9.272
30527WAT     H191823   7.765   3.834   9.179
30527WAT     H291824   7.892   3.883   9.268
30528WAT      O91825   1.628   2.757   2.622
30528WAT     H191826   1.659   2.852   2.626
30528WAT     H291827   1.640   2.723   2.529
30529WAT      O91828   8.509   9.494   0.019
30529WAT     H191829   8.570   9.470  -0.056
30529WAT     H291830   8.421   9.524  -0.018
30530WAT      O91831   8.449   1.042   6.808
30530WAT     H191832   8.430   0.977   6.882
30530WAT     H291833   8.437   0.996   6.720
30531WAT      O91834   5.861   1.286   2.551
30531WAT     H191835   5.869   1.333   2.464
30531WAT     H291836   5.849   1.354   2.624
30532WAT      O91837   0.177   3.920   2.728
30532WAT     H191838   0.112   3.902   2.654
30532WAT     H291839   0.130   3.963   2.804
30533WAT      O91840   2.693   1.711   4.852
30533WAT     H191841   2.605   1.664   4.856
30533WAT     H291842   2.721   1.738   4.944
30534WAT      O91843   1.351   3.323   8.430
30534WAT     H191844   1.270   3.296   8.378
30534WAT     H291845   1.423   3.255   8.418
30535WAT      O91846   4.604   0.777   3.644
30535WAT     H191847   4.693   0.805   3.607
30535WAT     H291848   4.605   0.787   3.743
30536WAT      O91849   6.171   4.737   0.743
30536WAT     H191850   6.156   4.644   0.778
30536WAT     H291851   6.115   4.751   0.662
30537WAT      O91852   8.635   2.982   8.090
30537WAT     H191853   8.695   2.909   8.058
30537WAT     H291854   8.658   3.067   8.043
30538WAT      O91855   3.680   6.594   4.237
30538WAT     H191856   3.676   6.521   4.305
30538WAT     H291857   3.699   6.555   4.147
30539WAT      O91858   2.623   2.854   2.266
30539WAT     H191859   2.689   2.880   2.337
30539WAT     H291860   2.633   2.915   2.188
30540WAT      O91861   5.978   5.920   4.280
30540WAT     H191862   6.075   5.942   4.270
30540WAT     H291863   5.957   5.840   4.225
30541WAT      O91864   7.250   5.336   2.992
30541WAT     H191865   7.240   5.237   3.007
30541WAT     H291866   7.343   5.355   2.958
30542WAT      O91867   5.141   7.965   1.995
30542WAT     H191868   5.044   7.983   1.978
30542WAT     H291869   5.169   8.012   2.079
30543WAT      O91870   7.241   2.596   8.316
30543WAT     H191871   7.291   2.510   8.323
30543WAT     H291872   7.305   2.672   8.310
30544WAT      O91873   6.192   3.070   2.831
30544WAT     H191874   6.233   3.035   2.747
30544WAT     H291875   6.200   3.170   2.833
30545WAT      O91876   3.492   2.041   4.187
30545WAT     H191877   3.510   1.943   4.177
30545WAT     H291878   3.511   2.088   4.100
30546WAT      O91879   2.500   5.935   1.465
30546WAT     H191880   2.439   5.856   1.470
30546WAT     H291881   2.594   5.904   1.457
30547WAT      O91882   1.709   8.656   5.342
30547WAT     H191883   1.703   8.701   5.252
30547WAT     H291884   1.762   8.714   5.404
30548WAT      O91885   7.704   9.423   4.970
30548WAT     H191886   7.780   9.453   4.912
30548WAT     H291887   7.739   9.372   5.048
30549WAT      O91888   0.856   9.608   4.311
30549WAT     H191889   0.855   9.564   4.401
30549WAT     H291890   0.762   9.629   4.283
30550WAT      O91891   3.865   6.937   6.951
30550WAT     H191892   3.927   6.868   6.917
30550WAT     H291893   3.809   6.899   7.025
30551WAT      O91894   3.502   6.143   9.486
30551WAT     H191895   3.448   6.197   9.421
30551WAT     H291896   3.447   6.068   9.522
30552WAT      O91897   6.633   0.675   3.348
30552WAT     H191898   6.716   0.679   3.291
30552WAT     H291899   6.563   0.623   3.300
30553WAT      O91900   2.688   4.003   3.206
30553WAT     H191901   2.660   4.075   3.270
30553WAT     H291902   2.787   3.993   3.210
30554WAT      O91903   5.590   1.854   3.619
30554WAT     H191904   5.689   1.857   3.630
30554WAT     H291905   5.565   1.773   3.566
30555WAT      O91906   2.060   4.503   9.036
30555WAT     H191907   1.992   4.521   9.106
30555WAT     H291908   2.118   4.583   9.024
30556WAT      O91909   0.218   2.036   5.510
30556WAT     H191910   0.311   2.015   5.478
30556WAT     H291911   0.201   1.990   5.597
30557WAT      O91912   5.089   7.849   3.750
30557WAT     H191913   4.990   7.849   3.761
30557WAT     H291914   5.116   7.772   3.691
30558WAT      O91915   5.487   6.394   3.885
30558WAT     H191916   5.571   6.425   3.840
30558WAT     H291917   5.490   6.295   3.895
30559WAT      O91918   4.177   1.887   3.088
30559WAT     H191919   4.207   1.981   3.070
30559WAT     H291920   4.201   1.862   3.182
30560WAT      O91921   6.291   1.638   1.655
30560WAT     H191922   6.250   1.707   1.715
30560WAT     H291923   6.220   1.596   1.599
30561WAT      O91924   9.227   3.544   1.279
30561WAT     H191925   9.173   3.606   1.223
30561WAT     H291926   9.218   3.569   1.376
30562WAT      O91927   0.201   6.921   5.444
30562WAT     H191928   0.172   7.000   5.391
30562WAT     H291929   0.262   6.950   5.517
30563WAT      O91930   3.688   7.213   3.689
30563WAT     H191931   3.622   7.228   3.616
30563WAT     H291932   3.752   7.290   3.691
30564WAT      O91933   8.830   1.469   4.944
30564WAT     H191934   8.804   1.468   5.041
30564WAT     H291935   8.748   1.474   4.887
30565WAT      O91936   0.451   1.262   9.567
30565WAT     H191937   0.445   1.358   9.592
30565WAT     H291938   0.379   1.239   9.502
30566WAT      O91939   3.328   0.287   0.059
30566WAT     H191940   3.257   0.342   0.103
30566WAT     H291941   3.319   0.294  -0.040
30567WAT      O91942   1.310   2.564   6.111
30567WAT     H191943   1.242   2.637   6.107
30567WAT     H291944   1.293   2.499   6.038
30568WAT      O91945   7.159   3.901   6.262
30568WAT     H191946   7.232   3.834   6.275
30568WAT     H291947   7.173   3.948   6.175
30569WAT      O91948   6.794   8.916   9.559
30569WAT     H191949   6.862   8.951   9.495
30569WAT     H291950   6.838   8.892   9.645
30570WAT      O91951   5.494   7.774   7.052
30570WAT     H191952   5.482   7.841   7.125
30570WAT     H291953   5.433   7.795   6.976
30571WAT      O91954   9.829   2.940   5.368
30571WAT     H191955   9.766   2.881   5.418
30571WAT     H291956   9.841   2.906   5.275
30572WAT      O91957   6.216   9.702   1.053
30572WAT     H191958   6.239   9.607   1.030
30572WAT     H291959   6.233   9.760   0.973
30573WAT      O91960   2.348   8.052   6.367
30573WAT     H191961   2.392   7.965   6.391
30573WAT     H291962   2.281   8.075   6.438
30574WAT      O91963   2.824   4.494   0.606
30574WAT     H191964   2.779   4.563   0.549
30574WAT     H291965   2.923   4.499   0.592
30575WAT      O91966   7.513   8.214   7.708
30575WAT     H191967   7.528   8.125   7.749
30575WAT     H291968   7.482   8.279   7.777
30576WAT      O91969   1.539   1.726   5.354
30576WAT     H191970   1.440   1.733   5.365
30576WAT     H291971   1.585   1.771   5.430
30577WAT      O91972   9.708   8.123   6.904
30577WAT     H191973   9.804   8.098   6.918
30577WAT     H291974   9.687   8.120   6.806
30578WAT      O91975   2.810   6.170   8.619
30578WAT     H191976   2.803   6.170   8.520
30578WAT     H291977   2.820   6.075   8.652
30579WAT      O91978   7.677   2.335   9.502
30579WAT     H191979   7.763   2.291   9.479
30579WAT     H291980   7.638   2.290   9.583
30580WAT      O91981   1.461   4.036   8.692
30580WAT     H191982   1.522   3.989   8.756
30580WAT     H291983   1.508   4.049   8.604
30581WAT      O91984   4.185   5.117   4.082
30581WAT     H191985   4.091   5.113   4.047
30581WAT     H291986   4.195   5.050   4.156
30582WAT      O91987   5.847   3.786   0.818
30582WAT     H191988   5.756   3.816   0.847
30582WAT     H291989   5.881   3.718   0.883
30583WAT      O91990   7.127   8.903   8.895
30583WAT     H191991   7.198   8.904   8.824
30583WAT     H291992   7.045   8.950   8.861
30584WAT      O91993   2.721   4.597   1.252
30584WAT     H191994   2.725   4.528   1.180
30584WAT     H291995   2.740   4.554   1.340
30585WAT      O91996   6.273   3.387   1.936
30585WAT     H191997   6.245   3.324   1.864
30585WAT     H291998   6.241   3.353   2.024
30586WAT      O91999   6.161   5.261   8.113
30586WAT     H192000   6.148   5.163   8.124
30586WAT     H292001   6.110   5.292   8.032
30587WAT      O92002   5.198   9.539   5.497
30587WAT     H192003   5.292   9.512   5.518
30587WAT     H292004   5.196   9.588   5.410
30588WAT      O92005   7.086   0.657   3.542
30588WAT     H192006   7.081   0.756   3.528
30588WAT     H292007   7.079   0.610   3.454
30589WAT      O92008   6.562   8.270   9.192
30589WAT     H192009   6.519   8.348   9.147
30589WAT     H292010   6.540   8.186   9.142
30590WAT      O92011   6.358   7.552   1.855
30590WAT     H192012   6.315   7.627   1.905
30590WAT     H292013   6.391   7.585   1.767
30591WAT      O92014   9.315   7.896   7.774
30591WAT     H192015   9.216   7.900   7.759
30591WAT     H292016   9.361   7.948   7.703
30592WAT      O92017   8.380   2.161   5.605
30592WAT     H192018   8.386   2.169   5.506
30592WAT     H292019   8.326   2.237   5.642
30593WAT      O92020   5.346   9.165   0.037
30593WAT     H192021   5.403   9.153   0.119
30593WAT     H292022   5.349   9.082  -0.018
30594WAT      O92023   2.225   0.153   1.874
30594WAT     H192024   2.253   0.078   1.814
30594WAT     H292025   2.128   0.172   1.860
30595WAT      O92026   5.238   3.217   2.478
30595WAT     H192027   5.187   3.239   2.561
30595WAT     H292028   5.266   3.301   2.432
30596WAT      O92029   5.445   8.765   0.526
30596WAT     H192030   5.465   8.725   0.614
30596WAT     H292031   5.510   8.732   0.457
30597WAT      O92032   3.190   1.543   4.077
30597WAT     H192033   3.175   1.496   4.163
30597WAT     H292034   3.132   1.625   4.073
30598WAT      O92035   6.390   1.086   3.113
30598WAT     H192036   6.387   0.986   3.109
30598WAT     H292037   6.427   1.122   3.027
30599WAT      O92038   2.674   9.543   1.189
30599WAT     H192039   2.675   9.456   1.138
30599WAT     H292040   2.579   9.566   1.211
30600WAT      O92041   0.668   5.000   8.775
30600WAT     H192042   0.580   5.009   8.823
30600WAT     H292043   0.707   5.091   8.761
30601WAT      O92044   7.220   5.325   4.812
30601WAT     H192045   7.167   5.409   4.829
30601WAT     H292046   7.214   5.302   4.715
30602WAT      O92047   6.628   8.844   8.600
30602WAT     H192048   6.563   8.919   8.614
30602WAT     H292049   6.704   8.854   8.665
30603WAT      O92050   1.244   8.285   8.124
30603WAT     H192051   1.250   8.379   8.156
30603WAT     H292052   1.333   8.240   8.135
30604WAT      O92053   8.326   9.355   4.517
30604WAT     H192054   8.286   9.386   4.604
30604WAT     H292055   8.318   9.255   4.510
30605WAT      O92056   2.181   3.771   4.506
30605WAT     H192057   2.149   3.686   4.464
30605WAT     H292058   2.109   3.810   4.563
30606WAT      O92059   5.526   0.865   4.049
30606WAT     H192060   5.488   0.815   4.126
30606WAT     H292061   5.534   0.805   3.970
30607WAT      O92062   8.567   2.264   6.282
30607WAT     H192063   8.646   2.248   6.222
30607WAT     H292064   8.532   2.356   6.266
30608WAT      O92065   4.307   0.231   8.895
30608WAT     H192066   4.278   0.135   8.890
30608WAT     H292067   4.226   0.290   8.890
30609WAT      O92068   3.898   6.894   9.410
30609WAT     H192069   3.802   6.903   9.437
30609WAT     H292070   3.948   6.845   9.481
30610WAT      O92071   1.458   7.497   8.193
30610WAT     H192072   1.501   7.414   8.158
30610WAT     H292073   1.372   7.512   8.144
30611WAT      O92074   1.031   5.012   3.649
30611WAT     H192075   1.128   5.018   3.669
30611WAT     H292076   0.984   5.093   3.684
30612WAT      O92077   7.686   8.537   0.080
30612WAT     H192078   7.749   8.494   0.145
30612WAT     H292079   7.594   8.504   0.097
30613WAT      O92080   4.182   6.729   0.208
30613WAT     H192081   4.243   6.767   0.277
30613WAT     H292082   4.230   6.724   0.120
30614WAT      O92083   6.668   0.670   8.935
30614WAT     H192084   6.581   0.710   8.908
30614WAT     H292085   6.743   0.720   8.891
30615WAT      O92086   4.535   6.938   4.405
30615WAT     H192087   4.615   6.920   4.462
30615WAT     H292088   4.498   6.852   4.370
30616WAT      O92089   2.747   0.911   8.323
30616WAT     H192090   2.761   0.877   8.416
30616WAT     H292091   2.777   0.842   8.257
30617WAT      O92092   0.369   3.684   9.782
30617WAT     H192093   0.465   3.669   9.759
30617WAT     H292094   0.352   3.651   9.875
30618WAT      O92095   0.081   1.621   5.705
30618WAT     H192096   0.093   1.709   5.659
30618WAT     H292097   0.143   1.615   5.783
30619WAT      O92098   6.171   4.448   0.489
30619WAT     H192099   6.245   4.514   0.475
30619WAT     H292100   6.184   4.401   0.576
30620WAT      O92101   9.198   0.276   7.289
30620WAT     H192102   9.153   0.234   7.211
30620WAT     H292103   9.157   0.243   7.374
30621WAT      O92104   4.281   7.250   6.141
30621WAT     H192105   4.334   7.285   6.063
30621WAT     H292106   4.194   7.298   6.146
30622WAT      O92107   2.395   9.754   2.392
30622WAT     H192108   2.323   9.785   2.330
30622WAT     H292109   2.469   9.822   2.393
30623WAT      O92110   8.261   8.116   1.715
30623WAT     H192111   8.262   8.021   1.746
30623WAT     H292112   8.274   8.177   1.793
30624WAT      O92113   1.969   1.729   6.101
30624WAT     H192114   1.929   1.661   6.040
30624WAT     H292115   1.902   1.800   6.121
30625WAT      O92116   3.586   0.973   2.557
30625WAT     H192117   3.561   1.032   2.481
30625WAT     H292118   3.682   0.989   2.581
30626WAT      O92119   3.971   4.468   1.931
30626WAT     H192120   3.881   4.424   1.929
30626WAT     H292121   3.998   4.492   1.838
30627WAT      O92122   3.006   1.768   4.109
30627WAT     H192123   3.065   1.832   4.157
30627WAT     H292124   2.926   1.816   4.074
30628WAT      O92125   7.776   5.137   4.108
30628WAT     H192126   7.776   5.232   4.138
30628WAT     H292127   7.832   5.128   4.026
30629WAT      O92128   3.728   1.765   1.690
30629WAT     H192129   3.774   1.677   1.704
30629WAT     H292130   3.678   1.789   1.773
30630WAT      O92131   8.828   6.125   1.005
30630WAT     H192132   8.830   6.147   1.102
30630WAT     H292133   8.909   6.162   0.960
30631WAT      O92134   8.436   0.166   8.289
30631WAT     H192135   8.400   0.186   8.380
30631WAT     H292136   8.404   0.236   8.225
30632WAT      O92137   5.998   2.373   6.251
30632WAT     H192138   6.070   2.364   6.183
30632WAT     H292139   5.946   2.287   6.256
30633WAT      O92140   0.864   6.049   0.061
30633WAT     H192141   0.877   5.950   0.058
30633WAT     H292142   0.774   6.070   0.097
30634WAT      O92143   1.253   0.566   0.318
30634WAT     H192144   1.351   0.550   0.323
30634WAT     H292145   1.210   0.547   0.406
30635WAT      O92146   6.033   4.925   4.776
30635WAT     H192147   5.950   4.956   4.729
30635WAT     H292148   6.078   5.004   4.819
30636WAT      O92149   1.169   1.592   7.868
30636WAT     H192150   1.210   1.502   7.855
30636WAT     H292151   1.069   1.585   7.857
30637WAT      O92152   1.171   9.282   9.514
30637WAT     H192153   1.168   9.334   9.428
30637WAT     H292154   1.260   9.239   9.524
30638WAT      O92155   7.269   5.998   6.018
30638WAT     H192156   7.225   6.012   6.107
30638WAT     H292157   7.205   5.951   5.957
30639WAT      O92158   5.981   6.826   8.251
30639WAT     H192159   6.020   6.767   8.321
30639WAT     H292160   6.033   6.817   8.166
30640WAT      O92161   4.964   8.255   3.021
30640WAT     H192162   4.986   8.346   3.058
30640WAT     H292163   5.047   8.211   2.988
30641WAT      O92164   1.801   6.806   5.769
30641WAT     H192165   1.790   6.800   5.868
30641WAT     H292166   1.712   6.796   5.725
30642WAT      O92167   3.465   1.667   4.396
30642WAT     H192168   3.449   1.727   4.475
30642WAT     H292169   3.434   1.575   4.417
30643WAT      O92170   0.237   7.011   1.363
30643WAT     H192171   0.172   7.024   1.437
30643WAT     H292172   0.329   6.998   1.400
30644WAT      O92173   2.225   6.643   8.650
30644WAT     H192174   2.290   6.714   8.621
30644WAT     H292175   2.171   6.677   8.726
30645WAT      O92176   3.200   4.896   7.690
30645WAT     H192177   3.243   4.986   7.685
30645WAT     H292178   3.174   4.876   7.784
30646WAT      O92179   4.079   0.645   6.839
30646WAT     H192180   4.036   0.730   6.810
30646WAT     H292181   4.042   0.569   6.784
30647WAT      O92182   9.578   3.780   1.199
30647WAT     H192183   9.560   3.864   1.250
30647WAT     H292184   9.660   3.736   1.236
30648WAT      O92185   8.613   4.662   3.336
30648WAT     H192186   8.610   4.730   3.263
30648WAT     H292187   8.526   4.613   3.340
30649WAT      O92188   5.328   1.890   5.091
30649WAT     H192189   5.274   1.923   5.169
30649WAT     H292190   5.425   1.889   5.115
30650WAT      O92191   1.182   4.182   3.292
30650WAT     H192192   1.132   4.233   3.361
30650WAT     H292193   1.270   4.153   3.329
30651WAT      O92194   0.277   1.254   9.104
30651WAT     H192195   0.179   1.253   9.086
30651WAT     H292196   0.328   1.251   9.018
30652WAT      O92197   4.672   7.096  -0.001
30652WAT     H192198   4.697   7.111   0.095
30652WAT     H292199   4.722   7.161  -0.059
30653WAT      O92200   8.761   3.314   3.269
30653WAT     H192201   8.776   3.253   3.192
30653WAT     H292202   8.710   3.265   3.341
30654WAT      O92203   6.102   0.133   9.644
30654WAT     H192204   6.094   0.104   9.740
30654WAT     H292205   6.143   0.224   9.640
30655WAT      O92206   4.391   9.598   6.374
30655WAT     H192207   4.424   9.625   6.465
30655WAT     H292208   4.380   9.679   6.317
30656WAT      O92209   8.868   5.328   1.836
30656WAT     H192210   8.962   5.313   1.804
30656WAT     H292211   8.869   5.393   1.912
30657WAT      O92212   3.924   2.292   6.778
30657WAT     H192213   3.881   2.369   6.825
30657WAT     H292214   4.023   2.297   6.790
30658WAT      O92215   9.709   8.851   6.521
30658WAT     H192216   9.731   8.839   6.425
30658WAT     H292217   9.624   8.802   6.543
30659WAT      O92218   4.420   7.806   4.239
30659WAT     H192219   4.416   7.817   4.338
30659WAT     H292220   4.358   7.872   4.195
30660WAT      O92221   3.192   3.412   4.429
30660WAT     H192222   3.227   3.356   4.505
30660WAT     H292223   3.209   3.365   4.342
30661WAT      O92224   3.758   1.583   1.149
30661WAT     H192225   3.790   1.488   1.145
30661WAT     H292226   3.675   1.588   1.205
30662WAT      O92227   9.571   0.550   9.584
30662WAT     H192228   9.482   0.526   9.544
30662WAT     H292229   9.561   0.632   9.640
30663WAT      O92230   4.897   7.360   2.945
30663WAT     H192231   4.948   7.281   2.909
30663WAT     H292232   4.803   7.333   2.964
30664WAT      O92233   8.682   1.718   1.602
30664WAT     H192234   8.669   1.620   1.593
30664WAT     H292235   8.593   1.764   1.606
30665WAT      O92236   3.138   3.114   0.817
30665WAT     H192237   3.186   3.143   0.734
30665WAT     H292238   3.063   3.052   0.792
30666WAT      O92239   1.792   0.856   4.474
30666WAT     H192240   1.726   0.871   4.401
30666WAT     H292241   1.749   0.807   4.550
30667WAT      O92242   8.752   3.584   2.675
30667WAT     H192243   8.820   3.609   2.744
30667WAT     H292244   8.772   3.631   2.589
30668WAT      O92245   0.374   9.710   1.308
30668WAT     H192246   0.435   9.784   1.339
30668WAT     H292247   0.316   9.743   1.234
30669WAT      O92248   5.067   0.164   0.833
30669WAT     H192249   4.997   0.145   0.765
30669WAT     H292250   5.147   0.205   0.788
30670WAT      O92251   2.912   0.147   2.081
30670WAT     H192252   2.894   0.051   2.062
30670WAT     H292253   2.973   0.184   2.010
30671WAT      O92254   8.239   3.272   1.575
30671WAT     H192255   8.156   3.218   1.562
30671WAT     H292256   8.317   3.210   1.587
30672WAT      O92257   5.915   3.346   2.063
30672WAT     H192258   5.869   3.258   2.051
30672WAT     H292259   6.003   3.332   2.108
30673WAT      O92260   8.946   8.471   1.406
30673WAT     H192261   8.862   8.417   1.410
30673WAT     H292262   9.011   8.428   1.343
30674WAT      O92263   6.647   5.405   9.615
30674WAT     H192264   6.720   5.389   9.549
30674WAT     H292265   6.678   5.381   9.706
30675WAT      O92266   1.633   1.475   6.009
30675WAT     H192267   1.719   1.515   5.979
30675WAT     H292268   1.651   1.394   6.065
30676WAT      O92269   6.765   5.776   6.020
30676WAT     H192270   6.691   5.709   6.032
30676WAT     H292271   6.726   5.866   6.000
30677WAT      O92272   5.470   0.591   8.451
30677WAT     H192273   5.387   0.638   8.423
30677WAT     H292274   5.540   0.601   8.380
30678WAT      O92275   9.010   8.397   7.443
30678WAT     H192276   9.061   8.398   7.357
30678WAT     H292277   9.068   8.358   7.516
30679WAT      O92278   4.707   3.503   1.161
30679WAT     H192279   4.709   3.425   1.224
30679WAT     H292280   4.629   3.562   1.184
30680WAT      O92281   4.736   0.842   0.255
30680WAT     H192282   4.782   0.929   0.239
30680WAT     H292283   4.789   0.787   0.320
30681WAT      O92284   8.886   0.962   1.207
30681WAT     H192285   8.857   1.009   1.124
30681WAT     H292286   8.902   0.865   1.187
30682WAT      O92287   1.566   8.335   1.920
30682WAT     H192288   1.643   8.361   1.978
30682WAT     H292289   1.493   8.296   1.976
30683WAT      O92290   3.768   6.451   6.172
30683WAT     H192291   3.855   6.418   6.210
30683WAT     H292292   3.759   6.421   6.077
30684WAT      O92293   5.472   0.388   0.540
30684WAT     H192294   5.435   0.305   0.498
30684WAT     H292295   5.411   0.419   0.612
30685WAT      O92296   7.029   4.814   9.362
30685WAT     H192297   6.980   4.739   9.405
30685WAT     H292298   6.974   4.898   9.367
30686WAT      O92299   3.427   8.591   3.298
30686WAT     H192300   3.517   8.635   3.289
30686WAT     H292301   3.372   8.610   3.217
30687WAT      O92302   5.109   9.149   7.317
30687WAT     H192303   5.150   9.078   7.259
30687WAT     H292304   5.181   9.208   7.354
30688WAT      O92305   2.714   6.817   1.870
30688WAT     H192306   2.768   6.794   1.951
30688WAT     H292307   2.626   6.770   1.874
30689WAT      O92308   8.555   2.676   2.707
30689WAT     H192309   8.596   2.628   2.785
30689WAT     H292310   8.478   2.623   2.673
30690WAT      O92311   6.872   7.564   2.260
30690WAT     H192312   6.896   7.630   2.331
30690WAT     H292313   6.954   7.512   2.234
30691WAT      O92314   0.820   1.215   7.975
30691WAT     H192315   0.730   1.207   7.933
30691WAT     H292316   0.837   1.135   8.033
30692WAT      O92317   4.045   4.505   4.492
30692WAT     H192318   4.075   4.438   4.424
30692WAT     H292319   4.110   4.508   4.568
30693WAT      O92320   2.302   4.095   3.417
30693WAT     H192321   2.279   3.999   3.399
30693WAT     H292322   2.283   4.149   3.335
30694WAT      O92323   1.299   7.293   7.878
30694WAT     H192324   1.260   7.369   7.930
30694WAT     H292325   1.399   7.300   7.880
30695WAT      O92326   6.699   9.109   9.205
30695WAT     H192327   6.743   9.123   9.116
30695WAT     H292328   6.763   9.131   9.278
30696WAT      O92329   2.065   3.808   5.648
30696WAT     H192330   1.991   3.762   5.697
30696WAT     H292331   2.086   3.895   5.694
30697WAT      O92332   8.822   5.764   7.462
30697WAT     H192333   8.796   5.676   7.502
30697WAT     H292334   8.821   5.835   7.533
30698WAT      O92335   0.140   9.400   4.529
30698WAT     H192336   0.109   9.305   4.529
30698WAT     H292337   0.219   9.409   4.467
30699WAT      O92338   2.163   4.707   2.383
30699WAT     H192339   2.139   4.798   2.350
30699WAT     H292340   2.113   4.688   2.468
30700WAT      O92341   7.360   2.509   6.294
30700WAT     H192342   7.411   2.432   6.255
30700WAT     H292343   7.416   2.591   6.289
30701WAT      O92344   7.237   8.424   1.093
30701WAT     H192345   7.138   8.429   1.080
30701WAT     H292346   7.283   8.462   1.012
30702WAT      O92347   6.480   1.354   7.850
30702WAT     H192348   6.434   1.400   7.774
30702WAT     H292349   6.578   1.350   7.832
30703WAT      O92350   2.814   5.714   3.850
30703WAT     H192351   2.779   5.694   3.759
30703WAT     H292352   2.738   5.737   3.911
30704WAT      O92353   5.760   1.110   2.315
30704WAT     H192354   5.733   1.016   2.296
30704WAT     H292355   5.859   1.120   2.300
30705WAT      O92356   2.440   7.091   4.638
30705WAT     H192357   2.417   7.097   4.541
30705WAT     H292358   2.441   6.996   4.667
30706WAT      O92359   3.504   1.666   6.606
30706WAT     H192360   3.539   1.753   6.571
30706WAT     H292361   3.517   1.662   6.705
30707WAT      O92362   0.207   4.722   0.643
30707WAT     H192363   0.215   4.744   0.740
30707WAT     H292364   0.114   4.691   0.623
30708WAT      O92365   0.942   0.317   8.749
30708WAT     H192366   0.921   0.248   8.819
30708WAT     H292367   0.942   0.408   8.791
30709WAT      O92368   6.906   8.929   5.231
30709WAT     H192369   6.874   8.941   5.137
30709WAT     H292370   7.006   8.926   5.231
30710WAT      O92371   4.670   7.998   9.725
30710WAT     H192372   4.691   8.003   9.823
30710WAT     H292373   4.583   7.952   9.712
30711WAT      O92374   8.483   9.741   6.856
30711WAT     H192375   8.520   9.752   6.949
30711WAT     H292376   8.400   9.796   6.847
30712WAT      O92377   8.433   4.447   5.919
30712WAT     H192378   8.385   4.415   5.837
30712WAT     H292379   8.518   4.396   5.929
30713WAT      O92380   1.507   9.139   6.393
30713WAT     H192381   1.604   9.161   6.404
30713WAT     H292382   1.454   9.224   6.385
30714WAT      O92383   9.695   6.008   5.798
30714WAT     H192384   9.621   6.062   5.839
30714WAT     H292385   9.657   5.922   5.764
30715WAT      O92386   7.633   2.723   9.414
30715WAT     H192387   7.537   2.708   9.391
30715WAT     H292388   7.662   2.813   9.383
30716WAT      O92389   9.515   0.484   7.886
30716WAT     H192390   9.452   0.497   7.963
30716WAT     H292391   9.605   0.459   7.922
30717WAT      O92392   9.259   8.082   6.111
30717WAT     H192393   9.342   8.097   6.166
30717WAT     H292394   9.260   7.990   6.073
30718WAT      O92395   8.763   5.046   8.259
30718WAT     H192396   8.820   4.984   8.205
30718WAT     H292397   8.734   5.001   8.343
30719WAT      O92398   6.964   0.398   1.150
30719WAT     H192399   6.922   0.433   1.234
30719WAT     H292400   7.035   0.332   1.173
30720WAT      O92401   7.937   1.811   7.480
30720WAT     H192402   7.894   1.721   7.482
30720WAT     H292403   7.890   1.872   7.544
30721WAT      O92404   1.696   2.598   7.076
30721WAT     H192405   1.686   2.696   7.057
30721WAT     H292406   1.618   2.567   7.130
30722WAT      O92407   4.787   5.028   3.833
30722WAT     H192408   4.853   4.956   3.852
30722WAT     H292409   4.805   5.068   3.743
30723WAT      O92410   3.536   0.767   7.707
30723WAT     H192411   3.512   0.759   7.611
30723WAT     H292412   3.456   0.794   7.760
30724WAT      O92413   8.656   2.349   7.947
30724WAT     H192414   8.561   2.378   7.962
30724WAT     H292415   8.686   2.380   7.857
30725WAT      O92416   0.844   1.189   5.278
30725WAT     H192417   0.865   1.213   5.373
30725WAT     H292418   0.767   1.245   5.246
30726WAT      O92419   7.610   0.466   6.290
30726WAT     H192420   7.646   0.408   6.216
30726WAT     H292421   7.524   0.427   6.324
30727WAT      O92422   2.276   7.726   9.166
30727WAT     H192423   2.280   7.826   9.164
30727WAT     H292424   2.335   7.692   9.238
30728WAT      O92425   9.454   2.893   7.935
30728WAT     H192426   9.535   2.908   7.991
30728WAT     H292427   9.442   2.795   7.919
30729WAT      O92428   9.008   5.890   2.942
30729WAT     H192429   8.994   5.862   3.037
30729WAT     H292430   8.929   5.861   2.887
30730WAT      O92431   3.869   7.591   7.810
30730WAT     H192432   3.919   7.637   7.883
30730WAT     H292433   3.775   7.574   7.840
30731WAT      O92434   9.097   6.132   0.400
30731WAT     H192435   9.050   6.161   0.316
30731WAT     H292436   9.029   6.095   0.464
30732WAT      O92437   9.348   1.478   0.372
30732WAT     H192438   9.363   1.574   0.394
30732WAT     H292439   9.250   1.457   0.377
30733WAT      O92440   8.465   0.348   4.042
30733WAT     H192441   8.463   0.270   4.104
30733WAT     H292442   8.372   0.364   4.006
30734WAT      O92443   8.527   8.061   3.956
30734WAT     H192444   8.527   7.963   3.974
30734WAT     H292445   8.432   8.094   3.952
30735WAT      O92446   0.238   4.553   4.866
30735WAT     H192447   0.264   4.457   4.851
30735WAT     H292448   0.221   4.597   4.778
30736WAT      O92449   1.478   6.070   2.734
30736WAT     H192450   1.485   5.973   2.709
30736WAT     H292451   1.569   6.111   2.734
30737WAT      O92452   0.883   6.003   4.050
30737WAT     H192453   0.978   6.028   4.028
30737WAT     H292454   0.842   5.956   3.972
30738WAT      O92455   5.368   8.001   0.057
30738WAT     H192456   5.421   7.929   0.011
30738WAT     H292457   5.271   7.975   0.058
30739WAT      O92458   9.009   5.625   7.336
30739WAT     H192459   8.945   5.694   7.371
30739WAT     H292460   8.966   5.575   7.261
30740WAT      O92461   7.530   1.345   3.546
30740WAT     H192462   7.492   1.256   3.569
30740WAT     H292463   7.626   1.348   3.570
30741WAT      O92464   5.480   2.337   2.889
30741WAT     H192465   5.501   2.384   2.803
30741WAT     H292466   5.541   2.371   2.961
30742WAT      O92467   8.874   6.112   3.917
30742WAT     H192468   8.842   6.100   3.823
30742WAT     H292469   8.803   6.081   3.980
30743WAT      O92470   8.405   5.708   9.387
30743WAT     H192471   8.420   5.754   9.299
30743WAT     H292472   8.459   5.624   9.390
30744WAT      O92473   6.969   4.058   8.915
30744WAT     H192474   6.935   4.137   8.865
30744WAT     H292475   6.995   3.986   8.851
30745WAT      O92476   9.663   3.808   4.224
30745WAT     H192477   9.671   3.819   4.125
30745WAT     H292478   9.693   3.717   4.251
30746WAT      O92479   0.748   2.292   3.440
30746WAT     H192480   0.761   2.384   3.402
30746WAT     H292481   0.704   2.234   3.372
30747WAT      O92482   7.858   5.321   6.400
30747WAT     H192483   7.807   5.341   6.484
30747WAT     H292484   7.822   5.376   6.325
30748WAT      O92485   2.524   7.305   2.021
30748WAT     H192486   2.576   7.369   2.077
30748WAT     H292487   2.586   7.259   1.957
30749WAT      O92488   0.565   7.781   2.226
30749WAT     H192489   0.620   7.812   2.303
30749WAT     H292490   0.495   7.850   2.205
30750WAT      O92491   5.931   5.751   6.348
30750WAT     H192492   5.968   5.769   6.439
30750WAT     H292493   5.908   5.838   6.303
30751WAT      O92494   2.507   7.514   6.628
30751WAT     H192495   2.573   7.546   6.559
30751WAT     H292496   2.487   7.417   6.612
30752WAT      O92497   6.150   0.594   2.347
30752WAT     H192498   6.167   0.688   2.374
30752WAT     H292499   6.099   0.593   2.261
30753WAT      O92500   8.861   7.329   0.927
30753WAT     H192501   8.951   7.294   0.903
30753WAT     H292502   8.793   7.294   0.862
30754WAT      O92503   2.565   8.492   7.599
30754WAT     H192504   2.526   8.552   7.529
30754WAT     H292505   2.502   8.416   7.617
30755WAT      O92506   5.809   5.126   2.603
30755WAT     H192507   5.719   5.164   2.582
30755WAT     H292508   5.868   5.199   2.639
30756WAT      O92509   6.088   5.757   3.575
30756WAT     H192510   6.026   5.686   3.607
30756WAT     H292511   6.085   5.836   3.636
30757WAT      O92512   3.476   4.492   4.774
30757WAT     H192513   3.442   4.555   4.844
30757WAT     H292514   3.562   4.527   4.736
30758WAT      O92515   4.124   7.151   7.291
30758WAT     H192516   4.220   7.171   7.309
30758WAT     H292517   4.079   7.234   7.255
30759WAT      O92518   7.804   1.095   3.537
30759WAT     H192519   7.793   1.151   3.618
30759WAT     H292520   7.895   1.052   3.538
30760WAT      O92521   1.592   0.474   2.295
30760WAT     H192522   1.598   0.376   2.276
30760WAT     H292523   1.512   0.513   2.249
30761WAT      O92524   2.222   0.052   7.582
30761WAT     H192525   2.270   0.095   7.659
30761WAT     H292526   2.161  -0.019   7.616
30762WAT      O92527   3.631   2.818   3.826
30762WAT     H192528   3.605   2.775   3.913
30762WAT     H292529   3.564   2.794   3.756
30763WAT      O92530   5.479   5.713   9.703
30763WAT     H192531   5.409   5.646   9.677
30763WAT     H292532   5.434   5.797   9.734
30764WAT      O92533   8.237   2.935   9.013
30764WAT     H192534   8.242   3.019   9.068
30764WAT     H292535   8.246   2.959   8.917
30765WAT      O92536   3.719   7.423   5.047
30765WAT     H192537   3.790   7.396   4.982
30765WAT     H292538   3.752   7.407   5.140
30766WAT      O92539   0.993   0.858   6.680
30766WAT     H192540   0.972   0.861   6.582
30766WAT     H292541   0.939   0.928   6.727
30767WAT      O92542   8.277   2.643   1.669
30767WAT     H192543   8.320   2.567   1.718
30767WAT     H292544   8.340   2.676   1.598
30768WAT      O92545   4.147   1.005   0.496
30768WAT     H192546   4.116   0.913   0.475
30768WAT     H292547   4.246   1.012   0.479
30769WAT      O92548   8.388   1.876   8.423
30769WAT     H192549   8.343   1.795   8.386
30769WAT     H292550   8.488   1.863   8.420
30770WAT      O92551   8.532   4.625   9.147
30770WAT     H192552   8.595   4.617   9.224
30770WAT     H292553   8.576   4.678   9.074
30771WAT      O92554   9.700   7.557   6.265
30771WAT     H192555   9.686   7.490   6.338
30771WAT     H292556   9.721   7.509   6.179
30772WAT      O92557   8.653   9.654   3.285
30772WAT     H192558   8.668   9.609   3.372
30772WAT     H292559   8.592   9.732   3.298
30773WAT      O92560   4.516   0.668   5.876
30773WAT     H192561   4.495   0.759   5.839
30773WAT     H292562   4.439   0.607   5.858
30774WAT      O92563   8.353   5.888   4.205
30774WAT     H192564   8.430   5.919   4.260
30774WAT     H292565   8.374   5.902   4.108
30775WAT      O92566   4.643   2.383   6.472
30775WAT     H192567   4.695   2.454   6.425
30775WAT     H292568   4.683   2.294   6.453
30776WAT      O92569   2.283   7.882   8.729
30776WAT     H192570   2.350   7.954   8.744
30776WAT     H292571   2.290   7.814   8.803
30777WAT      O92572   4.203   0.745   9.143
30777WAT     H192573   4.136   0.672   9.152
30777WAT     H292574   4.257   0.751   9.227
30778WAT      O92575   0.435   5.940   1.372
30778WAT     H192576   0.529   5.964   1.396
30778WAT     H292577   0.420   5.958   1.275
30779WAT      O92578   4.915   2.175   4.510
30779WAT     H192579   4.854   2.173   4.431
30779WAT     H292580   4.927   2.082   4.546
30780WAT      O92581   5.376   5.945   9.801
30780WAT     H192582   5.440   6.018   9.777
30780WAT     H292583   5.285   5.967   9.767
30781WAT      O92584   5.363   5.365   9.484
30781WAT     H192585   5.406   5.414   9.407
30781WAT     H292586   5.264   5.371   9.476
30782WAT      O92587   3.661   3.989   5.187
30782WAT     H192588   3.749   4.037   5.187
30782WAT     H292589   3.665   3.914   5.253
30783WAT      O92590   2.836   7.342   8.185
30783WAT     H192591   2.875   7.343   8.092
30783WAT     H292592   2.736   7.352   8.179
30784WAT      O92593   5.004   5.347   3.349
30784WAT     H192594   5.058   5.263   3.355
30784WAT     H292595   4.945   5.343   3.268
30785WAT      O92596   6.864   6.140   9.825
30785WAT     H192597   6.890   6.186   9.910
30785WAT     H292598   6.771   6.166   9.800
30786WAT      O92599   6.350   3.293   0.310
30786WAT     H192600   6.363   3.377   0.363
30786WAT     H292601   6.431   3.235   0.319
30787WAT      O92602   6.246   5.091   7.774
30787WAT     H192603   6.316   5.144   7.822
30787WAT     H292604   6.198   5.150   7.709
30788WAT      O92605   8.650   5.296   4.241
30788WAT     H192606   8.570   5.303   4.181
30788WAT     H292607   8.662   5.381   4.291
30789WAT      O92608   6.249   4.148   8.913
30789WAT     H192609   6.219   4.059   8.878
30789WAT     H292610   6.339   4.138   8.957
30790WAT      O92611   0.743   3.056   9.750
30790WAT     H192612   0.838   3.047   9.719
30790WAT     H292613   0.730   3.145   9.793
30791WAT      O92614   8.920   6.535   6.161
30791WAT     H192615   8.993   6.586   6.207
30791WAT     H292616   8.951   6.507   6.071
30792WAT      O92617   2.674   7.494   1.740
30792WAT     H192618   2.720   7.583   1.736
30792WAT     H292619   2.576   7.508   1.726
30793WAT      O92620   2.336   8.371   2.490
30793WAT     H192621   2.421   8.342   2.533
30793WAT     H292622   2.357   8.427   2.409
30794WAT      O92623   2.462   2.114   6.163
30794WAT     H192624   2.423   2.096   6.253
30794WAT     H292625   2.541   2.175   6.173
30795WAT      O92626   3.204   1.181   8.671
30795WAT     H192627   3.266   1.107   8.696
30795WAT     H292628   3.110   1.150   8.680
30796WAT      O92629   1.914   8.285   0.740
30796WAT     H192630   1.874   8.366   0.783
30796WAT     H292631   1.875   8.274   0.648
30797WAT      O92632   7.511   6.288   8.292
30797WAT     H192633   7.449   6.362   8.317
30797WAT     H292634   7.483   6.204   8.339
30798WAT      O92635   4.342   3.409   8.149
30798WAT     H192636   4.297   3.320   8.149
30798WAT     H292637   4.283   3.476   8.103
30799WAT      O92638   3.529   8.792   0.200
30799WAT     H192639   3.580   8.707   0.183
30799WAT     H292640   3.537   8.817   0.297
30800WAT      O92641   5.475   3.165   0.284
30800WAT     H192642   5.424   3.109   0.219
30800WAT     H292643   5.505   3.109   0.361
30801WAT      O92644   5.428   5.029   3.993
30801WAT     H192645   5.330   5.041   3.981
30801WAT     H292646   5.476   5.056   3.909
30802WAT      O92647   6.621   8.011   1.957
30802WAT     H192648   6.679   7.937   1.990
30802WAT     H292649   6.571   8.051   2.034
30803WAT      O92650   6.703   1.937   0.234
30803WAT     H192651   6.699   1.969   0.329
30803WAT     H292652   6.647   1.998   0.177
30804WAT      O92653   2.480   3.610   6.980
30804WAT     H192654   2.510   3.703   6.998
30804WAT     H292655   2.387   3.598   7.014
30805WAT      O92656   2.452   2.205   7.183
30805WAT     H192657   2.486   2.298   7.169
30805WAT     H292658   2.521   2.151   7.231
30806WAT      O92659   1.743   8.800   8.676
30806WAT     H192660   1.735   8.775   8.580
30806WAT     H292661   1.677   8.872   8.698
30807WAT      O92662   6.452   6.006   7.346
30807WAT     H192663   6.403   6.022   7.432
30807WAT     H292664   6.391   5.958   7.283
30808WAT      O92665   7.912   0.304   4.874
30808WAT     H192666   7.893   0.353   4.959
30808WAT     H292667   7.838   0.320   4.809
30809WAT      O92668   0.284   7.317   3.941
30809WAT     H192669   0.274   7.219   3.958
30809WAT     H292670   0.194   7.355   3.916
30810WAT      O92671   4.147   9.202   3.312
30810WAT     H192672   4.177   9.293   3.282
30810WAT     H292673   4.170   9.190   3.409
30811WAT      O92674   9.015   4.281   5.368
30811WAT     H192675   9.040   4.281   5.465
30811WAT     H292676   9.077   4.341   5.318
30812WAT      O92677   7.081   9.361   7.654
30812WAT     H192678   7.062   9.267   7.625
30812WAT     H292679   7.029   9.424   7.596
30813WAT      O92680   9.308   0.724   0.757
30813WAT     H192681   9.222   0.685   0.724
30813WAT     H292682   9.350   0.778   0.685
30814WAT      O92683   4.780   2.110   1.077
30814WAT     H192684   4.814   2.200   1.105
30814WAT     H292685   4.785   2.047   1.154
30815WAT      O92686   7.077   7.377   5.562
30815WAT     H192687   7.065   7.305   5.630
30815WAT     H292688   7.063   7.340   5.471
30816WAT      O92689   1.703   8.258   4.813
30816WAT     H192690   1.763   8.258   4.733
30816WAT     H292691   1.618   8.210   4.791
30817WAT      O92692   7.819   1.544   6.440
30817WAT     H192693   7.846   1.637   6.415
30817WAT     H292694   7.798   1.540   6.538
30818WAT      O92695   0.334   1.472   6.806
30818WAT     H192696   0.242   1.440   6.785
30818WAT     H292697   0.376   1.411   6.874
30819WAT      O92698   1.906   0.309   6.257
30819WAT     H192699   1.980   0.242   6.257
30819WAT     H292700   1.828   0.271   6.207
30820WAT      O92701   1.606   0.492   0.617
30820WAT     H192702   1.699   0.485   0.581
30820WAT     H292703   1.541   0.458   0.549
30821WAT      O92704   0.766   0.747   5.792
30821WAT     H192705   0.721   0.803   5.723
30821WAT     H292706   0.862   0.775   5.801
30822WAT      O92707   0.785   7.721   5.033
30822WAT     H192708   0.845   7.674   4.967
30822WAT     H292709   0.839   7.788   5.084
30823WAT      O92710   2.319   7.641   1.462
30823WAT     H192711   2.251   7.570   1.446
30823WAT     H292712   2.377   7.650   1.382
30824WAT      O92713   4.343   1.386   2.057
30824WAT     H192714   4.312   1.408   1.964
30824WAT     H292715   4.303   1.451   2.122
30825WAT      O92716   6.367   3.450   0.548
30825WAT     H192717   6.396   3.357   0.568
30825WAT     H292718   6.345   3.498   0.633
30826WAT      O92719   0.782   5.940   8.280
30826WAT     H192720   0.767   6.018   8.219
30826WAT     H292721   0.876   5.909   8.272
30827WAT      O92722   6.643   6.235   6.355
30827WAT     H192723   6.647   6.319   6.301
30827WAT     H292724   6.709   6.169   6.319
30828WAT      O92725   9.394   1.718   8.118
30828WAT     H192726   9.347   1.796   8.078
30828WAT     H292727   9.345   1.634   8.094
30829WAT      O92728   3.610   0.364   7.075
30829WAT     H192729   3.530   0.421   7.093
30829WAT     H292730   3.677   0.416   7.023
30830WAT      O92731   4.995   2.616   8.458
30830WAT     H192732   5.026   2.689   8.520
30830WAT     H292733   5.073   2.576   8.411
30831WAT      O92734   8.870   8.204   5.607
30831WAT     H192735   8.866   8.175   5.702
30831WAT     H292736   8.833   8.131   5.549
30832WAT      O92737   6.049   8.001   9.542
30832WAT     H192738   6.038   8.091   9.585
30832WAT     H292739   6.025   7.929   9.608
30833WAT      O92740   4.204   3.060   0.203
30833WAT     H192741   4.292   3.034   0.243
30833WAT     H292742   4.220   3.115   0.121
30834WAT      O92743   3.934   3.074   7.252
30834WAT     H192744   3.855   3.019   7.277
30834WAT     H292745   3.913   3.171   7.267
30835WAT      O92746   9.652   7.623   8.147
30835WAT     H192747   9.726   7.658   8.089
30835WAT     H292748   9.572   7.682   8.140
30836WAT      O92749   6.634   0.101   9.461
30836WAT     H192750   6.659   0.191   9.497
30836WAT     H292751   6.554   0.067   9.511
30837WAT      O92752   3.589   1.096   0.847
30837WAT     H192753   3.597   1.077   0.750
30837WAT     H292754   3.653   1.038   0.898
30838WAT      O92755   6.966   3.258   0.795
30838WAT     H192756   6.923   3.222   0.878
30838WAT     H292757   6.978   3.357   0.803
30839WAT      O92758   0.572   7.238   6.510
30839WAT     H192759   0.560   7.175   6.433
30839WAT     H292760   0.565   7.187   6.596
30840WAT      O92761   5.207   2.824   4.713
30840WAT     H192762   5.298   2.808   4.751
30840WAT     H292763   5.143   2.847   4.787
30841WAT      O92764   7.005   4.715   9.840
30841WAT     H192765   7.070   4.773   9.792
30841WAT     H292766   7.016   4.727   9.939
30842WAT      O92767   1.978   8.136   2.651
30842WAT     H192768   1.923   8.084   2.717
30842WAT     H292769   1.937   8.226   2.638
30843WAT      O92770   3.647   2.741   0.924
30843WAT     H192771   3.612   2.672   0.986
30843WAT     H292772   3.710   2.699   0.859
30844WAT      O92773   6.193   1.236   0.130
30844WAT     H192774   6.251   1.178   0.187
30844WAT     H292775   6.222   1.331   0.138
30845WAT      O92776   0.921   0.846   0.405
30845WAT     H192777   0.893   0.776   0.339
30845WAT     H292778   1.003   0.816   0.453
30846WAT      O92779   3.294   6.701   8.106
30846WAT     H192780   3.265   6.643   8.182
30846WAT     H292781   3.335   6.784   8.141
30847WAT      O92782   3.096   9.083   1.499
30847WAT     H192783   3.152   9.111   1.421
30847WAT     H292784   3.144   9.104   1.584
30848WAT      O92785   9.027   6.718   0.842
30848WAT     H192786   9.112   6.679   0.806
30848WAT     H292787   9.007   6.678   0.931
30849WAT      O92788   1.022   0.295   4.208
30849WAT     H192789   0.946   0.315   4.270
30849WAT     H292790   1.035   0.196   4.203
30850WAT      O92791   8.409   9.615   2.420
30850WAT     H192792   8.458   9.654   2.342
30850WAT     H292793   8.392   9.518   2.404
30851WAT      O92794   6.129   6.805   7.952
30851WAT     H192795   6.211   6.855   7.924
30851WAT     H292796   6.051   6.837   7.900
30852WAT      O92797   1.803   0.472   9.818
30852WAT     H192798   1.774   0.548   9.877
30852WAT     H292799   1.901   0.456   9.829
30853WAT      O92800   6.822   5.201   4.317
30853WAT     H192801   6.831   5.301   4.318
30853WAT     H292802   6.864   5.164   4.235
30854WAT      O92803   7.177   7.634   1.807
30854WAT     H192804   7.188   7.569   1.732
30854WAT     H292805   7.229   7.602   1.887
30855WAT      O92806   8.205   6.540   2.598
30855WAT     H192807   8.162   6.552   2.687
30855WAT     H292808   8.138   6.554   2.525
30856WAT      O92809   0.606   7.123   2.714
30856WAT     H192810   0.532   7.189   2.699
30856WAT     H292811   0.671   7.128   2.638
30857WAT      O92812   3.337   8.759   3.052
30857WAT     H192813   3.431   8.792   3.042
30857WAT     H292814   3.282   8.792   2.976
30858WAT      O92815   1.189   6.537   2.664
30858WAT     H192816   1.250   6.572   2.593
30858WAT     H292817   1.243   6.504   2.741
30859WAT      O92818   8.601   0.307   0.688
30859WAT     H192819   8.597   0.223   0.635
30859WAT     H292820   8.552   0.380   0.640
30860WAT      O92821   7.566   9.496   1.715
30860WAT     H192822   7.571   9.540   1.805
30860WAT     H292823   7.568   9.397   1.726
30861WAT      O92824   3.783   2.336   7.085
30861WAT     H192825   3.742   2.381   7.165
30861WAT     H292826   3.833   2.404   7.031
30862WAT      O92827   1.966   5.929   5.516
30862WAT     H192828   2.029   5.919   5.439
30862WAT     H292829   1.904   5.851   5.519
30863WAT      O92830   7.351   6.547   8.345
30863WAT     H192831   7.258   6.515   8.365
30863WAT     H292832   7.351   6.647   8.339
30864WAT      O92833   5.219   9.033   2.316
30864WAT     H192834   5.266   9.046   2.403
30864WAT     H292835   5.165   9.114   2.294
30865WAT      O92836   5.454   0.417   6.367
30865WAT     H192837   5.498   0.368   6.291
30865WAT     H292838   5.364   0.378   6.384
30866WAT      O92839   5.389   3.595   0.439
30866WAT     H192840   5.387   3.503   0.477
30866WAT     H292841   5.296   3.626   0.419
30867WAT      O92842   5.466   1.659   5.274
30867WAT     H192843   5.521   1.741   5.254
30867WAT     H292844   5.374   1.686   5.301
30868WAT      O92845   8.020   2.100   5.967
30868WAT     H192846   7.973   2.097   5.879
30868WAT     H292847   8.076   2.017   5.977
30869WAT      O92848   8.641   1.093   9.881
30869WAT     H192849   8.737   1.109   9.859
30869WAT     H292850   8.616   1.146   9.962
30870WAT      O92851   0.445   2.262   9.554
30870WAT     H192852   0.415   2.176   9.514
30870WAT     H292853   0.508   2.309   9.492
30871WAT      O92854   0.038   1.122   6.736
30871WAT     H192855   0.137   1.109   6.728
30871WAT     H292856  -0.008   1.068   6.666
30872WAT      O92857   9.380   2.449   1.381
30872WAT     H192858   9.309   2.388   1.345
30872WAT     H292859   9.339   2.515   1.443
30873WAT      O92860   2.332   5.217   6.547
30873WAT     H192861   2.337   5.117   6.552
30873WAT     H292862   2.306   5.254   6.636
30874WAT      O92863   8.010   4.656   6.449
30874WAT     H192864   8.053   4.587   6.391
30874WAT     H292865   7.934   4.699   6.399
30875WAT      O92866   6.228   5.717   6.907
30875WAT     H192867   6.133   5.687   6.909
30875WAT     H292868   6.246   5.764   6.821
30876WAT      O92869   3.408   1.143   1.506
30876WAT     H192870   3.445   1.059   1.545
30876WAT     H292871   3.449   1.158   1.416
30877WAT      O92872   7.105   6.876   5.407
30877WAT     H192873   7.135   6.971   5.399
30877WAT     H292874   7.180   6.820   5.444
30878WAT      O92875   1.916   4.288   3.158
30878WAT     H192876   1.982   4.334   3.217
30878WAT     H292877   1.935   4.190   3.157
30879WAT      O92878   0.541   8.494   4.205
30879WAT     H192879   0.479   8.553   4.258
30879WAT     H292880   0.589   8.549   4.136
30880WAT      O92881   1.541   2.123   3.575
30880WAT     H192882   1.551   2.075   3.488
30880WAT     H292883   1.603   2.201   3.578
30881WAT      O92884   5.845   4.727   3.844
30881WAT     H192885   5.765   4.677   3.876
30881WAT     H292886   5.818   4.818   3.814
30882WAT      O92887   6.865   3.490   9.566
30882WAT     H192888   6.775   3.485   9.610
30882WAT     H292889   6.864   3.559   9.494
30883WAT      O92890   1.251   1.337   2.463
30883WAT     H192891   1.247   1.437   2.462
30883WAT     H292892   1.178   1.301   2.521
30884WAT      O92893   7.006   4.275   2.246
30884WAT     H192894   7.046   4.270   2.154
30884WAT     H292895   6.938   4.347   2.248
30885WAT      O92896   8.673   9.446   9.697
30885WAT     H192897   8.680   9.377   9.624
30885WAT     H292898   8.740   9.519   9.680
30886WAT      O92899   2.355   7.098   1.184
30886WAT     H192900   2.447   7.068   1.207
30886WAT     H292901   2.290   7.024   1.204
30887WAT      O92902   2.419   0.853   6.524
30887WAT     H192903   2.440   0.819   6.433
30887WAT     H292904   2.360   0.934   6.516
30888WAT      O92905   5.731   0.330   8.281
30888WAT     H192906   5.790   0.406   8.255
30888WAT     H292907   5.660   0.319   8.212
30889WAT      O92908   8.538   8.246   5.375
30889WAT     H192909   8.548   8.149   5.399
30889WAT     H292910   8.623   8.278   5.333
30890WAT      O92911   6.883   8.371   4.729
30890WAT     H192912   6.943   8.444   4.762
30890WAT     H292913   6.935   8.306   4.674
30891WAT      O92914   4.196   7.982   2.279
30891WAT     H192915   4.111   7.930   2.291
30891WAT     H292916   4.273   7.918   2.281
30892WAT      O92917   1.549   2.540   3.226
30892WAT     H192918   1.538   2.607   3.300
30892WAT     H292919   1.641   2.501   3.230
30893WAT      O92920   2.286   1.333   6.186
30893WAT     H192921   2.303   1.361   6.091
30893WAT     H292922   2.279   1.415   6.243
30894WAT      O92923   6.897   4.380   1.539
30894WAT     H192924   6.855   4.462   1.577
30894WAT     H292925   6.987   4.365   1.582
30895WAT      O92926   2.903   0.862   6.754
30895WAT     H192927   2.819   0.829   6.713
30895WAT     H292928   2.980   0.847   6.692
30896WAT      O92929   1.023   8.272   8.470
30896WAT     H192930   0.971   8.350   8.438
30896WAT     H292931   1.119   8.298   8.481
30897WAT      O92932   3.210   7.924   5.855
30897WAT     H192933   3.308   7.905   5.868
30897WAT     H292934   3.165   7.843   5.819
30898WAT      O92935   3.307   6.793   1.664
30898WAT     H192936   3.332   6.845   1.582
30898WAT     H292937   3.335   6.698   1.652
30899WAT      O92938   6.592   4.052   5.770
30899WAT     H192939   6.595   3.961   5.810
30899WAT     H292940   6.497   4.079   5.757
30900WAT      O92941   5.913   4.478   1.515
30900WAT     H192942   5.965   4.537   1.452
30900WAT     H292943   5.939   4.500   1.609
30901WAT      O92944   0.471   0.382   8.187
30901WAT     H192945   0.445   0.467   8.232
30901WAT     H292946   0.399   0.314   8.199
30902WAT      O92947   5.927   4.672   7.500
30902WAT     H192948   5.983   4.590   7.500
30902WAT     H292949   5.974   4.745   7.551
30903WAT      O92950   0.829   0.966   6.032
30903WAT     H192951   0.794   0.961   6.126
30903WAT     H292952   0.929   0.956   6.034
30904WAT      O92953   7.701   8.837   5.224
30904WAT     H192954   7.667   8.920   5.267
30904WAT     H292955   7.785   8.857   5.173
30905WAT      O92956   9.420   1.996   0.455
30905WAT     H192957   9.428   2.055   0.376
30905WAT     H292958   9.361   2.039   0.524
30906WAT      O92959   4.296   4.261   0.441
30906WAT     H192960   4.298   4.349   0.394
30906WAT     H292961   4.389   4.233   0.463
30907WAT      O92962   5.421   4.697   8.249
30907WAT     H192963   5.502   4.640   8.241
30907WAT     H292964   5.340   4.645   8.221
30908WAT      O92965   3.346   7.448   2.760
30908WAT     H192966   3.261   7.404   2.729
30908WAT     H292967   3.423   7.410   2.710
30909WAT      O92968   4.073   7.002   4.745
30909WAT     H192969   4.106   6.908   4.756
30909WAT     H292970   4.150   7.066   4.749
30910WAT      O92971   1.862   6.479   5.575
30910WAT     H192972   1.927   6.422   5.626
30910WAT     H292973   1.888   6.480   5.479
30911WAT      O92974   5.423   0.293   8.504
30911WAT     H192975   5.339   0.288   8.558
30911WAT     H292976   5.443   0.389   8.484
30912WAT      O92977   4.613   7.166   0.604
30912WAT     H192978   4.688   7.167   0.670
30912WAT     H292979   4.638   7.223   0.525
30913WAT      O92980   2.999   8.045   6.152
30913WAT     H192981   3.092   8.080   6.152
30913WAT     H292982   2.965   8.040   6.058
30914WAT      O92983   9.229   0.271   9.677
30914WAT     H192984   9.281   0.273   9.762
30914WAT     H292985   9.169   0.191   9.677
30915WAT      O92986   6.998   1.705   5.559
30915WAT     H192987   7.070   1.640   5.584
30915WAT     H292988   6.911   1.657   5.552
30916WAT      O92989   5.191   1.677   2.179
30916WAT     H192990   5.117   1.674   2.111
30916WAT     H292991   5.209   1.772   2.204
30917WAT      O92992   7.124   5.390   9.749
30917WAT     H192993   7.145   5.432   9.837
30917WAT     H292994   7.208   5.376   9.697
30918WAT      O92995   7.303   8.698   7.732
30918WAT     H192996   7.385   8.732   7.687
30918WAT     H292997   7.329   8.655   7.819
30919WAT      O92998   6.389   6.864   3.248
30919WAT     H192999   6.426   6.777   3.216
30919WAT     H293000   6.364   6.920   3.170
30920WAT      O93001   4.212   5.670   1.243
30920WAT     H193002   4.228   5.737   1.171
30920WAT     H293003   4.183   5.717   1.327
30921WAT      O93004   3.815   6.636   1.298
30921WAT     H193005   3.781   6.712   1.243
30921WAT     H293006   3.902   6.662   1.340
30922WAT      O93007   8.987   2.413   7.630
30922WAT     H193008   8.906   2.436   7.684
30922WAT     H293009   8.982   2.317   7.601
30923WAT      O93010   7.003   0.098   7.865
30923WAT     H193011   6.996   0.191   7.901
30923WAT     H293012   6.948   0.091   7.782
30924WAT      O93013   2.768   5.333   5.883
30924WAT     H193014   2.812   5.247   5.909
30924WAT     H293015   2.756   5.390   5.964
30925WAT      O93016   1.428   4.029   0.802
30925WAT     H193017   1.356   4.097   0.791
30925WAT     H293018   1.433   4.001   0.898
30926WAT      O93019   0.759   2.702   2.004
30926WAT     H193020   0.756   2.775   1.935
30926WAT     H293021   0.677   2.706   2.061
30927WAT      O93022   1.915   2.501   6.946
30927WAT     H193023   1.943   2.428   7.008
30927WAT     H293024   1.851   2.562   6.992
30928WAT      O93025   0.441   8.842   4.940
30928WAT     H193026   0.485   8.811   5.024
30928WAT     H293027   0.431   8.765   4.876
30929WAT      O93028   0.769   7.633   6.671
30929WAT     H193029   0.821   7.697   6.728
30929WAT     H293030   0.720   7.684   6.600
30930WAT      O93031   4.581   0.185   0.096
30930WAT     H193032   4.647   0.232   0.037
30930WAT     H293033   4.489   0.199   0.060
30931WAT      O93034   1.745   7.706   7.228
30931WAT     H193035   1.684   7.782   7.251
30931WAT     H293036   1.697   7.619   7.243
30932WAT      O93037   1.884   0.560   5.952
30932WAT     H193038   1.893   0.598   6.044
30932WAT     H293039   1.969   0.513   5.927
30933WAT      O93040   1.743   0.921   9.026
30933WAT     H193041   1.712   0.897   9.118
30933WAT     H293042   1.798   1.005   9.031
30934WAT      O93043   8.215   5.619   1.166
30934WAT     H193044   8.218   5.528   1.125
30934WAT     H293045   8.298   5.669   1.142
30935WAT      O93046   6.776   7.029   8.614
30935WAT     H193047   6.835   7.106   8.588
30935WAT     H293048   6.810   6.945   8.573
30936WAT      O93049   1.124   4.229   8.771
30936WAT     H193050   1.136   4.194   8.864
30936WAT     H293051   1.168   4.318   8.764
30937WAT      O93052   1.707   3.489   1.333
30937WAT     H193053   1.620   3.537   1.325
30937WAT     H293054   1.704   3.406   1.277
30938WAT      O93055   9.345   8.638   0.419
30938WAT     H193056   9.417   8.613   0.354
30938WAT     H293057   9.323   8.559   0.477
30939WAT      O93058   2.579   0.587   6.178
30939WAT     H193059   2.512   0.528   6.132
30939WAT     H293060   2.665   0.585   6.128
30940WAT      O93061   1.955   9.252   4.873
30940WAT     H193062   2.051   9.281   4.877
30940WAT     H293063   1.920   9.267   4.780
30941WAT      O93064   0.261   7.832   1.200
30941WAT     H193065   0.234   7.898   1.271
30941WAT     H293066   0.225   7.862   1.112
30942WAT      O93067   1.148   2.276   9.767
30942WAT     H193068   1.076   2.207   9.761
30942WAT     H293069   1.108   2.367   9.759
30943WAT      O93070   4.221   7.581   4.250
30943WAT     H193071   4.211   7.568   4.348
30943WAT     H293072   4.293   7.649   4.233
30944WAT      O93073   0.776   2.123   9.534
30944WAT     H193074   0.733   2.057   9.473
30944WAT     H293075   0.739   2.215   9.515
30945WAT      O93076   9.602   2.423   3.577
30945WAT     H193077   9.546   2.346   3.607
30945WAT     H293078   9.563   2.463   3.495
30946WAT      O93079   5.811   7.018   3.310
30946WAT     H193080   5.826   7.089   3.378
30946WAT     H293081   5.721   7.031   3.268
30947WAT      O93082   2.134   6.197   2.541
30947WAT     H193083   2.123   6.231   2.448
30947WAT     H293084   2.097   6.104   2.548
30948WAT      O93085   8.878   4.415   5.645
30948WAT     H193086   8.889   4.514   5.635
30948WAT     H293087   8.966   4.375   5.671
30949WAT      O93088   6.057   6.423   7.476
30949WAT     H193089   6.123   6.443   7.403
30949WAT     H293090   6.027   6.328   7.468
30950WAT      O93091   0.672   5.080   0.599
30950WAT     H193092   0.742   5.130   0.649
30950WAT     H293093   0.679   4.982   0.622
30951WAT      O93094   7.517   5.108   9.400
30951WAT     H193095   7.468   5.163   9.467
30951WAT     H293096   7.462   5.098   9.317
30952WAT      O93097   6.865   7.399   0.828
30952WAT     H193098   6.841   7.495   0.820
30952WAT     H293099   6.951   7.381   0.780
30953WAT      O93100   1.841   9.098   9.013
30953WAT     H193101   1.928   9.102   9.063
30953WAT     H293102   1.777   9.164   9.052
30954WAT      O93103   9.596   7.029   9.701
30954WAT     H193104   9.565   7.103   9.761
30954WAT     H293105   9.628   6.952   9.756
30955WAT      O93106   6.987   2.456   6.855
30955WAT     H193107   6.906   2.502   6.892
30955WAT     H293108   7.049   2.525   6.815
30956WAT      O93109   4.177   3.480   5.718
30956WAT     H193110   4.230   3.544   5.773
30956WAT     H293111   4.080   3.495   5.733
30957WAT      O93112   5.195   2.121   9.704
30957WAT     H193113   5.245   2.107   9.618
30957WAT     H293114   5.181   2.033   9.749
30958WAT      O93115   8.684   8.287   5.992
30958WAT     H193116   8.668   8.262   6.087
30958WAT     H293117   8.597   8.296   5.944
30959WAT      O93118   6.051   8.766   6.655
30959WAT     H193119   6.144   8.789   6.681
30959WAT     H293120   6.053   8.696   6.583
30960WAT      O93121   8.583   7.865   2.424
30960WAT     H193122   8.632   7.893   2.507
30960WAT     H293123   8.485   7.862   2.443
30961WAT      O93124   5.297   8.050   5.803
30961WAT     H193125   5.247   7.971   5.768
30961WAT     H293126   5.368   8.020   5.866
30962WAT      O93127   3.743   0.904   3.623
30962WAT     H193128   3.843   0.896   3.614
30962WAT     H293129   3.701   0.816   3.604
30963WAT      O93130   4.276   1.760   3.392
30963WAT     H193131   4.359   1.708   3.370
30963WAT     H293132   4.291   1.811   3.477
30964WAT      O93133   2.924   0.193   4.470
30964WAT     H193134   2.949   0.250   4.548
30964WAT     H293135   2.884   0.107   4.503
30965WAT      O93136   8.741   8.034   3.574
30965WAT     H193137   8.665   8.020   3.510
30965WAT     H293138   8.757   8.132   3.585
30966WAT      O93139   2.619   8.299   4.685
30966WAT     H193140   2.660   8.342   4.766
30966WAT     H293141   2.545   8.357   4.651
30967WAT      O93142   7.781   7.917   7.733
30967WAT     H193143   7.681   7.911   7.738
30967WAT     H293144   7.821   7.836   7.775
30968WAT      O93145   1.926   9.591   3.474
30968WAT     H193146   1.887   9.654   3.542
30968WAT     H293147   1.864   9.584   3.396
30969WAT      O93148   2.705   5.365   8.576
30969WAT     H193149   2.657   5.407   8.499
30969WAT     H293150   2.803   5.365   8.557
30970WAT      O93151   2.258   6.132   5.765
30970WAT     H193152   2.268   6.145   5.864
30970WAT     H293153   2.231   6.037   5.747
30971WAT      O93154   2.054   2.166   5.155
30971WAT     H193155   1.979   2.218   5.195
30971WAT     H293156   2.061   2.186   5.057
30972WAT      O93157   7.269   6.317   9.666
30972WAT     H193158   7.228   6.247   9.725
30972WAT     H293159   7.281   6.280   9.574
30973WAT      O93160   4.564   2.681   5.401
30973WAT     H193161   4.563   2.763   5.345
30973WAT     H293162   4.621   2.697   5.482
30974WAT      O93163   0.123   0.083   8.637
30974WAT     H193164   0.191   0.017   8.668
30974WAT     H293165   0.149   0.118   8.547
30975WAT      O93166   8.783   1.842   1.381
30975WAT     H193167   8.740   1.931   1.373
30975WAT     H293168   8.755   1.798   1.466
30976WAT      O93169   7.736   4.775   4.176
30976WAT     H193170   7.760   4.840   4.248
30976WAT     H293171   7.640   4.750   4.184
30977WAT      O93172   7.214   2.733   1.450
30977WAT     H193173   7.146   2.661   1.462
30977WAT     H293174   7.223   2.784   1.535
30978WAT      O93175   9.347   5.773   3.414
30978WAT     H193176   9.429   5.784   3.470
30978WAT     H293177   9.373   5.773   3.317
30979WAT      O93178   9.201   4.412   8.729
30979WAT     H193179   9.126   4.361   8.688
30979WAT     H293180   9.286   4.360   8.721
30980WAT      O93181   5.361   4.620   4.257
30980WAT     H193182   5.393   4.659   4.171
30980WAT     H293183   5.401   4.529   4.268
30981WAT      O93184   4.460   5.041   9.362
30981WAT     H193185   4.400   4.963   9.344
30981WAT     H293186   4.484   5.042   9.459
30982WAT      O93187   8.476   4.994   4.335
30982WAT     H193188   8.457   4.959   4.244
30982WAT     H293189   8.538   5.072   4.329
30983WAT      O93190   6.057   2.364   9.649
30983WAT     H193191   6.156   2.380   9.647
30983WAT     H293192   6.032   2.324   9.737
30984WAT      O93193   7.339   8.772   0.842
30984WAT     H193194   7.264   8.836   0.826
30984WAT     H293195   7.385   8.752   0.755
30985WAT      O93196   2.774   9.599   6.322
30985WAT     H193197   2.742   9.537   6.250
30985WAT     H293198   2.696   9.635   6.373
30986WAT      O93199   5.109   6.071   2.394
30986WAT     H193200   5.021   6.119   2.392
30986WAT     H293201   5.163   6.099   2.314
30987WAT      O93202   6.602   2.219   5.920
30987WAT     H193203   6.623   2.244   6.015
30987WAT     H293204   6.533   2.147   5.919
30988WAT      O93205   8.557   6.259   0.522
30988WAT     H193206   8.541   6.319   0.444
30988WAT     H293207   8.656   6.246   0.534
30989WAT      O93208   5.596   3.790   7.334
30989WAT     H193209   5.643   3.877   7.319
30989WAT     H293210   5.659   3.714   7.315
30990WAT      O93211   3.573   1.918   9.710
30990WAT     H193212   3.490   1.870   9.736
30990WAT     H293213   3.549   1.996   9.651
30991WAT      O93214   5.298   2.841   4.178
30991WAT     H193215   5.239   2.783   4.122
30991WAT     H293216   5.288   2.936   4.149
30992WAT      O93217   0.983   1.688   8.171
30992WAT     H193218   1.029   1.735   8.096
30992WAT     H293219   0.951   1.598   8.139
30993WAT      O93220   3.818   4.972   7.764
30993WAT     H193221   3.722   4.973   7.789
30993WAT     H293222   3.843   4.880   7.732
30994WAT      O93223   0.841   3.820   3.744
30994WAT     H193224   0.836   3.720   3.743
30994WAT     H293225   0.867   3.851   3.836
30995WAT      O93226   7.014   0.151   7.317
30995WAT     H193227   6.940   0.126   7.254
30995WAT     H293228   6.992   0.119   7.409
30996WAT      O93229   3.268   5.666   0.646
30996WAT     H193230   3.220   5.634   0.728
30996WAT     H293231   3.362   5.691   0.670
30997WAT      O93232   4.563   6.663   4.773
30997WAT     H193233   4.646   6.630   4.818
30997WAT     H293234   4.499   6.697   4.842
30998WAT      O93235   4.146   3.552   1.754
30998WAT     H193236   4.085   3.623   1.788
30998WAT     H293237   4.232   3.555   1.804
30999WAT      O93238   0.484   3.559   1.323
30999WAT     H193239   0.404   3.520   1.368
30999WAT     H293240   0.500   3.652   1.357
31000WAT      O93241   4.775   5.989   3.675
31000WAT     H193242   4.755   5.911   3.615
31000WAT     H293243   4.866   6.025   3.653
31001WAT      O93244   5.545   7.463   6.098
31001WAT     H193245   5.523   7.378   6.146
31001WAT     H293246   5.620   7.448   6.034
31002WAT      O93247   6.214   4.852   7.881
31002WAT     H193248   6.180   4.897   7.964
31002WAT     H293249   6.242   4.922   7.815
31003WAT      O93250   1.348   1.200   1.258
31003WAT     H193251   1.325   1.268   1.327
31003WAT     H293252   1.277   1.201   1.187
31004WAT      O93253   1.202   4.716   2.082
31004WAT     H193254   1.192   4.775   2.002
31004WAT     H293255   1.129   4.736   2.148
31005WAT      O93256   5.261   8.117   3.077
31005WAT     H193257   5.318   8.197   3.097
31005WAT     H293258   5.263   8.099   2.978
31006WAT      O93259   5.680   8.421   8.431
31006WAT     H193260   5.682   8.467   8.342
31006WAT     H293261   5.619   8.342   8.427
31007WAT      O93262   3.648   3.989   1.929
31007WAT     H193263   3.615   3.895   1.939
31007WAT     H293264   3.665   4.028   2.019
31008WAT      O93265   7.803   6.664   8.433
31008WAT     H193266   7.761   6.706   8.513
31008WAT     H293267   7.883   6.717   8.405
31009WAT      O93268   1.784   2.407   3.288
31009WAT     H193269   1.856   2.442   3.228
31009WAT     H293270   1.801   2.310   3.308
31010WAT      O93271   2.142   7.528   7.811
31010WAT     H193272   2.140   7.628   7.799
31010WAT     H293273   2.152   7.506   7.908
31011WAT      O93274   8.760   6.900   9.457
31011WAT     H193275   8.805   6.851   9.532
31011WAT     H293276   8.731   6.990   9.488
31012WAT      O93277   5.236   1.818   9.073
31012WAT     H193278   5.217   1.720   9.079
31012WAT     H293279   5.226   1.848   8.978
31013WAT      O93280   9.407   4.851   4.722
31013WAT     H193281   9.371   4.917   4.656
31013WAT     H293282   9.498   4.879   4.752
31014WAT      O93283   1.563   0.526   9.046
31014WAT     H193284   1.614   0.518   9.131
31014WAT     H293285   1.619   0.572   8.977
31015WAT      O93286   7.526   4.176   3.507
31015WAT     H193287   7.475   4.119   3.573
31015WAT     H293288   7.599   4.225   3.555
31016WAT      O93289   5.691   1.571   6.212
31016WAT     H193290   5.619   1.581   6.144
31016WAT     H293291   5.768   1.521   6.172
31017WAT      O93292   7.225   8.272   5.080
31017WAT     H193293   7.172   8.190   5.102
31017WAT     H293294   7.167   8.353   5.091
31018WAT      O93295   8.089   4.167   6.010
31018WAT     H193296   8.130   4.167   6.101
31018WAT     H293297   8.061   4.074   5.986
31019WAT      O93298   0.277   0.990   2.452
31019WAT     H193299   0.212   1.031   2.517
31019WAT     H293300   0.337   1.061   2.416
31020WAT      O93301   4.848   2.323   4.036
31020WAT     H193302   4.913   2.263   4.082
31020WAT     H293303   4.783   2.268   3.984
31021WAT      O93304   5.461   5.087   8.870
31021WAT     H193305   5.524   5.148   8.918
31021WAT     H293306   5.376   5.080   8.922
31022WAT      O93307   8.275   9.243   4.204
31022WAT     H193308   8.360   9.257   4.256
31022WAT     H293309   8.248   9.147   4.210
31023WAT      O93310   6.787   5.172   1.401
31023WAT     H193311   6.788   5.267   1.368
31023WAT     H293312   6.798   5.172   1.500
31024WAT      O93313   8.764   7.481   3.786
31024WAT     H193314   8.774   7.397   3.734
31024WAT     H293315   8.710   7.463   3.868
31025WAT      O93316   0.951   6.264   1.757
31025WAT     H193317   0.948   6.303   1.849
31025WAT     H293318   0.877   6.198   1.745
31026WAT      O93319   2.632   2.604   6.292
31026WAT     H193320   2.619   2.526   6.231
31026WAT     H293321   2.624   2.689   6.240
31027WAT      O93322   8.562   7.100   3.690
31027WAT     H193323   8.655   7.137   3.690
31027WAT     H293324   8.564   7.004   3.663
31028WAT      O93325   0.225   3.757   2.253
31028WAT     H193326   0.266   3.829   2.309
31028WAT     H293327   0.297   3.707   2.204
31029WAT      O93328   8.292   7.365   3.393
31029WAT     H193329   8.326   7.276   3.425
31029WAT     H293330   8.290   7.366   3.293
31030WAT      O93331   3.898   5.763   7.418
31030WAT     H193332   3.883   5.674   7.461
31030WAT     H293333   3.835   5.830   7.457
31031WAT      O93334   7.174   5.637   6.153
31031WAT     H193335   7.245   5.670   6.216
31031WAT     H293336   7.135   5.715   6.104
31032WAT      O93337   6.217   2.886   9.111
31032WAT     H193338   6.289   2.941   9.153
31032WAT     H293339   6.245   2.858   9.020
31033WAT      O93340   5.721   6.065   5.821
31033WAT     H193341   5.798   6.004   5.841
31033WAT     H293342   5.751   6.135   5.757
31034WAT      O93343   6.749   0.010   2.068
31034WAT     H193344   6.769   0.079   2.138
31034WAT     H293345   6.693   0.051   1.996
31035WAT      O93346   9.495   9.069   7.728
31035WAT     H193347   9.546   9.056   7.813
31035WAT     H293348   9.397   9.065   7.747
31036WAT      O93349   6.367   7.961   6.030
31036WAT     H193350   6.328   7.911   6.107
31036WAT     H293351   6.444   7.908   5.993
31037WAT      O93352   7.228   0.239   3.613
31037WAT     H193353   7.214   0.306   3.686
31037WAT     H293354   7.172   0.158   3.631
31038WAT      O93355   9.343   3.757   2.181
31038WAT     H193356   9.312   3.662   2.174
31038WAT     H293357   9.443   3.760   2.178
31039WAT      O93358   2.044   2.267   0.608
31039WAT     H193359   2.081   2.315   0.528
31039WAT     H293360   2.111   2.268   0.682
31040WAT      O93361   5.987   9.834   4.316
31040WAT     H193362   5.919   9.877   4.257
31040WAT     H293363   5.966   9.737   4.325
31041WAT      O93364   3.820   3.341   7.017
31041WAT     H193365   3.919   3.353   7.030
31041WAT     H293366   3.790   3.392   6.937
31042WAT      O93367   3.079   5.675   9.015
31042WAT     H193368   3.080   5.578   8.989
31042WAT     H293369   3.047   5.684   9.109
31043WAT      O93370   4.354   1.654   4.125
31043WAT     H193371   4.280   1.714   4.093
31043WAT     H293372   4.319   1.594   4.196
31044WAT      O93373   0.749   3.282   1.183
31044WAT     H193374   0.715   3.206   1.128
31044WAT     H293375   0.672   3.342   1.208
31045WAT      O93376   4.856   8.662   2.270
31045WAT     H193377   4.939   8.715   2.251
31045WAT     H293378   4.813   8.635   2.183
31046WAT      O93379   0.932   6.760   4.799
31046WAT     H193380   0.984   6.684   4.760
31046WAT     H293381   0.873   6.800   4.729
31047WAT      O93382   2.748   1.296   1.713
31047WAT     H193383   2.818   1.342   1.658
31047WAT     H293384   2.788   1.270   1.801
31048WAT      O93385   6.750   0.200   0.166
31048WAT     H193386   6.835   0.152   0.148
31048WAT     H293387   6.682   0.136   0.202
31049WAT      O93388   6.533   0.310   3.758
31049WAT     H193389   6.535   0.395   3.707
31049WAT     H293390   6.590   0.242   3.712
31050WAT      O93391   1.887   0.956   2.208
31050WAT     H193392   1.943   0.937   2.128
31050WAT     H293393   1.885   1.055   2.225
31051WAT      O93394   3.321   7.749   5.401
31051WAT     H193395   3.390   7.820   5.411
31051WAT     H293396   3.365   7.659   5.404
31052WAT      O93397   1.305   0.015   8.580
31052WAT     H193398   1.265  -0.014   8.494
31052WAT     H293399   1.239  -0.001   8.654
31053WAT      O93400   3.554   3.701   0.457
31053WAT     H193401   3.569   3.639   0.379
31053WAT     H293402   3.591   3.660   0.540
31054WAT      O93403   7.878   9.700   4.631
31054WAT     H193404   7.898   9.796   4.615
31054WAT     H293405   7.856   9.655   4.544
31055WAT      O93406   3.444   5.054   6.896
31055WAT     H193407   3.504   5.028   6.972
31055WAT     H293408   3.358   5.090   6.933
31056WAT      O93409   3.315   3.986   8.300
31056WAT     H193410   3.403   3.941   8.289
31056WAT     H293411   3.242   3.917   8.298
31057WAT      O93412   9.313   0.764   2.916
31057WAT     H193413   9.372   0.684   2.909
31057WAT     H293414   9.237   0.755   2.851
31058WAT      O93415   7.800   1.676   7.178
31058WAT     H193416   7.781   1.585   7.143
31058WAT     H293417   7.788   1.677   7.277
31059WAT      O93418   3.933   3.118   1.858
31059WAT     H193419   4.001   3.165   1.914
31059WAT     H293420   3.907   3.176   1.781
31060WAT      O93421   9.004   7.553   1.044
31060WAT     H193422   9.006   7.611   0.962
31060WAT     H293423   8.938   7.480   1.032
31061WAT      O93424   2.954   8.066   4.817
31061WAT     H193425   3.009   8.021   4.887
31061WAT     H293426   2.860   8.074   4.849
31062WAT      O93427   4.053   9.131   7.732
31062WAT     H193428   4.037   9.051   7.674
31062WAT     H293429   3.988   9.203   7.708
31063WAT      O93430   9.639   4.925   7.488
31063WAT     H193431   9.670   4.846   7.541
31063WAT     H293432   9.706   4.943   7.416
31064WAT      O93433   5.757   0.222   6.061
31064WAT     H193434   5.823   0.294   6.085
31064WAT     H293435   5.681   0.224   6.126
31065WAT      O93436   9.399   5.516   7.559
31065WAT     H193437   9.488   5.473   7.577
31065WAT     H293438   9.398   5.608   7.598
31066WAT      O93439   6.290   1.786   9.275
31066WAT     H193440   6.380   1.812   9.310
31066WAT     H293441   6.287   1.687   9.260
31067WAT      O93442   3.840   0.568   8.954
31067WAT     H193443   3.768   0.634   8.978
31067WAT     H293444   3.904   0.560   9.030
31068WAT      O93445   1.223   8.843   2.218
31068WAT     H193446   1.270   8.760   2.186
31068WAT     H293447   1.278   8.923   2.194
31069WAT      O93448   2.283   6.639   1.291
31069WAT     H193449   2.297   6.663   1.195
31069WAT     H293450   2.351   6.570   1.318
31070WAT      O93451   6.166   6.769   4.163
31070WAT     H193452   6.170   6.767   4.063
31070WAT     H293453   6.070   6.762   4.193
31071WAT      O93454   2.677   1.735   1.303
31071WAT     H193455   2.682   1.645   1.261
31071WAT     H293456   2.688   1.727   1.402
31072WAT      O93457   8.041   2.197   2.765
31072WAT     H193458   8.087   2.262   2.826
31072WAT     H293459   7.949   2.180   2.799
31073WAT      O93460   9.533   4.675   8.189
31073WAT     H193461   9.498   4.698   8.279
31073WAT     H293462   9.621   4.721   8.175
31074WAT      O93463   1.014   4.792   0.831
31074WAT     H193464   1.050   4.880   0.864
31074WAT     H293465   1.078   4.753   0.766
31075WAT      O93466   2.267   4.806   7.964
31075WAT     H193467   2.192   4.765   8.017
31075WAT     H293468   2.229   4.855   7.886
31076WAT      O93469   4.312   6.775   8.265
31076WAT     H193470   4.346   6.858   8.308
31076WAT     H293471   4.236   6.738   8.319
31077WAT      O93472   6.738   1.221   9.090
31077WAT     H193473   6.781   1.208   9.179
31077WAT     H293474   6.695   1.311   9.087
31078WAT      O93475   9.470   5.374   4.661
31078WAT     H193476   9.461   5.457   4.606
31078WAT     H293477   9.382   5.327   4.666
31079WAT      O93478   5.863   0.591   6.313
31079WAT     H193479   5.836   0.495   6.316
31079WAT     H293480   5.802   0.641   6.252
31080WAT      O93481   9.677   6.194   7.772
31080WAT     H193482   9.731   6.255   7.829
31080WAT     H293483   9.719   6.187   7.682
31081WAT      O93484   4.280   3.236   5.818
31081WAT     H193485   4.239   3.319   5.780
31081WAT     H293486   4.380   3.241   5.810
31082WAT      O93487   4.049   1.583   3.201
31082WAT     H193488   4.076   1.559   3.295
31082WAT     H293489   4.008   1.674   3.201
31083WAT      O93490   2.487   9.801   0.563
31083WAT     H193491   2.409   9.756   0.519
31083WAT     H293492   2.565   9.801   0.500
31084WAT      O93493   4.452   1.243   8.082
31084WAT     H193494   4.409   1.331   8.104
31084WAT     H293495   4.547   1.244   8.113
31085WAT      O93496   4.586   6.106   0.671
31085WAT     H193497   4.517   6.116   0.599
31085WAT     H293498   4.566   6.023   0.724
31086WAT      O93499   6.937   9.007   6.224
31086WAT     H193500   6.972   8.917   6.250
31086WAT     H293501   6.994   9.046   6.152
31087WAT      O93502   0.406   4.175   7.498
31087WAT     H193503   0.433   4.153   7.592
31087WAT     H293504   0.392   4.090   7.447
31088WAT      O93505   7.808   0.379   2.961
31088WAT     H193506   7.840   0.474   2.961
31088WAT     H293507   7.806   0.344   2.868
31089WAT      O93508   5.011   2.627   0.322
31089WAT     H193509   4.932   2.578   0.359
31089WAT     H293510   4.980   2.697   0.258
31090WAT      O93511   6.098   1.853   6.181
31090WAT     H193512   6.133   1.933   6.131
31090WAT     H293513   6.174   1.807   6.227
31091WAT      O93514   4.728   3.731   5.498
31091WAT     H193515   4.813   3.684   5.520
31091WAT     H293516   4.746   3.805   5.433
31092WAT      O93517   9.335   7.467   2.987
31092WAT     H193518   9.267   7.502   3.052
31092WAT     H293519   9.352   7.371   3.005
31093WAT      O93520   2.522   0.032   3.541
31093WAT     H193521   2.561  -0.048   3.588
31093WAT     H293522   2.531   0.019   3.442
31094WAT      O93523   0.821   0.439   5.495
31094WAT     H193524   0.727   0.462   5.473
31094WAT     H293525   0.830   0.426   5.594
31095WAT      O93526   8.241   7.517   5.069
31095WAT     H193527   8.146   7.510   5.097
31095WAT     H293528   8.265   7.440   5.010
31096WAT      O93529   2.938   9.306   0.416
31096WAT     H193530   2.946   9.383   0.353
31096WAT     H293531   3.026   9.292   0.461
31097WAT      O93532   2.843   0.743   9.429
31097WAT     H193533   2.876   0.809   9.362
31097WAT     H293534   2.901   0.662   9.426
31098WAT      O93535   0.056   3.297   9.385
31098WAT     H193536   0.093   3.315   9.476
31098WAT     H293537  -0.044   3.302   9.388
31099WAT      O93538   3.377   4.321   0.360
31099WAT     H193539   3.342   4.342   0.269
31099WAT     H293540   3.404   4.407   0.405
31100WAT      O93541   2.453   7.859   8.186
31100WAT     H193542   2.508   7.941   8.204
31100WAT     H293543   2.373   7.885   8.132
31101WAT      O93544   6.236   0.163   6.742
31101WAT     H193545   6.241   0.063   6.730
31101WAT     H293546   6.146   0.195   6.711
31102WAT      O93547   4.544   4.830   1.943
31102WAT     H193548   4.633   4.790   1.962
31102WAT     H293549   4.481   4.810   2.019
31103WAT      O93550   9.732   5.351   2.870
31103WAT     H193551   9.726   5.290   2.949
31103WAT     H293552   9.658   5.331   2.806
31104WAT      O93553   1.944   1.731   4.854
31104WAT     H193554   2.009   1.771   4.790
31104WAT     H293555   1.876   1.677   4.804
31105WAT      O93556   9.145   7.467   1.947
31105WAT     H193557   9.213   7.479   2.019
31105WAT     H293558   9.096   7.381   1.963
31106WAT      O93559   3.794   3.321   7.276
31106WAT     H193560   3.697   3.310   7.297
31106WAT     H293561   3.806   3.342   7.179
31107WAT      O93562   1.165   8.393   2.835
31107WAT     H193563   1.169   8.311   2.778
31107WAT     H293564   1.219   8.378   2.918
31108WAT      O93565   2.328   3.212   0.554
31108WAT     H193566   2.245   3.169   0.519
31108WAT     H293567   2.313   3.310   0.565
31109WAT      O93568   5.648   0.245   3.019
31109WAT     H193569   5.745   0.268   3.014
31109WAT     H293570   5.605   0.299   3.092
31110WAT      O93571   6.019   4.750   2.000
31110WAT     H193572   6.086   4.797   2.056
31110WAT     H293573   5.930   4.750   2.046
31111WAT      O93574   6.129   6.213   1.006
31111WAT     H193575   6.146   6.263   0.921
31111WAT     H293576   6.162   6.119   0.996
31112WAT      O93577   7.365   0.491   1.836
31112WAT     H193578   7.380   0.468   1.740
31112WAT     H293579   7.267   0.496   1.855
31113WAT      O93580   7.342   8.805   9.069
31113WAT     H193581   7.256   8.822   9.020
31113WAT     H293582   7.341   8.712   9.106
31114WAT      O93583   7.517   1.563   6.859
31114WAT     H193584   7.591   1.562   6.792
31114WAT     H293585   7.434   1.599   6.817
31115WAT      O93586   7.112   8.624   0.337
31115WAT     H193587   7.079   8.547   0.391
31115WAT     H293588   7.036   8.663   0.284
31116WAT      O93589   6.327   6.549   9.518
31116WAT     H193590   6.333   6.649   9.520
31116WAT     H293591   6.304   6.519   9.426
31117WAT      O93592   0.833   7.963   0.281
31117WAT     H193593   0.916   7.937   0.332
31117WAT     H293594   0.798   7.882   0.233
31118WAT      O93595   2.003   3.970   6.981
31118WAT     H193596   1.979   3.878   6.953
31118WAT     H293597   1.919   4.024   6.992
31119WAT      O93598   6.124   3.895   8.430
31119WAT     H193599   6.128   3.994   8.414
31119WAT     H293600   6.028   3.867   8.437
31120WAT      O93601   4.698   5.395   8.388
31120WAT     H193602   4.632   5.440   8.329
31120WAT     H293603   4.652   5.327   8.445
31121WAT      O93604   9.243   1.995   9.278
31121WAT     H193605   9.276   1.960   9.190
31121WAT     H293606   9.320   2.031   9.330
31122WAT      O93607   4.673   4.753   9.038
31122WAT     H193608   4.646   4.796   8.952
31122WAT     H293609   4.592   4.728   9.091
31123WAT      O93610   5.010   2.174   0.403
31123WAT     H193611   4.943   2.189   0.330
31123WAT     H293612   5.079   2.108   0.372
31124WAT      O93613   7.166   0.079   4.387
31124WAT     H193614   7.208   0.126   4.465
31124WAT     H293615   7.199  -0.016   4.384
31125WAT      O93616   8.203   0.221   5.158
31125WAT     H193617   8.117   0.196   5.202
31125WAT     H293618   8.240   0.142   5.109
31126WAT      O93619   8.680   3.676   4.131
31126WAT     H193620   8.609   3.713   4.071
31126WAT     H293621   8.764   3.729   4.120
31127WAT      O93622   7.413   6.511   9.806
31127WAT     H193623   7.374   6.528   9.897
31127WAT     H293624   7.351   6.453   9.754
31128WAT      O93625   6.122   3.152   4.554
31128WAT     H193626   6.085   3.146   4.647
31128WAT     H293627   6.221   3.166   4.558
31129WAT      O93628   3.658   6.853   8.996
31129WAT     H193629   3.685   6.873   8.902
31129WAT     H293630   3.739   6.834   9.051
31130WAT      O93631   5.283   0.311   5.263
31130WAT     H193632   5.233   0.263   5.191
31130WAT     H293633   5.235   0.395   5.288
31131WAT      O93634   0.655   1.307   4.279
31131WAT     H193635   0.735   1.255   4.312
31131WAT     H293636   0.633   1.277   4.186
31132WAT      O93637   6.984   6.971   7.891
31132WAT     H193638   7.041   6.890   7.903
31132WAT     H293639   7.014   7.042   7.956
31133WAT      O93640   6.643   3.221   4.111
31133WAT     H193641   6.662   3.249   4.205
31133WAT     H293642   6.597   3.296   4.063
31134WAT      O93643   6.575   8.720   5.580
31134WAT     H193644   6.526   8.659   5.518
31134WAT     H293645   6.672   8.725   5.553
31135WAT      O93646   7.086   9.234   6.670
31135WAT     H193647   7.066   9.320   6.718
31135WAT     H293648   7.007   9.172   6.679
31136WAT      O93649   2.788   2.291   7.062
31136WAT     H193650   2.745   2.202   7.055
31136WAT     H293651   2.721   2.359   7.092
31137WAT      O93652   7.348   1.001   0.113
31137WAT     H193653   7.437   1.045   0.099
31137WAT     H293654   7.362   0.909   0.151
31138WAT      O93655   2.738   5.743   6.269
31138WAT     H193656   2.705   5.706   6.355
31138WAT     H293657   2.833   5.771   6.278
31139WAT      O93658   7.794   7.955   7.162
31139WAT     H193659   7.800   7.867   7.210
31139WAT     H293660   7.715   7.955   7.101
31140WAT      O93661   6.069   9.597   9.874
31140WAT     H193662   5.975   9.583   9.844
31140WAT     H293663   6.097   9.691   9.856
31141WAT      O93664   2.404   6.916   2.258
31141WAT     H193665   2.438   6.840   2.203
31141WAT     H293666   2.344   6.973   2.203
31142WAT      O93667   9.503   0.963   9.049
31142WAT     H193668   9.449   0.941   8.968
31142WAT     H293669   9.466   1.045   9.092
31143WAT      O93670   8.278   1.639   1.343
31143WAT     H193671   8.333   1.699   1.284
31143WAT     H293672   8.336   1.595   1.410
31144WAT      O93673   1.395   6.202   8.843
31144WAT     H193674   1.409   6.290   8.887
31144WAT     H293675   1.299   6.174   8.854
31145WAT      O93676   9.710   4.941   9.111
31145WAT     H193677   9.648   4.991   9.171
31145WAT     H293678   9.740   4.857   9.156
31146WAT      O93679   5.079   1.622   9.462
31146WAT     H193680   5.103   1.559   9.388
31146WAT     H293681   5.160   1.640   9.518
31147WAT      O93682   2.978   3.813   3.799
31147WAT     H193683   2.898   3.796   3.857
31147WAT     H293684   2.957   3.788   3.705
31148WAT      O93685   8.174   8.785   7.148
31148WAT     H193686   8.121   8.716   7.098
31148WAT     H293687   8.139   8.793   7.241
31149WAT      O93688   4.766   7.176   1.075
31149WAT     H193689   4.741   7.153   1.169
31149WAT     H293690   4.805   7.269   1.072
31150WAT      O93691   9.268   8.223   0.252
31150WAT     H193692   9.245   8.317   0.228
31150WAT     H293693   9.199   8.187   0.315
31151WAT      O93694   7.718   7.797   1.328
31151WAT     H193695   7.812   7.764   1.336
31151WAT     H293696   7.698   7.859   1.403
31152WAT      O93697   0.991   1.489   7.472
31152WAT     H193698   0.977   1.460   7.567
31152WAT     H293699   0.953   1.580   7.458
31153WAT      O93700   0.501   0.936   0.230
31153WAT     H193701   0.417   0.914   0.280
31153WAT     H293702   0.526   1.031   0.248
31154WAT      O93703   5.914   5.740   1.366
31154WAT     H193704   5.894   5.660   1.423
31154WAT     H293705   5.998   5.783   1.398
31155WAT      O93706   4.481   2.435   7.853
31155WAT     H193707   4.393   2.484   7.856
31155WAT     H293708   4.469   2.342   7.888
31156WAT      O93709   4.269   1.471   7.692
31156WAT     H193710   4.357   1.518   7.700
31156WAT     H293711   4.224   1.499   7.607
31157WAT      O93712   6.066   4.004   3.019
31157WAT     H193713   5.982   4.049   3.050
31157WAT     H293714   6.128   3.991   3.097
31158WAT      O93715   2.741   6.646   2.481
31158WAT     H193716   2.822   6.613   2.530
31158WAT     H293717   2.678   6.690   2.545
31159WAT      O93718   8.540   0.786   0.814
31159WAT     H193719   8.534   0.861   0.880
31159WAT     H293720   8.489   0.810   0.732
31160WAT      O93721   2.376   9.165   3.016
31160WAT     H193722   2.288   9.206   3.039
31160WAT     H293723   2.399   9.186   2.920
31161WAT      O93724   3.270   1.788   3.519
31161WAT     H193725   3.232   1.818   3.431
31161WAT     H293726   3.366   1.762   3.506
31162WAT      O93727   0.415   7.528   4.013
31162WAT     H193728   0.354   7.450   4.000
31162WAT     H293729   0.408   7.590   3.935
31163WAT      O93730   9.813   1.248   1.518
31163WAT     H193731   9.815   1.226   1.421
31163WAT     H293732   9.725   1.288   1.542
31164WAT      O93733   0.226   5.318   8.049
31164WAT     H193734   0.165   5.246   8.082
31164WAT     H293735   0.278   5.285   7.971
31165WAT      O93736   0.654   1.675   7.968
31165WAT     H193737   0.578   1.651   7.907
31165WAT     H293738   0.664   1.603   8.036
31166WAT      O93739   9.043   1.338   7.285
31166WAT     H193740   8.978   1.268   7.314
31166WAT     H293741   9.074   1.318   7.192
31167WAT      O93742   2.468   5.308   1.557
31167WAT     H193743   2.545   5.277   1.613
31167WAT     H293744   2.384   5.308   1.612
31168WAT      O93745   1.001   6.197   3.040
31168WAT     H193746   0.952   6.223   2.956
31168WAT     H293747   1.013   6.097   3.042
31169WAT      O93748   5.983   5.171   9.081
31169WAT     H193749   5.946   5.259   9.052
31169WAT     H293750   5.940   5.098   9.029
31170WAT      O93751   2.930   0.266   1.156
31170WAT     H193752   2.897   0.207   1.083
31170WAT     H293753   2.968   0.210   1.230
31171WAT      O93754   5.472   6.860   2.426
31171WAT     H193755   5.516   6.805   2.355
31171WAT     H293756   5.425   6.800   2.490
31172WAT      O93757   3.867   2.387   8.520
31172WAT     H193758   3.856   2.308   8.580
31172WAT     H293759   3.793   2.389   8.453
31173WAT      O93760   7.762   5.342   2.861
31173WAT     H193761   7.839   5.368   2.803
31173WAT     H293762   7.725   5.255   2.828
31174WAT      O93763   6.460   3.079   2.149
31174WAT     H193764   6.509   3.140   2.087
31174WAT     H293765   6.420   3.132   2.224
31175WAT      O93766   4.956   6.179   5.907
31175WAT     H193767   5.052   6.166   5.931
31175WAT     H293768   4.904   6.097   5.931
31176WAT      O93769   2.820   4.226   4.591
31176WAT     H193770   2.860   4.288   4.523
31176WAT     H293771   2.891   4.162   4.624
31177WAT      O93772   8.879   3.246   5.113
31177WAT     H193773   8.886   3.177   5.041
31177WAT     H293774   8.821   3.212   5.187
31178WAT      O93775   1.247   0.077   7.787
31178WAT     H193776   1.281   0.025   7.866
31178WAT     H293777   1.156   0.112   7.807
31179WAT      O93778   6.455   8.308   7.313
31179WAT     H193779   6.528   8.269   7.371
31179WAT     H293780   6.466   8.407   7.309
31180WAT      O93781   6.543   4.036   3.699
31180WAT     H193782   6.527   4.116   3.757
31180WAT     H293783   6.583   3.962   3.753
31181WAT      O93784   0.102   0.155   8.068
31181WAT     H193785   0.107   0.216   8.146
31181WAT     H293786   0.185   0.099   8.063
31182WAT      O93787   0.016   5.219   4.404
31182WAT     H193788   0.081   5.289   4.434
31182WAT     H293789  -0.022   5.172   4.484
31183WAT      O93790   4.748   1.280   7.784
31183WAT     H193791   4.755   1.191   7.829
31183WAT     H293792   4.660   1.286   7.737
31184WAT      O93793   0.161   2.630   1.183
31184WAT     H193794   0.231   2.696   1.212
31184WAT     H293795   0.108   2.668   1.108
31185WAT      O93796   0.499   9.649   0.787
31185WAT     H193797   0.505   9.678   0.882
31185WAT     H293798   0.519   9.551   0.781
31186WAT      O93799   0.579   7.309   1.810
31186WAT     H193800   0.553   7.223   1.856
31186WAT     H293801   0.572   7.384   1.875
31187WAT      O93802   4.820   6.302   3.367
31187WAT     H193803   4.756   6.374   3.338
31187WAT     H293804   4.853   6.323   3.459
31188WAT      O93805   6.665   1.926   6.213
31188WAT     H193806   6.751   1.883   6.183
31188WAT     H293807   6.643   1.895   6.306
31189WAT      O93808   9.203   9.649   8.234
31189WAT     H193809   9.262   9.617   8.160
31189WAT     H293810   9.259   9.661   8.317
31190WAT      O93811   0.260   3.588   6.163
31190WAT     H193812   0.267   3.687   6.177
31190WAT     H293813   0.329   3.559   6.098
31191WAT      O93814   7.284   8.916   9.703
31191WAT     H193815   7.264   8.845   9.636
31191WAT     H293816   7.225   8.904   9.784
31192WAT      O93817   1.402   8.212   4.994
31192WAT     H193818   1.316   8.214   5.045
31192WAT     H293819   1.384   8.225   4.897
31193WAT      O93820   2.251   1.928   9.312
31193WAT     H193821   2.251   1.903   9.215
31193WAT     H293822   2.181   1.998   9.329
31194WAT      O93823   2.788   9.253   6.852
31194WAT     H193824   2.850   9.313   6.902
31194WAT     H293825   2.737   9.196   6.918
31195WAT      O93826   8.450   5.924   7.713
31195WAT     H193827   8.545   5.930   7.684
31195WAT     H293828   8.392   5.898   7.635
31196WAT      O93829   0.928   3.929   3.046
31196WAT     H193830   0.931   3.849   2.986
31196WAT     H293831   0.864   3.996   3.010
31197WAT      O93832   0.175   9.363   5.323
31197WAT     H193833   0.171   9.327   5.416
31197WAT     H293834   0.159   9.288   5.258
31198WAT      O93835   1.930   9.615   8.003
31198WAT     H193836   1.850   9.562   7.975
31198WAT     H293837   1.900   9.705   8.034
31199WAT      O93838   8.857   8.471   6.038
31199WAT     H193839   8.932   8.421   6.082
31199WAT     H293840   8.783   8.407   6.016
31200WAT      O93841   2.421   4.321   5.065
31200WAT     H193842   2.363   4.389   5.109
31200WAT     H293843   2.486   4.284   5.132
31201WAT      O93844   8.324   4.906   8.803
31201WAT     H193845   8.262   4.983   8.787
31201WAT     H293846   8.417   4.932   8.775
31202WAT      O93847   6.886   5.161   3.748
31202WAT     H193848   6.967   5.158   3.807
31202WAT     H293849   6.805   5.175   3.804
31203WAT      O93850   2.824   7.758   5.355
31203WAT     H193851   2.844   7.750   5.257
31203WAT     H293852   2.847   7.850   5.386
31204WAT      O93853   1.960   7.382   0.807
31204WAT     H193854   2.047   7.375   0.855
31204WAT     H293855   1.908   7.298   0.820
31205WAT      O93856   3.656   4.875   7.335
31205WAT     H193857   3.619   4.887   7.426
31205WAT     H293858   3.755   4.860   7.341
31206WAT      O93859   1.947   1.811   4.002
31206WAT     H193860   2.013   1.879   4.033
31206WAT     H293861   1.863   1.818   4.056
31207WAT      O93862   3.451   9.293   1.145
31207WAT     H193863   3.490   9.375   1.187
31207WAT     H293864   3.515   9.255   1.078
31208WAT      O93865   5.718   6.225   4.631
31208WAT     H193866   5.786   6.279   4.681
31208WAT     H293867   5.763   6.176   4.556
31209WAT      O93868   2.004   2.297   9.747
31209WAT     H193869   1.947   2.266   9.671
31209WAT     H293870   1.956   2.369   9.797
31210WAT      O93871   4.828   5.272   5.080
31210WAT     H193872   4.821   5.344   5.148
31210WAT     H293873   4.850   5.185   5.124
31211WAT      O93874   6.941   5.673   0.616
31211WAT     H193875   6.927   5.764   0.653
31211WAT     H293876   6.999   5.620   0.678
31212WAT      O93877   0.435   2.555   9.237
31212WAT     H193878   0.382   2.635   9.264
31212WAT     H293879   0.374   2.483   9.206
31213WAT      O93880   8.026   4.619   8.774
31213WAT     H193881   7.971   4.701   8.758
31213WAT     H293882   8.123   4.640   8.758
31214WAT      O93883   9.759   6.724   7.049
31214WAT     H193884   9.824   6.718   6.972
31214WAT     H293885   9.683   6.661   7.032
31215WAT      O93886   7.007   3.009   7.205
31215WAT     H193887   7.017   3.085   7.142
31215WAT     H293888   6.917   2.966   7.192
31216WAT      O93889   6.649   2.801   1.213
31216WAT     H193890   6.715   2.876   1.213
31216WAT     H293891   6.619   2.783   1.119
31217WAT      O93892   9.582   8.392   6.687
31217WAT     H193893   9.673   8.429   6.671
31217WAT     H293894   9.586   8.293   6.696
31218WAT      O93895   2.676   1.265   6.188
31218WAT     H193896   2.585   1.240   6.221
31218WAT     H293897   2.689   1.364   6.195
31219WAT      O93898   6.180   1.085   9.247
31219WAT     H193899   6.146   1.178   9.252
31219WAT     H293900   6.165   1.038   9.335
31220WAT      O93901   2.894   6.422   8.625
31220WAT     H193902   2.835   6.461   8.695
31220WAT     H293903   2.868   6.327   8.608
31221WAT      O93904   8.097   4.305   4.747
31221WAT     H193905   8.072   4.386   4.694
31221WAT     H293906   8.133   4.235   4.685
31222WAT      O93907   5.209   9.695   5.262
31222WAT     H193908   5.230   9.769   5.326
31222WAT     H293909   5.256   9.712   5.176
31223WAT      O93910   6.935   5.415   8.853
31223WAT     H193911   6.956   5.428   8.950
31223WAT     H293912   6.872   5.485   8.823
31224WAT      O93913   1.730   4.427   7.541
31224WAT     H193914   1.751   4.499   7.475
31224WAT     H293915   1.631   4.421   7.554
31225WAT      O93916   5.246   5.874   1.330
31225WAT     H193917   5.263   5.848   1.235
31225WAT     H293918   5.279   5.968   1.345
31226WAT      O93919   7.287   4.375   6.568
31226WAT     H193920   7.214   4.389   6.636
31226WAT     H293921   7.316   4.464   6.532
31227WAT      O93922   5.053   4.528   6.635
31227WAT     H193923   5.052   4.562   6.729
31227WAT     H293924   5.109   4.445   6.631
31228WAT      O93925   0.555   4.496   2.904
31228WAT     H193926   0.541   4.505   3.003
31228WAT     H293927   0.649   4.463   2.888
31229WAT      O93928   1.169   3.082   4.524
31229WAT     H193929   1.254   3.104   4.477
31229WAT     H293930   1.112   3.163   4.531
31230WAT      O93931   8.953   7.978   0.214
31230WAT     H193932   8.909   7.894   0.181
31230WAT     H293933   8.883   8.047   0.233
31231WAT      O93934   4.431   5.265   6.399
31231WAT     H193935   4.441   5.242   6.496
31231WAT     H293936   4.515   5.310   6.367
31232WAT      O93937   3.982   1.762   1.879
31232WAT     H193938   3.928   1.773   1.963
31232WAT     H293939   3.947   1.685   1.827
31233WAT      O93940   9.419   3.264   8.799
31233WAT     H193941   9.453   3.337   8.739
31233WAT     H293942   9.412   3.298   8.893
31234WAT      O93943   4.950   6.665   6.799
31234WAT     H193944   4.901   6.641   6.715
31234WAT     H293945   5.048   6.668   6.781
31235WAT      O93946   6.496   4.530   5.864
31235WAT     H193947   6.437   4.555   5.940
31235WAT     H293948   6.441   4.489   5.791
31236WAT      O93949   2.274   4.953   8.702
31236WAT     H193950   2.260   5.044   8.662
31236WAT     H293951   2.220   4.945   8.786
31237WAT      O93952   4.567   1.975   7.589
31237WAT     H193953   4.485   1.958   7.644
31237WAT     H293954   4.577   2.074   7.574
31238WAT      O93955   1.071   2.144   6.769
31238WAT     H193956   1.121   2.203   6.705
31238WAT     H293957   1.039   2.199   6.846
31239WAT      O93958   6.181   2.266   0.262
31239WAT     H193959   6.202   2.185   0.208
31239WAT     H293960   6.218   2.347   0.216
31240WAT      O93961   0.044   6.504   0.328
31240WAT     H193962  -0.008   6.567   0.385
31240WAT     H293963   0.121   6.553   0.287
31241WAT      O93964   3.768   4.761   1.068
31241WAT     H193965   3.727   4.810   1.145
31241WAT     H293966   3.696   4.723   1.010
31242WAT      O93967   5.757   9.720   9.264
31242WAT     H193968   5.812   9.737   9.183
31242WAT     H293969   5.810   9.739   9.346
31243WAT      O93970   6.523   4.545   3.848
31243WAT     H193971   6.511   4.581   3.755
31243WAT     H293972   6.600   4.481   3.849
31244WAT      O93973   7.014   7.947   3.866
31244WAT     H193974   6.995   7.996   3.951
31244WAT     H293975   6.987   8.004   3.788
31245WAT      O93976   0.941   6.756   7.452
31245WAT     H193977   1.024   6.808   7.475
31245WAT     H293978   0.930   6.755   7.353
31246WAT      O93979   3.719   9.051   8.806
31246WAT     H193980   3.797   9.062   8.744
31246WAT     H293981   3.635   9.045   8.753
31247WAT      O93982   1.593   8.135   7.918
31247WAT     H193983   1.658   8.063   7.942
31247WAT     H293984   1.572   8.128   7.821
31248WAT      O93985   8.567   5.050   9.007
31248WAT     H193986   8.652   5.079   9.052
31248WAT     H293987   8.519   4.985   9.066
31249WAT      O93988   4.825   7.129   8.849
31249WAT     H193989   4.881   7.210   8.835
31249WAT     H293990   4.855   7.056   8.787
31250WAT      O93991   9.708   0.035   5.095
31250WAT     H193992   9.745  -0.027   5.165
31250WAT     H293993   9.681  -0.018   5.015
31251WAT      O93994   2.002   1.576   7.875
31251WAT     H193995   2.095   1.604   7.849
31251WAT     H293996   1.972   1.629   7.954
31252WAT      O93997   2.127   8.509   0.424
31252WAT     H193998   2.038   8.527   0.383
31252WAT     H293999   2.121   8.517   0.523
31253WAT      O94000   6.117   9.765   2.636
31253WAT     H194001   6.098   9.763   2.735
31253WAT     H294002   6.174   9.845   2.616
31254WAT      O94003   0.859   9.038   8.063
31254WAT     H194004   0.781   8.991   8.023
31254WAT     H294005   0.931   9.047   7.994
31255WAT      O94006   5.681   8.484   8.103
31255WAT     H194007   5.773   8.448   8.115
31255WAT     H294008   5.657   8.485   8.006
31256WAT      O94009   4.234   5.089   5.928
31256WAT     H194010   4.304   5.139   5.979
31256WAT     H294011   4.154   5.074   5.987
31257WAT      O94012   4.891   9.039   5.935
31257WAT     H194013   4.911   8.948   5.898
31257WAT     H294014   4.893   9.036   6.034
31258WAT      O94015   7.860   1.551   1.372
31258WAT     H194016   7.868   1.504   1.284
31258WAT     H294017   7.781   1.612   1.371
31259WAT      O94018   0.814   5.319   5.767
31259WAT     H194019   0.801   5.402   5.821
31259WAT     H294020   0.820   5.343   5.670
31260WAT      O94021   3.854   4.246   1.465
31260WAT     H194022   3.951   4.240   1.486
31260WAT     H294023   3.820   4.156   1.437
31261WAT      O94024   0.228   4.801   0.957
31261WAT     H194025   0.245   4.837   1.049
31261WAT     H294026   0.139   4.832   0.924
31262WAT      O94027   9.824   2.978   2.728
31262WAT     H194028   9.869   2.964   2.816
31262WAT     H294029   9.827   3.075   2.703
31263WAT      O94030   9.148   7.550   1.682
31263WAT     H194031   9.159   7.526   1.778
31263WAT     H294032   9.089   7.483   1.637
31264WAT      O94033   4.543   6.632   5.319
31264WAT     H194034   4.468   6.601   5.261
31264WAT     H294035   4.549   6.574   5.401
31265WAT      O94036   3.247   7.601   6.666
31265WAT     H194037   3.212   7.650   6.746
31265WAT     H294038   3.277   7.510   6.693
31266WAT      O94039   8.039   3.908   5.240
31266WAT     H194040   8.048   3.981   5.306
31266WAT     H294041   8.038   3.946   5.147
31267WAT      O94042   5.385   3.234   4.650
31267WAT     H194043   5.480   3.249   4.676
31267WAT     H294044   5.382   3.186   4.562
31268WAT      O94045   4.309   6.001   2.825
31268WAT     H194046   4.269   6.052   2.902
31268WAT     H294047   4.248   6.009   2.746
31269WAT      O94048   2.290   5.456   4.257
31269WAT     H194049   2.292   5.356   4.252
31269WAT     H294050   2.282   5.484   4.353
31270WAT      O94051   5.474   5.303   0.071
31270WAT     H194052   5.428   5.296  -0.018
31270WAT     H294053   5.469   5.214   0.118
31271WAT      O94054   9.102   5.891   3.391
31271WAT     H194055   9.087   5.909   3.488
31271WAT     H294056   9.180   5.829   3.380
31272WAT      O94057   9.845   6.967   7.305
31272WAT     H194058   9.912   6.968   7.379
31272WAT     H294059   9.889   6.937   7.220
31273WAT      O94060   7.598   3.789   9.859
31273WAT     H194061   7.661   3.862   9.886
31273WAT     H294062   7.605   3.775   9.760
31274WAT      O94063   6.458   3.141   2.962
31274WAT     H194064   6.459   3.143   2.862
31274WAT     H294065   6.551   3.151   2.997
31275WAT      O94066   7.746   9.180   6.314
31275WAT     H194067   7.767   9.118   6.239
31275WAT     H294068   7.687   9.134   6.380
31276WAT      O94069   1.619   8.791   3.389
31276WAT     H194070   1.569   8.869   3.427
31276WAT     H294071   1.567   8.707   3.402
31277WAT      O94072   3.353   2.571   0.517
31277WAT     H194073   3.254   2.578   0.509
31277WAT     H294074   3.383   2.615   0.602
31278WAT      O94075   1.627   4.954   6.147
31278WAT     H194076   1.639   4.855   6.135
31278WAT     H294077   1.578   4.991   6.068
31279WAT      O94078   1.153   5.789   4.559
31279WAT     H194079   1.169   5.725   4.484
31279WAT     H294080   1.232   5.788   4.621
31280WAT      O94081   2.696   5.636   8.707
31280WAT     H194082   2.792   5.611   8.707
31280WAT     H294083   2.640   5.556   8.685
31281WAT      O94084   6.045   9.402   5.017
31281WAT     H194085   6.040   9.302   5.014
31281WAT     H294086   6.127   9.430   5.066
31282WAT      O94087   8.123   9.376   7.166
31282WAT     H194088   8.135   9.403   7.070
31282WAT     H294089   8.099   9.457   7.220
31283WAT      O94090   0.491   4.414   8.507
31283WAT     H194091   0.498   4.510   8.482
31283WAT     H294092   0.429   4.367   8.444
31284WAT      O94093   4.220   4.827   9.557
31284WAT     H194094   4.133   4.778   9.563
31284WAT     H294095   4.231   4.885   9.638
31285WAT      O94096   2.217   5.771   5.375
31285WAT     H194097   2.274   5.702   5.419
31285WAT     H294098   2.237   5.860   5.415
31286WAT      O94099   7.147   9.368   7.274
31286WAT     H194100   7.122   9.332   7.184
31286WAT     H294101   7.074   9.428   7.307
31287WAT      O94102   8.568   6.169   9.767
31287WAT     H194103   8.511   6.087   9.779
31287WAT     H294104   8.560   6.201   9.673
31288WAT      O94105   2.378   6.515   7.560
31288WAT     H194106   2.301   6.570   7.529
31288WAT     H294107   2.448   6.575   7.599
31289WAT      O94108   3.069   7.062   6.303
31289WAT     H194109   3.094   6.984   6.245
31289WAT     H294110   3.142   7.130   6.300
31290WAT      O94111   0.160   5.447   3.471
31290WAT     H194112   0.230   5.386   3.435
31290WAT     H294113   0.180   5.469   3.566
31291WAT      O94114   6.999   6.580   2.153
31291WAT     H194115   6.992   6.668   2.200
31291WAT     H294116   6.908   6.537   2.149
31292WAT      O94117   3.757   7.412   8.485
31292WAT     H194118   3.782   7.336   8.546
31292WAT     H294119   3.659   7.408   8.465
31293WAT      O94120   2.169   7.786   0.223
31293WAT     H194121   2.207   7.869   0.263
31293WAT     H294122   2.203   7.775   0.129
31294WAT      O94123   1.945   2.112   0.044
31294WAT     H194124   1.998   2.128   0.127
31294WAT     H294125   1.972   2.178  -0.026
31295WAT      O94126   2.696   4.919   0.118
31295WAT     H194127   2.784   4.966   0.122
31295WAT     H294128   2.635   4.958   0.187
31296WAT      O94129   3.259   2.528   4.103
31296WAT     H194130   3.161   2.548   4.103
31296WAT     H294131   3.296   2.542   4.195
31297WAT      O94132   2.393   8.135   9.806
31297WAT     H194133   2.313   8.191   9.827
31297WAT     H294134   2.400   8.122   9.707
31298WAT      O94135   5.154   2.191   4.270
31298WAT     H194136   5.168   2.195   4.171
31298WAT     H294137   5.239   2.217   4.316
31299WAT      O94138   0.055   2.908   8.797
31299WAT     H194139   0.135   2.879   8.745
31299WAT     H294140   0.085   2.950   8.883
31300WAT      O94141   2.798   8.572   4.003
31300WAT     H194142   2.730   8.638   4.036
31300WAT     H294143   2.890   8.607   4.020
31301WAT      O94144   3.297   7.650   0.320
31301WAT     H194145   3.231   7.669   0.248
31301WAT     H294146   3.265   7.572   0.374
31302WAT      O94147   4.904   7.737   7.185
31302WAT     H194148   4.933   7.830   7.206
31302WAT     H294149   4.871   7.732   7.091
31303WAT      O94150   8.927   6.988   8.729
31303WAT     H194151   8.965   6.936   8.653
31303WAT     H294152   8.840   7.028   8.702
31304WAT      O94153   8.359   5.947   3.917
31304WAT     H194154   8.338   5.855   3.884
31304WAT     H294155   8.373   6.008   3.839
31305WAT      O94156   6.219   4.268   4.149
31305WAT     H194157   6.311   4.303   4.133
31305WAT     H294158   6.202   4.263   4.248
31306WAT      O94159   9.581   0.422   8.401
31306WAT     H194160   9.563   0.516   8.374
31306WAT     H294161   9.593   0.417   8.500
31307WAT      O94162   2.122   4.606   6.306
31307WAT     H194163   2.052   4.586   6.238
31307WAT     H294164   2.078   4.638   6.390
31308WAT      O94165   1.581   3.304   8.841
31308WAT     H194166   1.511   3.237   8.816
31308WAT     H294167   1.537   3.391   8.863
31309WAT      O94168   6.981   8.408   1.016
31309WAT     H194169   6.921   8.380   1.091
31309WAT     H294170   6.949   8.495   0.979
31310WAT      O94171   0.049   6.759   4.506
31310WAT     H194172  -0.001   6.692   4.452
31310WAT     H294173  -0.015   6.829   4.540
31311WAT      O94174   6.507   5.632   4.336
31311WAT     H194175   6.519   5.605   4.431
31311WAT     H294176   6.423   5.685   4.326
31312WAT      O94177   3.257   0.661   3.535
31312WAT     H194178   3.166   0.620   3.542
31312WAT     H294179   3.270   0.696   3.442
31313WAT      O94180   5.678   2.553   4.040
31313WAT     H194181   5.712   2.469   4.083
31313WAT     H294182   5.629   2.531   3.956
31314WAT      O94183   0.045   2.088   3.672
31314WAT     H194184  -0.018   2.098   3.748
31314WAT     H294185   0.041   2.170   3.614
31315WAT      O94186   4.423   5.880   1.771
31315WAT     H194187   4.412   5.970   1.729
31315WAT     H294188   4.519   5.852   1.766
31316WAT      O94189   3.808   5.126   3.303
31316WAT     H194190   3.718   5.105   3.344
31316WAT     H294191   3.800   5.128   3.204
31317WAT      O94192   6.440   0.748   6.629
31317WAT     H194193   6.480   0.679   6.569
31317WAT     H294194   6.503   0.825   6.638
31318WAT      O94195   7.199   1.122   4.795
31318WAT     H194196   7.292   1.148   4.770
31318WAT     H294197   7.167   1.050   4.734
31319WAT      O94198   4.526   0.987   8.058
31319WAT     H194199   4.489   1.079   8.072
31319WAT     H294200   4.617   0.981   8.099
31320WAT      O94201   8.287   7.244   9.528
31320WAT     H194202   8.294   7.288   9.438
31320WAT     H294203   8.361   7.276   9.586
31321WAT      O94204   8.980   2.948   2.451
31321WAT     H194205   9.031   2.871   2.411
31321WAT     H294206   8.905   2.974   2.391
31322WAT      O94207   3.848   8.015   7.331
31322WAT     H194208   3.940   8.016   7.293
31322WAT     H294209   3.798   7.936   7.294
31323WAT      O94210   8.264   6.529   1.776
31323WAT     H194211   8.248   6.526   1.875
31323WAT     H294212   8.349   6.481   1.755
31324WAT      O94213   2.763   8.463   2.890
31324WAT     H194214   2.673   8.506   2.895
31324WAT     H294215   2.753   8.371   2.853
31325WAT      O94216   8.062   6.225   8.688
31325WAT     H194217   8.073   6.321   8.714
31325WAT     H294218   8.119   6.205   8.608
31326WAT      O94219   5.053   4.464   4.033
31326WAT     H194220   4.960   4.483   4.062
31326WAT     H294221   5.089   4.542   3.983
31327WAT      O94222   2.939   6.139   7.695
31327WAT     H194223   3.038   6.132   7.703
31327WAT     H294224   2.897   6.052   7.720
31328WAT      O94225   5.863   7.228   5.546
31328WAT     H194226   5.903   7.299   5.603
31328WAT     H294227   5.763   7.232   5.553
31329WAT      O94228   7.882   1.816   0.854
31329WAT     H194229   7.944   1.845   0.927
31329WAT     H294230   7.808   1.882   0.845
31330WAT      O94231   5.374   0.491   3.882
31330WAT     H194232   5.355   0.485   3.784
31330WAT     H294233   5.299   0.539   3.928
31331WAT      O94234   3.725   7.752   5.120
31331WAT     H194235   3.735   7.726   5.216
31331WAT     H294236   3.630   7.740   5.092
31332WAT      O94237   1.783   6.708   1.869
31332WAT     H194238   1.806   6.611   1.870
31332WAT     H294239   1.838   6.756   1.938
31333WAT      O94240   8.003   8.625   0.689
31333WAT     H194241   8.057   8.614   0.771
31333WAT     H294242   7.907   8.606   0.709
31334WAT      O94243   4.659   3.790   8.973
31334WAT     H194244   4.666   3.816   8.876
31334WAT     H294245   4.751   3.779   9.011
31335WAT      O94246   9.000   0.266   3.784
31335WAT     H194247   8.994   0.176   3.826
31335WAT     H294248   9.041   0.331   3.848
31336WAT      O94249   6.369   3.692   9.811
31336WAT     H194250   6.408   3.660   9.898
31336WAT     H294251   6.271   3.705   9.821
31337WAT      O94252   0.246   5.103   5.850
31337WAT     H194253   0.185   5.045   5.904
31337WAT     H294254   0.333   5.112   5.897
31338WAT      O94255   3.332   8.017   4.477
31338WAT     H194256   3.362   8.106   4.444
31338WAT     H294257   3.302   8.025   4.572
31339WAT      O94258   8.921   9.023   6.116
31339WAT     H194259   8.923   8.999   6.018
31339WAT     H294260   8.898   8.941   6.169
31340WAT      O94261   6.468   8.747   7.924
31340WAT     H194262   6.478   8.823   7.860
31340WAT     H294263   6.390   8.690   7.897
31341WAT      O94264   3.366   2.688   8.914
31341WAT     H194265   3.305   2.748   8.966
31341WAT     H294266   3.340   2.593   8.929
31342WAT      O94267   3.159   6.053   3.780
31342WAT     H194268   3.085   6.081   3.840
31342WAT     H294269   3.144   6.090   3.689
31343WAT      O94270   1.727   3.216   7.450
31343WAT     H194271   1.717   3.208   7.550
31343WAT     H294272   1.722   3.125   7.409
31344WAT      O94273   3.056   0.260   9.154
31344WAT     H194274   3.045   0.175   9.102
31344WAT     H294275   2.970   0.312   9.151
31345WAT      O94276   2.376   1.603   0.853
31345WAT     H194277   2.344   1.648   0.936
31345WAT     H294278   2.450   1.658   0.812
31346WAT      O94279   0.030   6.165   9.144
31346WAT     H194280   0.021   6.259   9.176
31346WAT     H294281   0.030   6.164   9.044
31347WAT      O94282   9.479   4.523   2.747
31347WAT     H194283   9.505   4.427   2.739
31347WAT     H294284   9.382   4.534   2.721
31348WAT      O94285   2.462   8.215   6.029
31348WAT     H194286   2.504   8.301   6.056
31348WAT     H294287   2.532   8.155   5.989
31349WAT      O94288   0.046   5.747   9.343
31349WAT     H194289  -0.026   5.815   9.330
31349WAT     H294290   0.079   5.749   9.437
31350WAT      O94291   3.751   8.556   0.681
31350WAT     H194292   3.782   8.651   0.677
31350WAT     H294293   3.817   8.502   0.733
31351WAT      O94294   0.716   2.766   4.001
31351WAT     H194295   0.815   2.768   4.013
31351WAT     H294296   0.675   2.839   4.057
31352WAT      O94297   4.083   3.314   9.745
31352WAT     H194298   4.055   3.298   9.650
31352WAT     H294299   4.096   3.412   9.760
31353WAT      O94300   1.141   3.056   0.032
31353WAT     H194301   1.107   3.029  -0.058
31353WAT     H294302   1.210   2.990   0.062
31354WAT      O94303   3.101   8.452   3.840
31354WAT     H194304   3.024   8.412   3.889
31354WAT     H294305   3.172   8.382   3.826
31355WAT      O94306   4.220   6.435   9.188
31355WAT     H194307   4.222   6.438   9.288
31355WAT     H294308   4.313   6.441   9.152
31356WAT      O94309   9.008   3.159   6.541
31356WAT     H194310   8.928   3.137   6.485
31356WAT     H294311   9.066   3.224   6.493
31357WAT      O94312   3.253   2.003   7.350
31357WAT     H194313   3.163   2.000   7.393
31357WAT     H294314   3.282   2.098   7.340
31358WAT      O94315   6.290   7.596   8.697
31358WAT     H194316   6.254   7.555   8.780
31358WAT     H294317   6.386   7.621   8.710
31359WAT      O94318   3.829   1.418   9.659
31359WAT     H194319   3.766   1.385   9.588
31359WAT     H294320   3.783   1.488   9.714
31360WAT      O94321   8.459   1.393   0.886
31360WAT     H194322   8.503   1.333   0.819
31360WAT     H294323   8.523   1.409   0.962
31361WAT      O94324   2.767   4.874   4.337
31361WAT     H194325   2.779   4.785   4.382
31361WAT     H294326   2.786   4.865   4.240
31362WAT      O94327   4.208   5.014   1.351
31362WAT     H194328   4.180   4.937   1.407
31362WAT     H294329   4.163   5.097   1.384
31363WAT      O94330   7.565   7.894   0.709
31363WAT     H194331   7.584   7.835   0.631
31363WAT     H294332   7.629   7.872   0.783
31364WAT      O94333   5.885   8.552   2.459
31364WAT     H194334   5.897   8.477   2.523
31364WAT     H294335   5.851   8.633   2.508
31365WAT      O94336   8.699   7.680   0.380
31365WAT     H194337   8.692   7.710   0.285
31365WAT     H294338   8.618   7.711   0.431
31366WAT      O94339   0.276   2.747   9.323
31366WAT     H194340   0.328   2.829   9.346
31366WAT     H294341   0.209   2.769   9.252
31367WAT      O94342   3.851   3.777   7.693
31367WAT     H194343   3.920   3.804   7.760
31367WAT     H294344   3.776   3.728   7.739
31368WAT      O94345   1.860   1.315   9.162
31368WAT     H194346   1.940   1.306   9.221
31368WAT     H294347   1.781   1.270   9.205
31369WAT      O94348   5.850   8.697   7.906
31369WAT     H194349   5.819   8.751   7.828
31369WAT     H294350   5.879   8.759   7.979
31370WAT      O94351   1.106   3.567   2.717
31370WAT     H194352   1.189   3.588   2.666
31370WAT     H294353   1.119   3.482   2.768
31371WAT      O94354   8.996   1.980   6.839
31371WAT     H194355   8.984   1.976   6.740
31371WAT     H294356   9.003   2.075   6.869
31372WAT      O94357   8.249   6.581   0.444
31372WAT     H194358   8.323   6.538   0.392
31372WAT     H294359   8.162   6.537   0.423
31373WAT      O94360   7.851   7.610   4.962
31373WAT     H194361   7.911   7.533   4.981
31373WAT     H294362   7.901   7.695   4.974
31374WAT      O94363   2.957   7.774   2.923
31374WAT     H194364   2.951   7.680   2.956
31374WAT     H294365   3.025   7.824   2.977
31375WAT      O94366   8.909   2.643   8.141
31375WAT     H194367   8.932   2.650   8.238
31375WAT     H294368   8.914   2.548   8.112
31376WAT      O94369   9.375   1.884   5.483
31376WAT     H194370   9.312   1.884   5.561
31376WAT     H294371   9.392   1.790   5.453
31377WAT      O94372   5.124   7.594   9.683
31377WAT     H194373   5.028   7.622   9.688
31377WAT     H294374   5.178   7.668   9.643
31378WAT      O94375   9.021   0.148   8.057
31378WAT     H194376   8.976   0.224   8.104
31378WAT     H294377   8.965   0.120   7.979
31379WAT      O94378   4.666   0.247   2.972
31379WAT     H194379   4.646   0.341   2.997
31379WAT     H294380   4.600   0.215   2.904
31380WAT      O94381   6.213   5.211   7.067
31380WAT     H194382   6.257   5.122   7.058
31380WAT     H294383   6.268   5.280   7.018
31381WAT      O94384   6.227   1.481   0.521
31381WAT     H194385   6.172   1.498   0.602
31381WAT     H294386   6.189   1.403   0.471
31382WAT      O94387   8.632   4.143   8.545
31382WAT     H194388   8.706   4.087   8.582
31382WAT     H294389   8.644   4.152   8.446
31383WAT      O94390   4.787   8.919   8.330
31383WAT     H194391   4.764   9.012   8.302
31383WAT     H294392   4.885   8.904   8.322
31384WAT      O94393   8.207   0.118   4.177
31384WAT     H194394   8.297   0.110   4.221
31384WAT     H294395   8.218   0.152   4.084
31385WAT      O94396   7.722   5.114   1.261
31385WAT     H194397   7.694   5.135   1.355
31385WAT     H294398   7.764   5.195   1.220
31386WAT      O94399   9.340   0.576   1.476
31386WAT     H194400   9.367   0.489   1.517
31386WAT     H294401   9.267   0.561   1.410
31387WAT      O94402   7.718   0.036   8.337
31387WAT     H194403   7.806   0.084   8.331
31387WAT     H294404   7.704  -0.018   8.253
31388WAT      O94405   0.456   4.031   1.876
31388WAT     H194406   0.534   4.012   1.816
31388WAT     H294407   0.417   4.120   1.852
31389WAT      O94408   4.441   0.229   8.413
31389WAT     H194409   4.387   0.295   8.361
31389WAT     H294410   4.538   0.250   8.402
31390WAT      O94411   4.442   8.847   4.133
31390WAT     H194412   4.467   8.775   4.197
31390WAT     H294413   4.369   8.903   4.173
31391WAT      O94414   4.199   2.876   1.953
31391WAT     H194415   4.183   2.811   2.028
31391WAT     H294416   4.128   2.864   1.883
31392WAT      O94417   0.689   7.300   8.592
31392WAT     H194418   0.659   7.321   8.499
31392WAT     H294419   0.730   7.381   8.633
31393WAT      O94420   4.874   0.781   1.133
31393WAT     H194421   4.913   0.713   1.072
31393WAT     H294422   4.928   0.786   1.217
31394WAT      O94423   9.490   8.839   0.135
31394WAT     H194424   9.546   8.922   0.141
31394WAT     H294425   9.478   8.814   0.039
31395WAT      O94426   0.353   2.190   2.673
31395WAT     H194427   0.409   2.107   2.673
31395WAT     H294428   0.378   2.247   2.752
31396WAT      O94429   7.680   2.774   8.161
31396WAT     H194430   7.754   2.838   8.180
31396WAT     H294431   7.657   2.776   8.064
31397WAT      O94432   0.868   2.622   0.959
31397WAT     H194433   0.941   2.555   0.951
31397WAT     H294434   0.907   2.714   0.966
31398WAT      O94435   9.463   1.513   8.800
31398WAT     H194436   9.511   1.445   8.745
31398WAT     H294437   9.440   1.592   8.742
31399WAT      O94438   4.443   6.436   9.011
31399WAT     H194439   4.386   6.362   8.975
31399WAT     H294440   4.460   6.504   8.939
31400WAT      O94441   8.829   4.765   4.668
31400WAT     H194442   8.859   4.841   4.611
31400WAT     H294443   8.802   4.799   4.758
31401WAT      O94444   3.728   0.931   8.498
31401WAT     H194445   3.766   1.024   8.501
31401WAT     H294446   3.779   0.876   8.432
31402WAT      O94447   2.967   3.085   4.147
31402WAT     H194448   3.041   3.096   4.214
31402WAT     H294449   2.930   3.175   4.124
31403WAT      O94450   6.731   9.666   6.272
31403WAT     H194451   6.814   9.701   6.229
31403WAT     H294452   6.686   9.741   6.321
31404WAT      O94453   5.587   7.669   8.671
31404WAT     H194454   5.520   7.600   8.698
31404WAT     H294455   5.663   7.624   8.623
31405WAT      O94456   8.876   9.511   5.249
31405WAT     H194457   8.882   9.417   5.214
31405WAT     H294458   8.911   9.574   5.181
31406WAT      O94459   7.059   7.768   1.338
31406WAT     H194460   7.031   7.712   1.261
31406WAT     H294461   7.159   7.766   1.346
31407WAT      O94462   0.755   2.617   3.355
31407WAT     H194463   0.658   2.594   3.347
31407WAT     H294464   0.805   2.574   3.281
31408WAT      O94465   5.407   2.248   4.574
31408WAT     H194466   5.394   2.246   4.475
31408WAT     H294467   5.505   2.254   4.594
31409WAT      O94468   6.616   7.322   4.578
31409WAT     H194469   6.690   7.324   4.645
31409WAT     H294470   6.615   7.234   4.531
31410WAT      O94471   6.342   4.617   3.414
31410WAT     H194472   6.362   4.603   3.317
31410WAT     H294473   6.290   4.701   3.426
31411WAT      O94474   1.487   7.641   1.628
31411WAT     H194475   1.425   7.570   1.594
31411WAT     H294476   1.455   7.672   1.718
31412WAT      O94477   2.817   0.384   7.496
31412WAT     H194478   2.807   0.442   7.577
31412WAT     H294479   2.853   0.295   7.524
31413WAT      O94480   1.136   8.705   4.416
31413WAT     H194481   1.098   8.796   4.400
31413WAT     H294482   1.230   8.701   4.382
31414WAT      O94483   4.635   4.208   1.740
31414WAT     H194484   4.680   4.286   1.782
31414WAT     H294485   4.673   4.123   1.777
31415WAT      O94486   1.522   0.080   1.582
31415WAT     H194487   1.544   0.072   1.679
31415WAT     H294488   1.605   0.095   1.529
31416WAT      O94489   3.779   8.777   5.992
31416WAT     H194490   3.744   8.713   6.061
31416WAT     H294491   3.845   8.730   5.934
31417WAT      O94492   2.912   1.828   3.431
31417WAT     H194493   2.976   1.817   3.355
31417WAT     H294494   2.876   1.738   3.457
31418WAT      O94495   9.578   1.124   3.024
31418WAT     H194496   9.511   1.146   2.953
31418WAT     H294497   9.530   1.093   3.106
31419WAT      O94498   2.338   5.561   4.989
31419WAT     H194499   2.259   5.511   4.955
31419WAT     H294500   2.421   5.509   4.969
31420WAT      O94501   5.403   9.339   6.214
31420WAT     H194502   5.335   9.394   6.165
31420WAT     H294503   5.375   9.243   6.213
31421WAT      O94504   3.865   7.466   1.860
31421WAT     H194505   3.794   7.402   1.828
31421WAT     H294506   3.833   7.512   1.943
31422WAT      O94507   3.690   4.467   0.245
31422WAT     H194508   3.762   4.397   0.247
31422WAT     H294509   3.632   4.452   0.165
31423WAT      O94510   6.672   9.308   6.995
31423WAT     H194511   6.648   9.312   6.898
31423WAT     H294512   6.755   9.252   7.006
31424WAT      O94513   4.222   3.576   7.440
31424WAT     H194514   4.152   3.504   7.435
31424WAT     H294515   4.237   3.601   7.535
31425WAT      O94516   5.296   6.003   8.818
31425WAT     H194517   5.204   5.996   8.781
31425WAT     H294518   5.302   5.950   8.903
31426WAT      O94519   6.146   1.191   5.913
31426WAT     H194520   6.064   1.196   5.970
31426WAT     H294521   6.169   1.096   5.896
31427WAT      O94522   5.221   1.446   5.045
31427WAT     H194523   5.196   1.357   5.006
31427WAT     H294524   5.144   1.481   5.099
31428WAT      O94525   6.339   2.619   2.054
31428WAT     H194526   6.303   2.709   2.077
31428WAT     H294527   6.347   2.610   1.955
31429WAT      O94528   2.062   7.955   9.349
31429WAT     H194529   2.102   8.030   9.401
31429WAT     H294530   2.047   7.877   9.409
31430WAT      O94531   5.150   7.077   0.543
31430WAT     H194532   5.071   7.052   0.486
31430WAT     H294533   5.227   7.102   0.485
31431WAT      O94534   8.294   7.885   0.685
31431WAT     H194535   8.320   7.943   0.762
31431WAT     H294536   8.268   7.943   0.607
31432WAT      O94537   6.693   9.065   8.291
31432WAT     H194538   6.656   8.984   8.245
31432WAT     H294539   6.620   9.134   8.300
31433WAT      O94540   4.755   5.510   0.444
31433WAT     H194541   4.758   5.450   0.363
31433WAT     H294542   4.714   5.461   0.520
31434WAT      O94543   3.120   4.850   6.969
31434WAT     H194544   3.192   4.864   6.901
31434WAT     H294545   3.149   4.780   7.034
31435WAT      O94546   8.309   2.624   6.414
31435WAT     H194547   8.345   2.712   6.445
31435WAT     H294548   8.299   2.563   6.493
31436WAT      O94549   8.452   4.436   6.557
31436WAT     H194550   8.445   4.534   6.574
31436WAT     H294551   8.470   4.388   6.643
31437WAT      O94552   7.687   1.665   9.726
31437WAT     H194553   7.754   1.655   9.800
31437WAT     H294554   7.683   1.760   9.697
31438WAT      O94555   4.215   4.713   0.537
31438WAT     H194556   4.271   4.631   0.551
31438WAT     H294557   4.194   4.754   0.626
31439WAT      O94558   1.051   0.380   2.563
31439WAT     H194559   1.109   0.313   2.516
31439WAT     H294560   1.075   0.472   2.532
31440WAT      O94561   8.762   7.796   8.677
31440WAT     H194562   8.739   7.753   8.590
31440WAT     H294563   8.835   7.863   8.664
31441WAT      O94564   4.461   5.969   7.006
31441WAT     H194565   4.378   5.966   6.951
31441WAT     H294566   4.477   6.063   7.037
31442WAT      O94567   5.172   1.622   5.898
31442WAT     H194568   5.089   1.648   5.947
31442WAT     H294569   5.216   1.545   5.945
31443WAT      O94570   3.800   7.485   3.311
31443WAT     H194571   3.801   7.565   3.372
31443WAT     H294572   3.712   7.481   3.263
31444WAT      O94573   3.217   2.852   8.351
31444WAT     H194574   3.168   2.913   8.413
31444WAT     H294575   3.168   2.847   8.264
31445WAT      O94576   6.328   2.625   9.237
31445WAT     H194577   6.278   2.711   9.246
31445WAT     H294578   6.423   2.638   9.265
31446WAT      O94579   2.899   5.086   5.140
31446WAT     H194580   2.871   4.989   5.139
31446WAT     H294581   2.966   5.100   5.212
31447WAT      O94582   7.892   5.323   2.137
31447WAT     H194583   7.866   5.321   2.040
31447WAT     H294584   7.813   5.350   2.192
31448WAT      O94585   3.694   2.439   7.335
31448WAT     H194586   3.783   2.460   7.375
31448WAT     H294587   3.646   2.374   7.394
31449WAT      O94588   4.683   1.313   6.668
31449WAT     H194589   4.602   1.338   6.615
31449WAT     H294590   4.662   1.234   6.727
31450WAT      O94591   7.393   7.053   0.208
31450WAT     H194592   7.373   7.096   0.120
31450WAT     H294593   7.358   7.111   0.282
31451WAT      O94594   3.656   6.551   6.966
31451WAT     H194595   3.582   6.527   6.904
31451WAT     H294596   3.739   6.501   6.940
31452WAT      O94597   3.237   8.009   7.536
31452WAT     H194598   3.199   8.097   7.507
31452WAT     H294599   3.241   7.947   7.458
31453WAT      O94600   1.955   3.038   6.794
31453WAT     H194601   1.861   3.010   6.774
31453WAT     H294602   1.960   3.138   6.797
31454WAT      O94603   8.660   2.808   7.492
31454WAT     H194604   8.663   2.868   7.572
31454WAT     H294605   8.719   2.845   7.420
31455WAT      O94606   0.913   3.315   2.894
31455WAT     H194607   0.889   3.315   2.797
31455WAT     H294608   1.010   3.340   2.903
31456WAT      O94609   1.391   0.272   0.958
31456WAT     H194610   1.299   0.299   0.930
31456WAT     H294611   1.457   0.338   0.922
31457WAT      O94612   3.846   3.501   6.784
31457WAT     H194613   3.798   3.483   6.698
31457WAT     H294614   3.927   3.556   6.766
31458WAT      O94615   1.139   3.199   3.981
31458WAT     H194616   1.125   3.212   3.882
31458WAT     H294617   1.177   3.108   3.997
31459WAT      O94618   0.637   3.183   8.625
31459WAT     H194619   0.667   3.230   8.542
31459WAT     H294620   0.705   3.195   8.697
31460WAT      O94621   1.694   2.109   0.746
31460WAT     H194622   1.764   2.170   0.783
31460WAT     H294623   1.732   2.017   0.733
31461WAT      O94624   9.851   0.832   9.781
31461WAT     H194625   9.935   0.779   9.764
31461WAT     H294626   9.823   0.878   9.697
31462WAT      O94627   7.390   0.231   2.851
31462WAT     H194628   7.398   0.220   2.950
31462WAT     H294629   7.333   0.158   2.814
31463WAT      O94630   7.309   0.494   5.524
31463WAT     H194631   7.234   0.468   5.463
31463WAT     H294632   7.373   0.417   5.532
31464WAT      O94633   2.884   4.541   7.654
31464WAT     H194634   2.812   4.535   7.585
31464WAT     H294635   2.973   4.552   7.609
31465WAT      O94636   9.636   7.998   9.232
31465WAT     H194637   9.661   8.030   9.323
31465WAT     H294638   9.561   7.932   9.239
31466WAT      O94639   4.373   9.223   6.629
31466WAT     H194640   4.367   9.312   6.675
31466WAT     H294641   4.281   9.194   6.600
31467WAT      O94642   8.586   9.049   8.833
31467WAT     H194643   8.675   9.021   8.797
31467WAT     H294644   8.581   9.148   8.836
31468WAT      O94645   8.556   9.830   9.269
31468WAT     H194646   8.471   9.778   9.266
31468WAT     H294647   8.592   9.841   9.177
31469WAT      O94648   8.647   8.010   0.761
31469WAT     H194649   8.698   7.942   0.815
31469WAT     H294650   8.559   8.028   0.806
31470WAT      O94651   9.707   7.274   5.536
31470WAT     H194652   9.679   7.370   5.541
31470WAT     H294653   9.629   7.218   5.506
31471WAT      O94654   7.223   0.784   6.186
31471WAT     H194655   7.297   0.777   6.253
31471WAT     H294656   7.157   0.854   6.215
31472WAT      O94657   3.111   1.402   4.615
31472WAT     H194658   3.013   1.385   4.627
31472WAT     H294659   3.159   1.381   4.700
31473WAT      O94660   0.528   8.454   1.720
31473WAT     H194661   0.453   8.395   1.689
31473WAT     H294662   0.590   8.402   1.779
31474WAT      O94663   1.865   6.152   8.054
31474WAT     H194664   1.831   6.187   8.142
31474WAT     H294665   1.795   6.097   8.011
31475WAT      O94666   4.906   0.738   6.548
31475WAT     H194667   4.865   0.647   6.537
31475WAT     H294668   5.003   0.733   6.526
31476WAT      O94669   0.961   1.922   2.516
31476WAT     H194670   0.873   1.956   2.548
31476WAT     H294671   1.032   1.991   2.534
31477WAT      O94672   7.143   5.522   3.157
31477WAT     H194673   7.112   5.607   3.113
31477WAT     H294674   7.184   5.463   3.088
31478WAT      O94675   2.926   4.651   5.627
31478WAT     H194676   2.830   4.648   5.656
31478WAT     H294677   2.960   4.745   5.638
31479WAT      O94678   8.477   0.706   4.711
31479WAT     H194679   8.488   0.732   4.615
31479WAT     H294680   8.567   0.690   4.752
31480WAT      O94681   6.703   3.415   3.157
31480WAT     H194682   6.704   3.481   3.081
31480WAT     H294683   6.611   3.407   3.193
31481WAT      O94684   8.995   1.719   3.952
31481WAT     H194685   8.903   1.729   3.914
31481WAT     H294686   9.049   1.659   3.893
31482WAT      O94687   3.548   0.622   1.427
31482WAT     H194688   3.592   0.594   1.341
31482WAT     H294689   3.536   0.541   1.485
31483WAT      O94690   1.985   1.712   2.090
31483WAT     H194691   1.941   1.703   2.001
31483WAT     H294692   1.995   1.622   2.132
31484WAT      O94693   8.592   8.817   1.665
31484WAT     H194694   8.520   8.774   1.610
31484WAT     H294695   8.679   8.771   1.648
31485WAT      O94696   7.679   9.384   2.441
31485WAT     H194697   7.771   9.372   2.479
31485WAT     H294698   7.615   9.407   2.514
31486WAT      O94699   8.012   1.083   8.390
31486WAT     H194700   7.950   1.150   8.351
31486WAT     H294701   8.081   1.130   8.445
31487WAT      O94702   5.666   0.668   7.745
31487WAT     H194703   5.712   0.704   7.826
31487WAT     H294704   5.708   0.581   7.719
31488WAT      O94705   5.414   8.574   9.006
31488WAT     H194706   5.477   8.498   8.988
31488WAT     H294707   5.387   8.616   8.919
31489WAT      O94708   4.417   8.315   3.562
31489WAT     H194709   4.483   8.354   3.627
31489WAT     H294710   4.324   8.334   3.593
31490WAT      O94711   3.552   1.582   5.367
31490WAT     H194712   3.635   1.528   5.354
31490WAT     H294713   3.557   1.631   5.454
31491WAT      O94714   2.398   2.150   3.761
31491WAT     H194715   2.423   2.055   3.782
31491WAT     H294716   2.352   2.191   3.840
31492WAT      O94717   9.519   9.555   5.262
31492WAT     H194718   9.537   9.560   5.360
31492WAT     H294719   9.601   9.521   5.215
31493WAT      O94720   9.867   3.308   7.900
31493WAT     H194721   9.782   3.349   7.932
31493WAT     H294722   9.914   3.372   7.839
31494WAT      O94723   8.168   3.840   1.138
31494WAT     H194724   8.184   3.937   1.119
31494WAT     H294725   8.073   3.827   1.167
31495WAT      O94726   4.504   0.150   7.747
31495WAT     H194727   4.477   0.054   7.755
31495WAT     H294728   4.446   0.206   7.806
31496WAT      O94729   2.980   8.918   2.435
31496WAT     H194730   2.933   8.930   2.523
31496WAT     H294731   2.947   8.986   2.370
31497WAT      O94732   8.578   4.372   4.052
31497WAT     H194733   8.646   4.436   4.017
31497WAT     H294734   8.599   4.349   4.147
31498WAT      O94735   7.922   6.055   7.025
31498WAT     H194736   7.886   6.060   7.118
31498WAT     H294737   7.955   5.962   7.008
31499WAT      O94738   3.750   3.474   2.606
31499WAT     H194739   3.686   3.462   2.530
31499WAT     H294740   3.707   3.444   2.691
31500WAT      O94741   3.424   6.184   7.476
31500WAT     H194742   3.499   6.189   7.542
31500WAT     H294743   3.432   6.258   7.410
31501WAT      O94744   0.376   9.788   6.879
31501WAT     H194745   0.329   9.841   6.949
31501WAT     H294746   0.440   9.847   6.830
31502WAT      O94747   8.517   6.527   4.692
31502WAT     H194748   8.455   6.603   4.672
31502WAT     H294749   8.474   6.466   4.759
31503WAT      O94750   9.042   3.645   1.049
31503WAT     H194751   9.019   3.736   1.016
31503WAT     H294752   9.108   3.602   0.987
31504WAT      O94753   0.773   2.891   3.225
31504WAT     H194754   0.868   2.899   3.196
31504WAT     H294755   0.759   2.805   3.274
31505WAT      O94756   4.404   9.036   9.730
31505WAT     H194757   4.305   9.034   9.745
31505WAT     H294758   4.444   9.115   9.776
31506WAT      O94759   1.712   1.803   4.589
31506WAT     H194760   1.725   1.895   4.626
31506WAT     H294761   1.766   1.793   4.505
31507WAT      O94762   3.886   4.039   2.653
31507WAT     H194763   3.949   3.977   2.700
31507WAT     H294764   3.818   3.985   2.603
31508WAT      O94765   2.847   6.293   2.805
31508WAT     H194766   2.941   6.323   2.787
31508WAT     H294767   2.785   6.370   2.797
31509WAT      O94768   2.327   0.244   8.125
31509WAT     H194769   2.389   0.215   8.198
31509WAT     H294770   2.289   0.164   8.079
31510WAT      O94771   4.597   2.463   4.277
31510WAT     H194772   4.576   2.506   4.365
31510WAT     H294773   4.646   2.528   4.219
31511WAT      O94774   6.640   9.623   4.639
31511WAT     H194775   6.591   9.537   4.625
31511WAT     H294776   6.647   9.672   4.552
31512WAT      O94777   5.082   6.409   0.502
31512WAT     H194778   4.986   6.423   0.479
31512WAT     H294779   5.108   6.471   0.576
31513WAT      O94780   1.180   1.588   5.230
31513WAT     H194781   1.084   1.566   5.247
31513WAT     H294782   1.238   1.532   5.289
31514WAT      O94783   4.206   4.876   1.632
31514WAT     H194784   4.158   4.839   1.711
31514WAT     H294785   4.204   4.976   1.635
31515WAT      O94786   1.573   0.645   1.644
31515WAT     H194787   1.654   0.654   1.702
31515WAT     H294788   1.602   0.636   1.549
31516WAT      O94789   1.510   8.332   8.403
31516WAT     H194790   1.584   8.397   8.422
31516WAT     H294791   1.518   8.300   8.309
31517WAT      O94792   3.092   5.552   7.037
31517WAT     H194793   3.039   5.551   6.952
31517WAT     H294794   3.069   5.633   7.090
31518WAT      O94795   2.790   1.872   6.095
31518WAT     H194796   2.747   1.947   6.046
31518WAT     H294797   2.874   1.904   6.139
31519WAT      O94798   4.778   7.301   8.168
31519WAT     H194799   4.692   7.289   8.119
31519WAT     H294800   4.779   7.242   8.248
31520WAT      O94801   7.184   5.858   1.576
31520WAT     H194802   7.168   5.928   1.646
31520WAT     H294803   7.216   5.902   1.492
31521WAT      O94804   7.654   7.225   1.643
31521WAT     H194805   7.698   7.212   1.554
31521WAT     H294806   7.712   7.185   1.715
31522WAT      O94807   6.472   8.528   2.494
31522WAT     H194808   6.554   8.474   2.514
31522WAT     H294809   6.498   8.607   2.438
31523WAT      O94810   0.042   4.787   2.036
31523WAT     H194811   0.112   4.774   1.966
31523WAT     H294812   0.083   4.830   2.116
31524WAT      O94813   5.551   4.926   4.844
31524WAT     H194814   5.591   4.914   4.753
31524WAT     H294815   5.509   4.841   4.874
31525WAT      O94816   4.626   3.288   9.592
31525WAT     H194817   4.597   3.381   9.615
31525WAT     H294818   4.638   3.235   9.676
31526WAT      O94819   8.524   0.575   1.255
31526WAT     H194820   8.512   0.587   1.156
31526WAT     H294821   8.546   0.480   1.274
31527WAT      O94822   3.320   3.723   2.160
31527WAT     H194823   3.298   3.674   2.076
31527WAT     H294824   3.414   3.756   2.157
31528WAT      O94825   3.103   5.690   0.891
31528WAT     H194826   3.019   5.719   0.937
31528WAT     H294827   3.163   5.645   0.957
31529WAT      O94828   7.043   8.905   5.716
31529WAT     H194829   7.065   8.850   5.796
31529WAT     H294830   6.995   8.988   5.745
31530WAT      O94831   5.145   1.020   1.234
31530WAT     H194832   5.147   1.035   1.135
31530WAT     H294833   5.143   1.108   1.281
31531WAT      O94834   5.884   8.424   3.348
31531WAT     H194835   5.793   8.384   3.351
31531WAT     H294836   5.945   8.364   3.296
31532WAT      O94837   4.562   0.021   1.638
31532WAT     H194838   4.502  -0.017   1.568
31532WAT     H294839   4.514   0.021   1.726
31533WAT      O94840   7.467   7.736   6.180
31533WAT     H194841   7.384   7.788   6.166
31533WAT     H294842   7.543   7.779   6.131
31534WAT      O94843   5.950   6.888   0.885
31534WAT     H194844   5.949   6.987   0.899
31534WAT     H294845   6.044   6.854   0.890
31535WAT      O94846   6.165   0.620   3.141
31535WAT     H194847   6.118   0.707   3.125
31535WAT     H294848   6.113   0.546   3.098
31536WAT      O94849   1.009   2.024   8.435
31536WAT     H194850   1.003   2.049   8.339
31536WAT     H294851   0.918   2.026   8.477
31537WAT      O94852   2.865   2.618   4.811
31537WAT     H194853   2.784   2.673   4.832
31537WAT     H294854   2.839   2.522   4.801
31538WAT      O94855   7.786   5.392   4.153
31538WAT     H194856   7.848   5.470   4.153
31538WAT     H294857   7.744   5.383   4.244
31539WAT      O94858   5.358   9.046   6.195
31539WAT     H194859   5.452   9.024   6.219
31539WAT     H294860   5.334   9.002   6.108
31540WAT      O94861   3.572   6.761   5.289
31540WAT     H194862   3.583   6.841   5.230
31540WAT     H294863   3.618   6.683   5.247
31541WAT      O94864   8.978   7.069   5.595
31541WAT     H194865   8.898   7.127   5.610
31541WAT     H294866   8.964   6.980   5.638
31542WAT      O94867   4.924   3.685   5.839
31542WAT     H194868   4.968   3.758   5.788
31542WAT     H294869   4.903   3.717   5.932
31543WAT      O94870   8.652   3.691   9.013
31543WAT     H194871   8.606   3.659   8.930
31543WAT     H294872   8.632   3.788   9.026
31544WAT      O94873   2.980   7.516   9.226
31544WAT     H194874   3.050   7.468   9.171
31544WAT     H294875   2.994   7.496   9.323
31545WAT      O94876   9.325   4.611   3.898
31545WAT     H194877   9.353   4.620   3.994
31545WAT     H294878   9.406   4.611   3.840
31546WAT      O94879   8.915   2.491   3.326
31546WAT     H194880   9.003   2.484   3.373
31546WAT     H294881   8.851   2.425   3.364
31547WAT      O94882   8.542   1.511   6.423
31547WAT     H194883   8.638   1.489   6.444
31547WAT     H294884   8.537   1.606   6.390
31548WAT      O94885   5.613   8.590   3.050
31548WAT     H194886   5.631   8.535   3.132
31548WAT     H294887   5.683   8.571   2.982
31549WAT      O94888   5.669   8.891   4.205
31549WAT     H194889   5.762   8.884   4.171
31549WAT     H294890   5.610   8.826   4.156
31550WAT      O94891   3.751   9.427   7.453
31550WAT     H194892   3.802   9.394   7.533
31550WAT     H294893   3.793   9.511   7.419
31551WAT      O94894   4.063   4.742   7.090
31551WAT     H194895   4.088   4.708   7.000
31551WAT     H294896   4.117   4.824   7.111
31552WAT      O94897   6.601   6.902   6.042
31552WAT     H194898   6.597   6.981   5.980
31552WAT     H294899   6.592   6.818   5.989
31553WAT      O94900   3.595   8.313   3.467
31553WAT     H194901   3.659   8.314   3.391
31553WAT     H294902   3.580   8.219   3.497
31554WAT      O94903   6.617   6.690   8.604
31554WAT     H194904   6.540   6.650   8.554
31554WAT     H294905   6.584   6.733   8.687
31555WAT      O94906   4.424   0.976   9.552
31555WAT     H194907   4.414   0.877   9.554
31555WAT     H294908   4.391   1.011   9.464
31556WAT      O94909   2.359   3.884   2.255
31556WAT     H194910   2.456   3.866   2.269
31556WAT     H294911   2.334   3.969   2.301
31557WAT      O94912   3.169   0.138   1.384
31557WAT     H194913   3.215   0.226   1.394
31557WAT     H294914   3.073   0.146   1.411
31558WAT      O94915   7.120   3.762   2.926
31558WAT     H194916   7.045   3.732   2.985
31558WAT     H294917   7.108   3.858   2.902
31559WAT      O94918   2.428   9.402   3.929
31559WAT     H194919   2.385   9.398   3.839
31559WAT     H294920   2.379   9.342   3.992
31560WAT      O94921   5.529   6.124   1.738
31560WAT     H194922   5.482   6.133   1.826
31560WAT     H294923   5.618   6.170   1.742
31561WAT      O94924   3.313   1.855   4.539
31561WAT     H194925   3.347   1.858   4.633
31561WAT     H294926   3.227   1.803   4.536
31562WAT      O94927   7.182   8.661   8.645
31562WAT     H194928   7.189   8.591   8.716
31562WAT     H294929   7.209   8.750   8.684
31563WAT      O94930   5.097   8.563   4.106
31563WAT     H194931   5.001   8.591   4.099
31563WAT     H294932   5.103   8.463   4.103
31564WAT      O94933   3.432   7.346   9.767
31564WAT     H194934   3.515   7.359   9.820
31564WAT     H294935   3.352   7.365   9.824
31565WAT      O94936   2.889   0.861   9.693
31565WAT     H194937   2.852   0.790   9.752
31565WAT     H294938   2.869   0.838   9.597
31566WAT      O94939   6.303   8.984   0.244
31566WAT     H194940   6.359   9.064   0.222
31566WAT     H294941   6.207   9.007   0.234
31567WAT      O94942   8.626   6.514   9.493
31567WAT     H194943   8.574   6.435   9.524
31567WAT     H294944   8.724   6.493   9.497
31568WAT      O94945   2.944   6.981   1.285
31568WAT     H194946   2.862   6.978   1.343
31568WAT     H294947   2.924   7.032   1.201
31569WAT      O94948   1.091   7.987   5.077
31569WAT     H194949   1.064   7.974   4.982
31569WAT     H294950   1.169   7.927   5.097
31570WAT      O94951   7.493   3.461   6.901
31570WAT     H194952   7.551   3.513   6.839
31570WAT     H294953   7.480   3.512   6.987
31571WAT      O94954   6.329   5.846   0.543
31571WAT     H194955   6.289   5.922   0.596
31571WAT     H294956   6.339   5.874   0.448
31572WAT      O94957   8.702   5.186   8.596
31572WAT     H194958   8.689   5.225   8.505
31572WAT     H294959   8.631   5.220   8.657
31573WAT      O94960   7.920   2.661   7.457
31573WAT     H194961   7.851   2.628   7.391
31573WAT     H294962   7.893   2.751   7.491
31574WAT      O94963   3.129   6.180   8.702
31574WAT     H194964   3.154   6.263   8.752
31574WAT     H294965   3.049   6.199   8.644
31575WAT      O94966   2.154   5.629   5.825
31575WAT     H194967   2.191   5.541   5.796
31575WAT     H294968   2.188   5.651   5.917
31576WAT      O94969   7.670   6.763   2.737
31576WAT     H194970   7.680   6.706   2.655
31576WAT     H294971   7.591   6.823   2.727
31577WAT      O94972   0.086   7.765   4.172
31577WAT     H194973   0.123   7.685   4.220
31577WAT     H294974   0.018   7.810   4.229
31578WAT      O94975   1.027   0.158   6.510
31578WAT     H194976   1.068   0.125   6.425
31578WAT     H294977   0.982   0.083   6.558
31579WAT      O94978   2.124   4.365   6.537
31579WAT     H194979   2.206   4.419   6.518
31579WAT     H294980   2.112   4.357   6.635
31580WAT      O94981   1.153   6.748   0.018
31580WAT     H194982   1.248   6.761  -0.010
31580WAT     H294983   1.093   6.789  -0.051
31581WAT      O94984   7.739   9.511   9.175
31581WAT     H194985   7.816   9.556   9.221
31581WAT     H294986   7.771   9.426   9.132
31582WAT      O94987   2.219   7.192   7.061
31582WAT     H194988   2.241   7.203   6.964
31582WAT     H294989   2.277   7.253   7.115
31583WAT      O94990   1.573   1.341   2.345
31583WAT     H194991   1.592   1.439   2.334
31583WAT     H294992   1.477   1.324   2.322
31584WAT      O94993   4.650   8.632   5.988
31584WAT     H194994   4.622   8.715   6.037
31584WAT     H294995   4.748   8.616   6.004
31585WAT      O94996   0.684   9.812   3.021
31585WAT     H194997   0.699   9.819   3.120
31585WAT     H294998   0.591   9.842   2.999
31586WAT      O94999   1.315   4.250   0.556
31586WAT     H195000   1.392   4.266   0.494
31586WAT     H295001   1.234   4.223   0.504
31587WAT      O95002   7.589   4.582   6.757
31587WAT     H195003   7.615   4.640   6.679
31587WAT     H295004   7.489   4.584   6.769
31588WAT      O95005   1.098   4.146   5.415
31588WAT     H195006   1.001   4.145   5.393
31588WAT     H295007   1.126   4.056   5.447
31589WAT      O95008   4.403   4.435   5.349
31589WAT     H195009   4.442   4.514   5.397
31589WAT     H295010   4.336   4.391   5.408
31590WAT      O95011   5.770   0.881   6.417
31590WAT     H195012   5.825   0.859   6.498
31590WAT     H295013   5.694   0.816   6.410
31591WAT      O95014   3.958   8.948   9.542
31591WAT     H195015   4.032   8.917   9.601
31591WAT     H295016   3.880   8.975   9.597
31592WAT      O95017   5.821   6.675   9.078
31592WAT     H195018   5.843   6.769   9.105
31592WAT     H295019   5.884   6.645   9.007
31593WAT      O95020   2.449   3.093   2.027
31593WAT     H195021   2.514   3.103   2.103
31593WAT     H295022   2.478   3.016   1.969
31594WAT      O95023   9.249   3.188   0.922
31594WAT     H195024   9.269   3.284   0.942
31594WAT     H295025   9.300   3.130   0.986
31595WAT      O95026   0.887   1.973   7.683
31595WAT     H195027   0.895   1.886   7.731
31595WAT     H295028   0.968   1.988   7.626
31596WAT      O95029   7.793   1.877   2.731
31596WAT     H195030   7.809   1.958   2.788
31596WAT     H295031   7.842   1.799   2.769
31597WAT      O95032   2.614   7.615   1.401
31597WAT     H195033   2.612   7.516   1.389
31597WAT     H295034   2.698   7.652   1.360
31598WAT      O95035   7.199   5.550   7.957
31598WAT     H195036   7.189   5.532   7.859
31598WAT     H295037   7.190   5.465   8.008
31599WAT      O95038   0.736   9.311   9.669
31599WAT     H195039   0.705   9.301   9.575
31599WAT     H295040   0.836   9.302   9.673
31600WAT      O95041   4.000   5.286   1.863
31600WAT     H195042   4.036   5.318   1.951
31600WAT     H295043   3.901   5.272   1.871
31601WAT      O95044   4.128   2.618   1.768
31601WAT     H195045   4.191   2.686   1.731
31601WAT     H295046   4.035   2.653   1.764
31602WAT      O95047   0.628   5.431   9.562
31602WAT     H195048   0.535   5.467   9.551
31602WAT     H295049   0.643   5.408   9.658
31603WAT      O95050   7.612   3.628   6.002
31603WAT     H195051   7.680   3.605   5.933
31603WAT     H295052   7.604   3.553   6.068
31604WAT      O95053   0.981   6.576   6.549
31604WAT     H195054   1.017   6.506   6.611
31604WAT     H295055   1.058   6.629   6.511
31605WAT      O95056   1.300   6.659   9.524
31605WAT     H195057   1.201   6.663   9.509
31605WAT     H295058   1.348   6.687   9.440
31606WAT      O95059   5.705   3.644   0.642
31606WAT     H195060   5.641   3.698   0.587
31606WAT     H295061   5.768   3.705   0.689
31607WAT      O95062   3.448   7.307   6.073
31607WAT     H195063   3.545   7.329   6.062
31607WAT     H295064   3.412   7.355   6.153
31608WAT      O95065   8.715   6.348   8.654
31608WAT     H195066   8.755   6.262   8.685
31608WAT     H295067   8.710   6.413   8.730
31609WAT      O95068   6.407   4.396   5.017
31609WAT     H195069   6.369   4.489   5.010
31609WAT     H295070   6.337   4.329   4.991
31610WAT      O95071   1.416   4.039   7.054
31610WAT     H195072   1.356   4.011   7.129
31610WAT     H295073   1.510   4.014   7.075
31611WAT      O95074   2.506   2.216   6.721
31611WAT     H195075   2.412   2.201   6.753
31611WAT     H295076   2.530   2.144   6.656
31612WAT      O95077   8.124   7.205   7.609
31612WAT     H195078   8.164   7.122   7.569
31612WAT     H295079   8.073   7.254   7.538
31613WAT      O95080   8.463   5.505   6.552
31613WAT     H195081   8.426   5.467   6.636
31613WAT     H295082   8.406   5.477   6.475
31614WAT      O95083   7.806   9.530   7.905
31614WAT     H195084   7.795   9.592   7.828
31614WAT     H295085   7.822   9.583   7.988
31615WAT      O95086   8.325   3.387   7.694
31615WAT     H195087   8.400   3.330   7.658
31615WAT     H295088   8.291   3.447   7.622
31616WAT      O95089   0.656   2.156   0.710
31616WAT     H195090   0.686   2.187   0.800
31616WAT     H295091   0.562   2.185   0.694
31617WAT      O95092   5.918   1.176   6.626
31617WAT     H195093   5.967   1.166   6.539
31617WAT     H295094   5.979   1.220   6.693
31618WAT      O95095   6.197   2.554   1.350
31618WAT     H195096   6.223   2.480   1.412
31618WAT     H295097   6.274   2.616   1.338
31619WAT      O95098   8.562   5.995   0.987
31619WAT     H195099   8.644   6.052   0.978
31619WAT     H295100   8.481   6.051   0.967
31620WAT      O95101   7.143   9.736   2.021
31620WAT     H195102   7.157   9.700   1.929
31620WAT     H295103   7.072   9.684   2.067
31621WAT      O95104   4.514   8.969   7.952
31621WAT     H195105   4.548   9.056   7.914
31621WAT     H295106   4.505   8.902   7.878
31622WAT      O95107   3.352   6.825   7.137
31622WAT     H195108   3.253   6.843   7.138
31622WAT     H295109   3.394   6.870   7.215
31623WAT      O95110   8.479   4.222   7.597
31623WAT     H195111   8.555   4.286   7.600
31623WAT     H295112   8.471   4.181   7.506
31624WAT      O95113   2.906   0.590   5.110
31624WAT     H195114   2.870   0.497   5.111
31624WAT     H295115   2.843   0.650   5.158
31625WAT      O95116   5.431   2.120   6.722
31625WAT     H195117   5.490   2.056   6.674
31625WAT     H295118   5.340   2.119   6.681
31626WAT      O95119   1.873   0.947   0.143
31626WAT     H195120   1.804   0.977   0.078
31626WAT     H295121   1.954   0.915   0.094
31627WAT      O95122   4.921   9.819   7.547
31627WAT     H195123   4.924   9.811   7.448
31627WAT     H295124   5.013   9.839   7.582
31628WAT      O95125   4.167   2.270   5.448
31628WAT     H195126   4.238   2.235   5.388
31628WAT     H295127   4.081   2.279   5.397
31629WAT      O95128   0.632   9.097   9.812
31629WAT     H195129   0.607   9.125   9.904
31629WAT     H295130   0.675   9.174   9.764
31630WAT      O95131   5.801   3.100   2.032
31630WAT     H195132   5.759   3.043   2.102
31630WAT     H295133   5.732   3.122   1.962
31631WAT      O95134   6.862   9.044   8.018
31631WAT     H195135   6.784   8.987   8.042
31631WAT     H295136   6.832   9.121   7.963
31632WAT      O95137   1.047   0.725   8.096
31632WAT     H195138   0.954   0.717   8.061
31632WAT     H295139   1.107   0.761   8.025
31633WAT      O95140   8.277   6.393   8.437
31633WAT     H195141   8.348   6.357   8.497
31633WAT     H295142   8.252   6.486   8.466
31634WAT      O95143   0.818   2.382   7.916
31634WAT     H195144   0.839   2.479   7.907
31634WAT     H295145   0.894   2.335   7.960
31635WAT      O95146   1.981   9.593   9.010
31635WAT     H195147   1.976   9.678   9.062
31635WAT     H295148   1.897   9.541   9.022
31636WAT      O95149   7.218   5.478   8.814
31636WAT     H195150   7.120   5.463   8.810
31636WAT     H295151   7.259   5.412   8.877
31637WAT      O95152   8.999   3.941   3.797
31637WAT     H195153   8.927   3.876   3.822
31637WAT     H295154   8.962   4.009   3.734
31638WAT      O95155   4.455   9.843   0.218
31638WAT     H195156   4.520   9.771   0.240
31638WAT     H295157   4.495   9.906   0.152
31639WAT      O95158   0.146   8.182   0.296
31639WAT     H195159   0.101   8.175   0.385
31639WAT     H295160   0.205   8.103   0.282
31640WAT      O95161   0.687   8.090   4.124
31640WAT     H195162   0.607   8.131   4.168
31640WAT     H295163   0.756   8.161   4.107
31641WAT      O95164   5.486   1.040   6.352
31641WAT     H195165   5.558   1.052   6.420
31641WAT     H295166   5.512   0.968   6.289
31642WAT      O95167   1.823   5.157   5.568
31642WAT     H195168   1.762   5.235   5.554
31642WAT     H295169   1.812   5.093   5.493
31643WAT      O95170   2.605   7.953   4.364
31643WAT     H195171   2.641   7.992   4.448
31643WAT     H295172   2.540   7.880   4.387
31644WAT      O95173   8.259   4.881   3.059
31644WAT     H195174   8.237   4.920   3.148
31644WAT     H295175   8.188   4.815   3.034
31645WAT      O95176   0.857   3.644   8.499
31645WAT     H195177   0.792   3.714   8.471
31645WAT     H295178   0.933   3.687   8.549
31646WAT      O95179   7.697   0.172   4.706
31646WAT     H195180   7.795   0.175   4.689
31646WAT     H295181   7.651   0.122   4.633
31647WAT      O95182   9.257   1.082   5.444
31647WAT     H195183   9.258   1.138   5.527
31647WAT     H295184   9.298   1.134   5.369
31648WAT      O95185   4.690   0.478   1.163
31648WAT     H195186   4.751   0.536   1.218
31648WAT     H295187   4.705   0.382   1.189
31649WAT      O95188   6.083   1.829   7.503
31649WAT     H195189   6.113   1.921   7.530
31649WAT     H295190   6.076   1.771   7.585
31650WAT      O95191   4.986   4.516   4.990
31650WAT     H195192   5.046   4.442   5.019
31650WAT     H295193   4.959   4.503   4.894
31651WAT      O95194   4.095   8.207   5.083
31651WAT     H195195   4.195   8.206   5.086
31651WAT     H295196   4.059   8.118   5.112
31652WAT      O95197   4.693   0.843   3.228
31652WAT     H195198   4.663   0.770   3.290
31652WAT     H295199   4.740   0.914   3.280
31653WAT      O95200   1.396   3.967   9.388
31653WAT     H195201   1.297   3.968   9.378
31653WAT     H295202   1.431   3.877   9.363
31654WAT      O95203   2.361   8.751   0.809
31654WAT     H195204   2.400   8.790   0.726
31654WAT     H295205   2.276   8.703   0.787
31655WAT      O95206   8.378   9.298   8.145
31655WAT     H195207   8.424   9.383   8.170
31655WAT     H295208   8.372   9.238   8.224
31656WAT      O95209   5.264   2.635   3.907
31656WAT     H195210   5.181   2.652   3.960
31656WAT     H295211   5.305   2.723   3.882
31657WAT      O95212   9.026   0.941   3.766
31657WAT     H195213   9.010   0.848   3.731
31657WAT     H295214   9.114   0.944   3.813
31658WAT      O95215   9.829   4.456   8.400
31658WAT     H195216   9.854   4.374   8.349
31658WAT     H295217   9.733   4.450   8.427
31659WAT      O95218   0.134   6.761   1.925
31659WAT     H195219   0.049   6.709   1.926
31659WAT     H295220   0.205   6.709   1.877
31660WAT      O95221   2.513   1.149   4.280
31660WAT     H195222   2.505   1.196   4.192
31660WAT     H295223   2.474   1.057   4.273
31661WAT      O95224   9.007   3.377   8.356
31661WAT     H195225   8.943   3.434   8.304
31661WAT     H295226   8.971   3.284   8.362
31662WAT      O95227   2.932   5.291   3.383
31662WAT     H195228   2.932   5.378   3.432
31662WAT     H295229   3.024   5.274   3.347
31663WAT      O95230   0.518   9.214   8.230
31663WAT     H195231   0.594   9.220   8.167
31663WAT     H295232   0.433   9.241   8.184
31664WAT      O95233   0.249   6.843   3.610
31664WAT     H195234   0.222   6.939   3.606
31664WAT     H295235   0.167   6.785   3.615
31665WAT      O95236   8.532   1.895   7.783
31665WAT     H195237   8.467   1.919   7.855
31665WAT     H295238   8.562   1.801   7.796
31666WAT      O95239   3.584   3.896   6.861
31666WAT     H195240   3.503   3.868   6.810
31666WAT     H295241   3.566   3.985   6.905
31667WAT      O95242   6.765   8.302   8.822
31667WAT     H195243   6.795   8.291   8.917
31667WAT     H295244   6.706   8.226   8.796
31668WAT      O95245   9.777   4.136   1.362
31668WAT     H195246   9.842   4.207   1.392
31668WAT     H295247   9.819   4.046   1.373
31669WAT      O95248   8.742   0.446   1.081
31669WAT     H195249   8.741   0.379   1.156
31669WAT     H295250   8.737   0.398   0.993
31670WAT      O95251   4.878   7.530   5.979
31670WAT     H195252   4.952   7.544   6.044
31670WAT     H295253   4.827   7.615   5.967
31671WAT      O95254   4.571   4.665   5.181
31671WAT     H195255   4.636   4.658   5.258
31671WAT     H295256   4.491   4.717   5.209
31672WAT      O95257   2.687   0.113   1.268
31672WAT     H195258   2.779   0.076   1.280
31672WAT     H295259   2.684   0.207   1.302
31673WAT      O95260   2.298   7.561   3.685
31673WAT     H195261   2.331   7.519   3.600
31673WAT     H295262   2.318   7.500   3.762
31674WAT      O95263   6.726   1.582   6.109
31674WAT     H195264   6.657   1.512   6.093
31674WAT     H295265   6.794   1.579   6.036
31675WAT      O95266   5.775   2.449   0.950
31675WAT     H195267   5.737   2.369   0.998
31675WAT     H295268   5.858   2.479   0.997
31676WAT      O95269   0.018   0.557   0.165
31676WAT     H195270   0.075   0.636   0.145
31676WAT     H295271   0.040   0.523   0.257
31677WAT      O95272   7.572   3.993   5.473
31677WAT     H195273   7.502   4.062   5.494
31677WAT     H295274   7.565   3.966   5.377
31678WAT      O95275   3.332   0.340   5.242
31678WAT     H195276   3.264   0.413   5.248
31678WAT     H295277   3.398   0.349   5.316
31679WAT      O95278   5.979   4.670   3.611
31679WAT     H195279   5.947   4.686   3.705
31679WAT     H295280   6.043   4.742   3.586
31680WAT      O95281   9.206   5.500   4.252
31680WAT     H195282   9.253   5.412   4.262
31680WAT     H295283   9.112   5.491   4.283
31681WAT      O95284   8.976   7.747   3.051
31681WAT     H195285   8.932   7.658   3.046
31681WAT     H295286   8.957   7.789   3.140
31682WAT      O95287   1.990   7.038   1.807
31682WAT     H195288   1.967   6.987   1.724
31682WAT     H295289   2.058   7.109   1.784
31683WAT      O95290   7.658   7.551   3.355
31683WAT     H195291   7.629   7.634   3.403
31683WAT     H295292   7.709   7.492   3.418
31684WAT      O95293   8.441   9.818   8.910
31684WAT     H195294   8.523   9.800   8.964
31684WAT     H295295   8.463   9.816   8.813
31685WAT      O95296   4.196   1.651   2.026
31685WAT     H195297   4.120   1.673   1.965
31685WAT     H295298   4.250   1.734   2.043
31686WAT      O95299   4.181   9.821   7.534
31686WAT     H195300   4.164   9.915   7.565
31686WAT     H295301   4.278   9.810   7.514
31687WAT      O95302   7.894   3.388   9.833
31687WAT     H195303   7.922   3.312   9.893
31687WAT     H295304   7.831   3.448   9.883
31688WAT      O95305   7.777   3.012   4.050
31688WAT     H195306   7.779   3.019   4.149
31688WAT     H295307   7.700   3.063   4.014
31689WAT      O95308   1.268   0.243   3.740
31689WAT     H195309   1.193   0.310   3.738
31689WAT     H295310   1.343   0.276   3.683
31690WAT      O95311   2.132   5.595   7.861
31690WAT     H195312   2.161   5.509   7.820
31690WAT     H295313   2.094   5.577   7.952
31691WAT      O95314   4.886   2.893   6.408
31691WAT     H195315   4.919   2.882   6.502
31691WAT     H295316   4.964   2.908   6.347
31692WAT      O95317   5.633   8.968   3.304
31692WAT     H195318   5.548   8.915   3.313
31692WAT     H295319   5.615   9.050   3.250
31693WAT      O95320   1.318   6.262   6.987
31693WAT     H195321   1.406   6.226   7.017
31693WAT     H295322   1.259   6.278   7.066
31694WAT      O95323   2.218   4.821   7.644
31694WAT     H195324   2.150   4.768   7.694
31694WAT     H295325   2.307   4.776   7.650
31695WAT      O95326   7.685   9.528   3.079
31695WAT     H195327   7.593   9.508   3.046
31695WAT     H295328   7.683   9.541   3.178
31696WAT      O95329   3.888   9.734   2.741
31696WAT     H195330   3.841   9.652   2.708
31696WAT     H295331   3.987   9.717   2.741
31697WAT      O95332   6.261   8.625   1.896
31697WAT     H195333   6.248   8.723   1.915
31697WAT     H295334   6.277   8.576   1.982
31698WAT      O95335   0.051   7.701   6.613
31698WAT     H195336   0.066   7.745   6.701
31698WAT     H295337  -0.045   7.709   6.587
31699WAT      O95338   9.744   8.507   3.506
31699WAT     H195339   9.733   8.452   3.423
31699WAT     H295340   9.826   8.478   3.555
31700WAT      O95341   0.475   8.805   6.696
31700WAT     H195342   0.494   8.734   6.763
31700WAT     H295343   0.384   8.792   6.657
31701WAT      O95344   0.657   6.827   5.629
31701WAT     H195345   0.715   6.863   5.701
31701WAT     H295346   0.574   6.789   5.669
31702WAT      O95347   2.718   9.772   0.741
31702WAT     H195348   2.627   9.760   0.702
31702WAT     H295349   2.712   9.771   0.841
31703WAT      O95350   7.632   0.049   7.888
31703WAT     H195351   7.640   0.056   7.789
31703WAT     H295352   7.621   0.141   7.927
31704WAT      O95353   2.037   8.349   7.581
31704WAT     H195354   1.989   8.313   7.500
31704WAT     H295355   2.030   8.283   7.656
31705WAT      O95356   6.481   4.187   3.923
31705WAT     H195357   6.437   4.259   3.977
31705WAT     H295358   6.518   4.117   3.984
31706WAT      O95359   4.526   6.838   7.614
31706WAT     H195360   4.495   6.752   7.572
31706WAT     H295361   4.609   6.820   7.667
31707WAT      O95362   0.678   4.049   4.471
31707WAT     H195363   0.725   4.131   4.439
31707WAT     H295364   0.731   4.008   4.546
31708WAT      O95365   1.099   5.591   2.298
31708WAT     H195366   1.025   5.530   2.324
31708WAT     H295367   1.071   5.686   2.312
31709WAT      O95368   2.286   8.672   9.656
31709WAT     H195369   2.342   8.755   9.664
31709WAT     H295370   2.270   8.634   9.747
31710WAT      O95371   4.186   6.177   4.195
31710WAT     H195372   4.215   6.168   4.099
31710WAT     H295373   4.172   6.274   4.216
31711WAT      O95374   7.756   8.878   2.166
31711WAT     H195375   7.833   8.850   2.109
31711WAT     H295376   7.728   8.970   2.141
31712WAT      O95377   2.032   5.744   7.672
31712WAT     H195378   2.036   5.837   7.706
31712WAT     H295379   2.076   5.682   7.737
31713WAT      O95380   4.657   7.405   6.398
31713WAT     H195381   4.619   7.489   6.436
31713WAT     H295382   4.584   7.337   6.388
31714WAT      O95383   4.140   2.565   5.189
31714WAT     H195384   4.074   2.568   5.114
31714WAT     H295385   4.122   2.641   5.252
31715WAT      O95386   2.070   1.825   0.951
31715WAT     H195387   2.167   1.825   0.975
31715WAT     H295388   2.029   1.913   0.976
31716WAT      O95389   5.741   0.182   4.148
31716WAT     H195390   5.696   0.202   4.235
31716WAT     H295391   5.779   0.267   4.110
31717WAT      O95392   5.726   0.512   9.219
31717WAT     H195393   5.681   0.570   9.285
31717WAT     H295394   5.692   0.418   9.228
31718WAT      O95395   5.275   7.394   1.929
31718WAT     H195396   5.270   7.458   1.852
31718WAT     H295397   5.195   7.407   1.988
31719WAT      O95398   3.957   3.434   9.505
31719WAT     H195399   3.917   3.512   9.553
31719WAT     H295400   3.930   3.435   9.409
31720WAT      O95401   1.435   9.738   9.041
31720WAT     H195402   1.421   9.668   8.971
31720WAT     H295403   1.460   9.824   8.997
31721WAT      O95404   7.500   6.990   2.724
31721WAT     H195405   7.403   6.970   2.737
31721WAT     H295406   7.510   7.071   2.666
31722WAT      O95407   2.047   2.740   4.832
31722WAT     H195408   2.019   2.752   4.927
31722WAT     H295409   2.025   2.647   4.802
31723WAT      O95410   3.966   5.519   3.020
31723WAT     H195411   3.976   5.448   3.090
31723WAT     H295412   3.999   5.606   3.055
31724WAT      O95413   5.958   6.600   1.937
31724WAT     H195414   5.936   6.695   1.959
31724WAT     H295415   6.025   6.599   1.863
31725WAT      O95416   1.777   2.670   2.887
31725WAT     H195417   1.782   2.571   2.900
31725WAT     H295418   1.719   2.691   2.808
31726WAT      O95419   9.547   1.085   1.988
31726WAT     H195420   9.530   1.030   2.070
31726WAT     H295421   9.622   1.045   1.936
31727WAT      O95422   4.862   8.910   4.832
31727WAT     H195423   4.955   8.884   4.807
31727WAT     H295424   4.839   8.998   4.788
31728WAT      O95425   5.385   0.014   5.036
31728WAT     H195426   5.333  -0.038   4.969
31728WAT     H295427   5.356   0.110   5.035
31729WAT      O95428   9.261   3.638   0.198
31729WAT     H195429   9.288   3.733   0.183
31729WAT     H295430   9.309   3.578   0.134
31730WAT      O95431   4.982   7.391   9.091
31730WAT     H195432   5.025   7.316   9.141
31730WAT     H295433   4.988   7.374   8.993
31731WAT      O95434   5.603   7.053   9.628
31731WAT     H195435   5.694   7.031   9.664
31731WAT     H295436   5.610   7.126   9.560
31732WAT      O95437   9.839   7.441   7.008
31732WAT     H195438   9.864   7.348   6.984
31732WAT     H295439   9.871   7.461   7.101
31733WAT      O95440   5.510   8.197   8.419
31733WAT     H195441   5.570   8.127   8.457
31733WAT     H295442   5.493   8.177   8.322
31734WAT      O95443   9.352   5.000   0.150
31734WAT     H195444   9.421   4.983   0.221
31734WAT     H295445   9.299   5.081   0.175
31735WAT      O95446   7.972   3.544   0.229
31735WAT     H195447   7.974   3.458   0.280
31735WAT     H295448   7.893   3.544   0.168
31736WAT      O95449   6.895   7.663   8.789
31736WAT     H195450   6.877   7.591   8.856
31736WAT     H295451   6.890   7.626   8.697
31737WAT      O95452   1.169   5.036   4.017
31737WAT     H195453   1.215   5.019   3.930
31737WAT     H295454   1.112   5.117   4.010
31738WAT      O95455   6.146   5.919   2.542
31738WAT     H195456   6.156   5.998   2.604
31738WAT     H295457   6.049   5.901   2.526
31739WAT      O95458   0.765   7.574   0.576
31739WAT     H195459   0.721   7.648   0.525
31739WAT     H295460   0.751   7.589   0.674
31740WAT      O95461   5.556   6.980   4.322
31740WAT     H195462   5.639   7.008   4.273
31740WAT     H295463   5.581   6.915   4.395
31741WAT      O95464   8.227   7.495   7.723
31741WAT     H195465   8.240   7.472   7.819
31741WAT     H295466   8.194   7.415   7.674
31742WAT      O95467   9.138   4.980   1.441
31742WAT     H195468   9.161   5.041   1.365
31742WAT     H295469   9.065   4.918   1.413
31743WAT      O95470   5.183   0.457   8.247
31743WAT     H195471   5.166   0.372   8.197
31743WAT     H295472   5.269   0.498   8.215
31744WAT      O95473   9.430   1.210   4.959
31744WAT     H195474   9.373   1.203   4.877
31744WAT     H295475   9.520   1.171   4.940
31745WAT      O95476   6.976   1.949   2.547
31745WAT     H195477   6.888   1.933   2.591
31745WAT     H295478   6.969   2.030   2.488
31746WAT      O95479   5.592   1.898   5.171
31746WAT     H195480   5.646   1.906   5.087
31746WAT     H295481   5.642   1.940   5.247
31747WAT      O95482   1.696   5.035   6.412
31747WAT     H195483   1.624   4.972   6.440
31747WAT     H295484   1.702   5.036   6.312
31748WAT      O95485   4.744   1.332   8.274
31748WAT     H195486   4.840   1.323   8.247
31748WAT     H295487   4.721   1.429   8.283
31749WAT      O95488   4.171   2.032   3.597
31749WAT     H195489   4.108   1.960   3.625
31749WAT     H295490   4.265   2.001   3.608
31750WAT      O95491   1.577   9.438   0.415
31750WAT     H195492   1.594   9.537   0.423
31750WAT     H295493   1.553   9.417   0.320
31751WAT      O95494   3.509   2.034   7.224
31751WAT     H195495   3.413   2.034   7.253
31751WAT     H295496   3.528   1.950   7.174
31752WAT      O95497   2.041   9.699   7.688
31752WAT     H195498   2.014   9.619   7.636
31752WAT     H295499   1.995   9.698   7.777
31753WAT      O95500   2.634   6.655   3.771
31753WAT     H195501   2.549   6.611   3.743
31753WAT     H295502   2.647   6.739   3.718
31754WAT      O95503   0.767   2.986   6.140
31754WAT     H195504   0.839   3.035   6.090
31754WAT     H295505   0.808   2.909   6.189
31755WAT      O95506   7.894   1.737   4.901
31755WAT     H195507   7.932   1.661   4.849
31755WAT     H295508   7.799   1.717   4.924
31756WAT      O95509   8.660   2.024   8.208
31756WAT     H195510   8.710   2.003   8.125
31756WAT     H295511   8.654   2.124   8.219
31757WAT      O95512   4.148   3.184   7.877
31757WAT     H195513   4.208   3.251   7.833
31757WAT     H295514   4.060   3.182   7.830
31758WAT      O95515   6.961   8.424   6.260
31758WAT     H195516   6.950   8.345   6.200
31758WAT     H295517   7.058   8.449   6.264
31759WAT      O95518   1.861   1.141   7.463
31759WAT     H195519   1.857   1.072   7.536
31759WAT     H295520   1.879   1.095   7.376
31760WAT      O95521   5.776   3.520   6.287
31760WAT     H195522   5.858   3.497   6.341
31760WAT     H295523   5.730   3.597   6.330
31761WAT      O95524   2.506   2.234   8.399
31761WAT     H195525   2.451   2.166   8.349
31761WAT     H295526   2.508   2.211   8.496
31762WAT      O95527   5.344   1.147   4.776
31762WAT     H195528   5.390   1.203   4.706
31762WAT     H295529   5.335   1.053   4.743
31763WAT      O95530   1.293   1.383   0.803
31763WAT     H195531   1.374   1.379   0.861
31763WAT     H295532   1.321   1.396   0.708
31764WAT      O95533   9.021   4.384   2.217
31764WAT     H195534   9.037   4.285   2.206
31764WAT     H295535   9.065   4.433   2.141
31765WAT      O95536   8.414   3.518   8.781
31765WAT     H195537   8.398   3.514   8.880
31765WAT     H295538   8.490   3.457   8.757
31766WAT      O95539   2.046   3.464   0.734
31766WAT     H195540   2.126   3.453   0.674
31766WAT     H295541   2.056   3.404   0.813
31767WAT      O95542   2.135   1.990   8.806
31767WAT     H195543   2.160   1.893   8.804
31767WAT     H295544   2.217   2.046   8.789
31768WAT      O95545   6.765   8.165   1.779
31768WAT     H195546   6.709   8.118   1.848
31768WAT     H295547   6.796   8.253   1.817
31769WAT      O95548   1.573   4.776   7.875
31769WAT     H195549   1.525   4.831   7.944
31769WAT     H295550   1.611   4.694   7.920
31770WAT      O95551   3.277   8.918   7.358
31770WAT     H195552   3.301   9.011   7.387
31770WAT     H295553   3.359   8.861   7.359
31771WAT      O95554   2.909   7.302   6.577
31771WAT     H195555   2.866   7.391   6.589
31771WAT     H295556   2.886   7.244   6.656
31772WAT      O95557   5.274   7.482   0.232
31772WAT     H195558   5.327   7.410   0.187
31772WAT     H295559   5.259   7.557   0.168
31773WAT      O95560   1.955   0.730   9.351
31773WAT     H195561   1.984   0.717   9.256
31773WAT     H295562   2.007   0.667   9.410
31774WAT      O95563   8.657   0.236   1.570
31774WAT     H195564   8.670   0.242   1.669
31774WAT     H295565   8.732   0.282   1.524
31775WAT      O95566   9.035   5.791   2.339
31775WAT     H195567   9.059   5.740   2.421
31775WAT     H295568   8.937   5.780   2.320
31776WAT      O95569   7.561   4.928   5.049
31776WAT     H195570   7.617   5.008   5.029
31776WAT     H295571   7.516   4.939   5.137
31777WAT      O95572   7.483   3.044   8.935
31777WAT     H195573   7.422   3.023   9.012
31777WAT     H295574   7.523   2.960   8.900
31778WAT      O95575   4.288   0.961   5.965
31778WAT     H195576   4.250   1.053   5.967
31778WAT     H295577   4.326   0.942   5.875
31779WAT      O95578   0.517   7.245   7.470
31779WAT     H195579   0.528   7.252   7.371
31779WAT     H295580   0.452   7.172   7.492
31780WAT      O95581   3.151   7.218   2.201
31780WAT     H195582   3.092   7.146   2.166
31780WAT     H295583   3.119   7.307   2.168
31781WAT      O95584   1.228   7.984   4.705
31781WAT     H195585   1.222   7.967   4.607
31781WAT     H295586   1.138   7.974   4.746
31782WAT      O95587   4.242   8.246   6.195
31782WAT     H195588   4.328   8.199   6.214
31782WAT     H295589   4.229   8.320   6.261
31783WAT      O95590   4.432   2.449   5.345
31783WAT     H195591   4.340   2.457   5.308
31783WAT     H295592   4.475   2.539   5.348
31784WAT      O95593   2.495   8.082   9.537
31784WAT     H195594   2.481   8.071   9.439
31784WAT     H295595   2.583   8.127   9.553
31785WAT      O95596   2.345   5.388   0.078
31785WAT     H195597   2.392   5.330   0.145
31785WAT     H295598   2.408   5.458   0.045
31786WAT      O95599   9.185   0.417   1.779
31786WAT     H195600   9.263   0.367   1.740
31786WAT     H295601   9.218   0.482   1.847
31787WAT      O95602   7.032   2.966   5.372
31787WAT     H195603   7.042   2.870   5.348
31787WAT     H295604   6.967   3.009   5.309
31788WAT      O95605   6.227   0.578   6.623
31788WAT     H195606   6.293   0.653   6.629
31788WAT     H295607   6.141   0.612   6.586
31789WAT      O95608   2.796   0.339   9.718
31789WAT     H195609   2.757   0.328   9.626
31789WAT     H295610   2.890   0.373   9.710
31790WAT      O95611   0.282   1.278   6.513
31790WAT     H195612   0.203   1.320   6.557
31790WAT     H295613   0.251   1.211   6.445
31791WAT      O95614   7.690   7.526   1.636
31791WAT     H195615   7.789   7.531   1.619
31791WAT     H295616   7.664   7.430   1.647
31792WAT      O95617   1.684   4.707   3.729
31792WAT     H195618   1.711   4.723   3.824
31792WAT     H295619   1.588   4.680   3.725
31793WAT      O95620   1.929   8.947   7.570
31793WAT     H195621   1.833   8.921   7.580
31793WAT     H295622   1.971   8.959   7.660
31794WAT      O95623   0.590   8.368   8.343
31794WAT     H195624   0.685   8.400   8.347
31794WAT     H295625   0.549   8.373   8.433
31795WAT      O95626   1.361   5.870   5.962
31795WAT     H195627   1.388   5.949   5.908
31795WAT     H295628   1.422   5.861   6.041
31796WAT      O95629   4.467   1.733   5.154
31796WAT     H195630   4.461   1.789   5.237
31796WAT     H295631   4.459   1.637   5.179
31797WAT      O95632   3.043   3.124   0.394
31797WAT     H195633   3.107   3.085   0.328
31797WAT     H295634   3.094   3.174   0.464
31798WAT      O95635   2.077   5.520   9.770
31798WAT     H195636   2.138   5.587   9.727
31798WAT     H295637   2.115   5.428   9.761
31799WAT      O95638   9.061   6.230   0.908
31799WAT     H195639   9.082   6.269   0.997
31799WAT     H295640   9.141   6.181   0.873
31800WAT      O95641   8.350   2.370   4.451
31800WAT     H195642   8.295   2.332   4.376
31800WAT     H295643   8.396   2.453   4.419
31801WAT      O95644   8.498   5.601   9.677
31801WAT     H195645   8.555   5.670   9.721
31801WAT     H295646   8.536   5.577   9.588
31802WAT      O95647   0.569   2.394   1.834
31802WAT     H195648   0.559   2.351   1.924
31802WAT     H295649   0.514   2.477   1.831
31803WAT      O95650   4.479   6.890   5.242
31803WAT     H195651   4.472   6.960   5.312
31803WAT     H295652   4.480   6.799   5.285
31804WAT      O95653   5.960   2.520   3.457
31804WAT     H195654   5.913   2.600   3.492
31804WAT     H295655   6.058   2.536   3.457
31805WAT      O95656   7.953   8.853   6.560
31805WAT     H195657   7.977   8.855   6.462
31805WAT     H295658   7.854   8.862   6.570
31806WAT      O95659   8.164   8.413   4.636
31806WAT     H195660   8.140   8.394   4.731
31806WAT     H295661   8.106   8.358   4.576
31807WAT      O95662   7.642   6.619   0.361
31807WAT     H195663   7.604   6.690   0.301
31807WAT     H295664   7.741   6.625   0.360
31808WAT      O95665   3.008   0.500   8.097
31808WAT     H195666   2.939   0.475   8.030
31808WAT     H295667   3.078   0.429   8.101
31809WAT      O95668   4.500   9.320   9.348
31809WAT     H195669   4.545   9.239   9.385
31809WAT     H295670   4.550   9.352   9.267
31810WAT      O95671   6.976   0.163   6.493
31810WAT     H195672   7.063   0.142   6.450
31810WAT     H295673   6.990   0.223   6.571
31811WAT      O95674   4.655   4.188   0.254
31811WAT     H195675   4.732   4.219   0.309
31811WAT     H295676   4.675   4.202   0.157
31812WAT      O95677   0.350   1.769   7.261
31812WAT     H195678   0.268   1.766   7.317
31812WAT     H295679   0.402   1.852   7.282
31813WAT      O95680   2.637   4.466   2.219
31813WAT     H195681   2.552   4.510   2.248
31813WAT     H295682   2.617   4.374   2.185
31814WAT      O95683   4.898   9.315   2.020
31814WAT     H195684   4.862   9.307   1.927
31814WAT     H295685   4.915   9.412   2.040
31815WAT      O95686   2.877   1.707   5.291
31815WAT     H195687   2.864   1.610   5.272
31815WAT     H295688   2.816   1.761   5.233
31816WAT      O95689   5.369   4.905   7.372
31816WAT     H195690   5.334   4.962   7.298
31816WAT     H295691   5.407   4.820   7.335
31817WAT      O95692   0.434   1.907   0.809
31817WAT     H195693   0.384   1.821   0.795
31817WAT     H295694   0.376   1.984   0.787
31818WAT      O95695   7.051   7.151   0.747
31818WAT     H195696   7.027   7.158   0.650
31818WAT     H295697   7.081   7.058   0.767
31819WAT      O95698   8.966   4.333   8.384
31819WAT     H195699   9.063   4.337   8.360
31819WAT     H295700   8.910   4.335   8.301
31820WAT      O95701   7.860   9.455   0.044
31820WAT     H195702   7.807   9.377   0.013
31820WAT     H295703   7.853   9.529  -0.022
31821WAT      O95704   4.672   4.785   9.414
31821WAT     H195705   4.639   4.811   9.504
31821WAT     H295706   4.597   4.745   9.361
31822WAT      O95707   7.148   2.311   1.687
31822WAT     H195708   7.093   2.289   1.767
31822WAT     H295709   7.107   2.270   1.605
31823WAT      O95710   5.328   1.389   8.858
31823WAT     H195711   5.392   1.434   8.920
31823WAT     H295712   5.252   1.352   8.911
31824WAT      O95713   7.981   6.881   6.890
31824WAT     H195714   7.934   6.936   6.959
31824WAT     H295715   7.948   6.787   6.895
31825WAT      O95716   2.545   1.288   5.866
31825WAT     H195717   2.466   1.264   5.809
31825WAT     H295718   2.603   1.208   5.878
31826WAT      O95719   4.053   2.114   5.668
31826WAT     H195720   4.072   2.177   5.593
31826WAT     H295721   4.133   2.108   5.728
31827WAT      O95722   6.702   7.279   3.532
31827WAT     H195723   6.602   7.277   3.531
31827WAT     H295724   6.734   7.360   3.483
31828WAT      O95725   2.317   9.736   8.284
31828WAT     H195726   2.296   9.648   8.327
31828WAT     H295727   2.417   9.745   8.276
31829WAT      O95728   4.052   9.737   6.814
31829WAT     H195729   3.957   9.743   6.785
31829WAT     H295730   4.099   9.666   6.761
31830WAT      O95731   0.275   1.419   1.414
31830WAT     H195732   0.291   1.321   1.400
31830WAT     H295733   0.279   1.465   1.326
31831WAT      O95734   7.491   6.171   1.537
31831WAT     H195735   7.482   6.271   1.536
31831WAT     H295736   7.488   6.139   1.632
31832WAT      O95737   9.713   0.316   3.253
31832WAT     H195738   9.666   0.283   3.334
31832WAT     H295739   9.783   0.251   3.226
31833WAT      O95740   9.644   0.425   5.435
31833WAT     H195741   9.742   0.413   5.444
31833WAT     H295742   9.619   0.429   5.338
31834WAT      O95743   9.298   6.355   5.137
31834WAT     H195744   9.394   6.378   5.124
31834WAT     H295745   9.246   6.383   5.056
31835WAT      O95746   6.437   8.738   3.198
31835WAT     H195747   6.420   8.828   3.237
31835WAT     H295748   6.388   8.730   3.111
31836WAT      O95749   7.541   9.565   0.143
31836WAT     H195750   7.484   9.487   0.117
31836WAT     H295751   7.594   9.541   0.224
31837WAT      O95752   4.768   4.068   4.601
31837WAT     H195753   4.764   4.089   4.503
31837WAT     H295754   4.759   3.969   4.614
31838WAT      O95755   9.508   8.634   6.497
31838WAT     H195756   9.572   8.579   6.444
31838WAT     H295757   9.419   8.589   6.498
31839WAT      O95758   1.573   1.421   2.619
31839WAT     H195759   1.476   1.431   2.642
31839WAT     H295760   1.582   1.367   2.536
31840WAT      O95761   7.766   7.000   4.067
31840WAT     H195762   7.762   7.002   4.167
31840WAT     H295763   7.675   6.978   4.031
31841WAT      O95764   3.850   6.066   5.896
31841WAT     H195765   3.945   6.092   5.913
31841WAT     H295766   3.819   6.106   5.810
31842WAT      O95767   4.878   1.419   7.062
31842WAT     H195768   4.930   1.436   6.978
31842WAT     H295769   4.834   1.329   7.056
31843WAT      O95770   8.272   8.841   6.067
31843WAT     H195771   8.249   8.833   6.164
31843WAT     H295772   8.198   8.802   6.012
31844WAT      O95773   8.344   6.703   4.606
31844WAT     H195774   8.258   6.726   4.652
31844WAT     H295775   8.408   6.779   4.617
31845WAT      O95776   1.353   8.832   7.876
31845WAT     H195777   1.371   8.736   7.854
31845WAT     H295778   1.384   8.890   7.801
31846WAT      O95779   1.611   9.806   7.854
31846WAT     H195780   1.636   9.710   7.868
31846WAT     H295781   1.534   9.829   7.914
31847WAT      O95782   7.764   7.574   1.976
31847WAT     H195783   7.683   7.619   1.940
31847WAT     H295784   7.771   7.591   2.074
31848WAT      O95785   8.008   0.221   5.494
31848WAT     H195786   7.977   0.148   5.555
31848WAT     H295787   7.964   0.210   5.405
31849WAT      O95788   3.352   2.573   8.615
31849WAT     H195789   3.436   2.583   8.669
31849WAT     H295790   3.368   2.603   8.521
31850WAT      O95791   1.763   3.247   6.376
31850WAT     H195792   1.740   3.157   6.412
31850WAT     H295793   1.700   3.271   6.303
31851WAT      O95794   2.290   7.162   6.343
31851WAT     H195795   2.363   7.100   6.314
31851WAT     H295796   2.277   7.232   6.273
31852WAT      O95797   5.644   3.147   1.793
31852WAT     H195798   5.647   3.063   1.739
31852WAT     H295799   5.575   3.209   1.754
31853WAT      O95800   9.319   8.054   5.433
31853WAT     H195801   9.383   8.128   5.407
31853WAT     H295802   9.226   8.091   5.438
31854WAT      O95803   9.782   6.922   3.321
31854WAT     H195804   9.760   6.930   3.224
31854WAT     H295805   9.873   6.961   3.338
31855WAT      O95806   6.921   1.933   3.907
31855WAT     H195807   6.931   2.015   3.851
31855WAT     H295808   6.861   1.952   3.984
31856WAT      O95809   0.949   3.636   5.129
31856WAT     H195810   1.021   3.567   5.117
31856WAT     H295811   0.880   3.624   5.058
31857WAT      O95812   7.270   3.550   8.094
31857WAT     H195813   7.309   3.625   8.148
31857WAT     H295814   7.335   3.521   8.024
31858WAT      O95815   2.940   7.145   7.410
31858WAT     H195816   2.870   7.127   7.341
31858WAT     H295817   2.967   7.059   7.453
31859WAT      O95818   7.626   5.947   5.026
31859WAT     H195819   7.719   5.925   5.054
31859WAT     H295820   7.581   5.865   4.992
31860WAT      O95821   8.292   3.351   2.560
31860WAT     H195822   8.233   3.428   2.583
31860WAT     H295823   8.337   3.317   2.643
31861WAT      O95824   6.199   7.965   1.810
31861WAT     H195825   6.164   8.053   1.844
31861WAT     H295826   6.200   7.899   1.884
31862WAT      O95827   5.687   4.222   5.434
31862WAT     H195828   5.651   4.247   5.524
31862WAT     H295829   5.716   4.305   5.386
31863WAT      O95830   2.053   2.783   6.446
31863WAT     H195831   2.088   2.809   6.536
31863WAT     H295832   2.072   2.855   6.380
31864WAT      O95833   9.251   2.259   9.139
31864WAT     H195834   9.157   2.229   9.127
31864WAT     H295835   9.262   2.298   9.231
31865WAT      O95836   6.966   3.095   6.524
31865WAT     H195837   6.990   3.192   6.524
31865WAT     H295838   6.870   3.084   6.498
31866WAT      O95839   2.863   6.096   9.016
31866WAT     H195840   2.832   6.093   9.111
31866WAT     H295841   2.785   6.116   8.956
31867WAT      O95842   2.926   1.229   6.296
31867WAT     H195843   2.842   1.212   6.245
31867WAT     H295844   2.944   1.152   6.357
31868WAT      O95845   1.667   5.451   2.592
31868WAT     H195846   1.618   5.519   2.537
31868WAT     H295847   1.668   5.364   2.544
31869WAT      O95848   7.126   7.618   9.188
31869WAT     H195849   7.187   7.692   9.218
31869WAT     H295850   7.156   7.532   9.230
31870WAT      O95851   9.290   1.352   2.671
31870WAT     H195852   9.191   1.340   2.672
31870WAT     H295853   9.316   1.410   2.593
31871WAT      O95854   7.747   7.478   9.499
31871WAT     H195855   7.729   7.518   9.589
31871WAT     H295856   7.794   7.391   9.510
31872WAT      O95857   7.277   0.955   3.411
31872WAT     H195858   7.288   0.893   3.333
31872WAT     H295859   7.202   1.018   3.393
31873WAT      O95860   0.448   0.872   4.697
31873WAT     H195861   0.354   0.852   4.726
31873WAT     H295862   0.446   0.917   4.608
31874WAT      O95863   2.158   3.236   8.457
31874WAT     H195864   2.073   3.282   8.433
31874WAT     H295865   2.154   3.206   8.553
31875WAT      O95866   6.120   2.136   6.439
31875WAT     H195867   6.174   2.055   6.414
31875WAT     H295868   6.030   2.130   6.395
31876WAT      O95869   4.710   9.020   6.676
31876WAT     H195870   4.718   9.095   6.610
31876WAT     H295871   4.707   8.933   6.627
31877WAT      O95872   2.117   9.347   8.927
31877WAT     H195873   2.214   9.355   8.903
31877WAT     H295874   2.080   9.439   8.944
31878WAT      O95875   2.981   5.073   4.889
31878WAT     H195876   2.931   5.152   4.855
31878WAT     H295877   2.960   5.059   4.986
31879WAT      O95878   2.044   1.866   0.267
31879WAT     H195879   2.090   1.788   0.226
31879WAT     H295880   2.030   1.848   0.365
31880WAT      O95881   6.115   0.381   1.221
31880WAT     H195882   6.080   0.293   1.191
31880WAT     H295883   6.174   0.368   1.301
31881WAT      O95884   8.635   2.252   1.277
31881WAT     H195885   8.612   2.267   1.181
31881WAT     H295886   8.593   2.167   1.309
31882WAT      O95887   3.529   5.463   8.013
31882WAT     H195888   3.535   5.459   8.113
31882WAT     H295889   3.611   5.508   7.977
31883WAT      O95890   7.158   3.353   4.041
31883WAT     H195891   7.090   3.326   4.109
31883WAT     H295892   7.113   3.403   3.967
31884WAT      O95893   7.281   2.680   1.190
31884WAT     H195894   7.191   2.680   1.146
31884WAT     H295895   7.269   2.693   1.289
31885WAT      O95896   7.786   3.795   4.887
31885WAT     H195897   7.714   3.806   4.818
31885WAT     H295898   7.864   3.853   4.865
31886WAT      O95899   9.227   6.896   7.336
31886WAT     H195900   9.317   6.912   7.377
31886WAT     H295901   9.166   6.971   7.361
31887WAT      O95902   3.146   8.437   7.941
31887WAT     H195903   3.165   8.404   8.033
31887WAT     H295904   3.202   8.387   7.875
31888WAT      O95905   7.941   9.026   9.053
31888WAT     H195906   7.892   9.012   8.967
31888WAT     H295907   7.921   9.118   9.087
31889WAT      O95908   8.606   2.103   2.061
31889WAT     H195909   8.510   2.129   2.066
31889WAT     H295910   8.663   2.180   2.089
31890WAT      O95911   3.930   2.452   8.977
31890WAT     H195912   3.987   2.382   8.935
31890WAT     H295913   3.988   2.527   9.010
31891WAT      O95914   5.903   5.294   6.065
31891WAT     H195915   5.944   5.285   5.975
31891WAT     H295916   5.917   5.386   6.100
31892WAT      O95917   3.841   7.202   3.961
31892WAT     H195918   3.900   7.160   3.892
31892WAT     H295919   3.756   7.232   3.918
31893WAT      O95920   0.460   2.015   4.497
31893WAT     H195921   0.418   2.002   4.407
31893WAT     H295922   0.400   2.071   4.554
31894WAT      O95923   6.955   5.557   9.641
31894WAT     H195924   6.883   5.592   9.702
31894WAT     H295925   7.016   5.497   9.694
31895WAT      O95926   2.299   8.021   7.763
31895WAT     H195927   2.276   8.114   7.734
31895WAT     H295928   2.387   8.022   7.810
31896WAT      O95929   0.749   2.783   4.924
31896WAT     H195930   0.813   2.820   4.857
31896WAT     H295931   0.709   2.698   4.889
31897WAT      O95932   8.794   0.874   6.391
31897WAT     H195933   8.753   0.859   6.301
31897WAT     H295934   8.762   0.962   6.427
31898WAT      O95935   1.391   3.377   8.100
31898WAT     H195936   1.392   3.314   8.022
31898WAT     H295937   1.309   3.360   8.155
31899WAT      O95938   7.954   4.036   3.414
31899WAT     H195939   8.025   4.001   3.474
31899WAT     H295940   7.991   4.109   3.357
   9.88928    9.84380    9.89279 
