GROningen MAchine for Chemical Simulation
95940
    1G5    HO5'    1   6.991   6.312   3.800
    1G5     O5'    2   6.972   6.221   3.823
    1G5     C5'    3   7.034   6.148   3.716
    1G5     H5'    4   7.005   6.206   3.629
    1G5    H5''    5   6.995   6.047   3.708
    1G5     C4'    6   7.186   6.144   3.748
    1G5     H4'    7   7.226   6.083   3.668
    1G5     O4'    8   7.237   6.276   3.717
    1G5     C1'    9   7.313   6.325   3.827
    1G5     H1'   10   7.416   6.294   3.810
    1G5      N9   11   7.299   6.469   3.855
    1G5      C8   12   7.386   6.555   3.917
    1G5      H8   13   7.487   6.524   3.937
    1G5      N7   14   7.338   6.676   3.942
    1G5      C5   15   7.216   6.672   3.884
    1G5      C6   16   7.112   6.773   3.875
    1G5      O6   17   7.115   6.889   3.916
    1G5      N1   18   6.993   6.730   3.825
    1G5      H1   19   6.917   6.793   3.807
    1G5      C2   20   6.975   6.601   3.785
    1G5      N2   21   6.859   6.561   3.740
    1G5     H21   22   6.798   6.639   3.717
    1G5     H22   23   6.847   6.466   3.708
    1G5      N3   24   7.068   6.506   3.783
    1G5      C4   25   7.187   6.545   3.837
    1G5     C3'   26   7.233   6.105   3.885
    1G5     H3'   27   7.151   6.051   3.932
    1G5     C2'   28   7.259   6.250   3.948
    1G5     H2'   29   7.162   6.293   3.974
    1G5     O2'   30   7.339   6.241   4.068
    1G5    HO2'   31   7.316   6.163   4.119
    1G5     O3'   32   7.362   6.039   3.872
    2G        P   33   7.378   5.881   3.876
    2G      OP1   34   7.509   5.850   3.813
    2G      OP2   35   7.256   5.820   3.821
    2G      O5'   36   7.380   5.859   4.029
    2G      C5'   37   7.493   5.900   4.112
    2G      H5'   38   7.532   5.989   4.062
    2G     H5''   39   7.559   5.814   4.124
    2G      C4'   40   7.445   5.935   4.250
    2G      H4'   41   7.523   5.974   4.315
    2G      O4'   42   7.343   6.042   4.252
    2G      C1'   43   7.220   6.002   4.315
    2G      H1'   44   7.181   6.086   4.374
    2G       N9   45   7.106   5.954   4.231
    2G       C8   46   7.069   5.832   4.182
    2G       H8   47   7.128   5.749   4.218
    2G       N7   48   6.963   5.824   4.103
    2G       C5   49   6.923   5.958   4.102
    2G       C6   50   6.812   6.021   4.038
    2G       O6   51   6.725   5.978   3.957
    2G       N1   52   6.799   6.157   4.073
    2G       H1   53   6.720   6.209   4.038
    2G       C2   54   6.887   6.221   4.149
    2G       N2   55   6.868   6.350   4.170
    2G      H21   56   6.795   6.395   4.117
    2G      H22   57   6.935   6.394   4.232
    2G       N3   58   6.990   6.164   4.209
    2G       C4   59   7.007   6.033   4.178
    2G      C3'   60   7.384   5.824   4.329
    2G      H3'   61   7.340   5.759   4.254
    2G      C2'   62   7.269   5.892   4.407
    2G      H2'   63   7.201   5.811   4.434
    2G      O2'   64   7.322   5.963   4.522
    2G     HO2'   65   7.291   5.913   4.598
    2G      O3'   66   7.478   5.755   4.408
    3G        P   67   7.446   5.609   4.472
    3G      OP1   68   7.572   5.542   4.514
    3G      OP2   69   7.358   5.530   4.380
    3G      O5'   70   7.354   5.623   4.607
    3G      C5'   71   7.397   5.683   4.730
    3G      H5'   72   7.462   5.769   4.712
    3G     H5''   73   7.447   5.613   4.798
    3G      C4'   74   7.271   5.744   4.801
    3G      H4'   75   7.312   5.795   4.888
    3G      O4'   76   7.200   5.840   4.726
    3G      C1'   77   7.060   5.824   4.745
    3G      H1'   78   7.013   5.911   4.791
    3G       N9   79   6.991   5.803   4.614
    3G       C8   80   6.975   5.692   4.538
    3G       H8   81   7.020   5.597   4.565
    3G       N7   82   6.896   5.712   4.433
    3G       C5   83   6.848   5.840   4.455
    3G       C6   84   6.755   5.925   4.386
    3G       O6   85   6.697   5.902   4.281
    3G       N1   86   6.715   6.043   4.452
    3G       H1   87   6.633   6.089   4.414
    3G       C2   88   6.771   6.079   4.568
    3G       N2   89   6.716   6.181   4.631
    3G      H21   90   6.636   6.226   4.591
    3G      H22   91   6.764   6.200   4.718
    3G       N3   92   6.870   6.015   4.633
    3G       C4   93   6.904   5.892   4.568
    3G      C3'   94   7.173   5.631   4.831
    3G      H3'   95   7.156   5.564   4.747
    3G      C2'   96   7.043   5.712   4.845
    3G      H2'   97   6.955   5.650   4.828
    3G      O2'   98   7.036   5.764   4.976
    3G     HO2'   99   6.999   5.692   5.027
    3G      O3'  100   7.198   5.555   4.952
    4U        P  101   7.101   5.424   4.993
    4U      OP1  102   7.175   5.346   5.095
    4U      OP2  103   7.053   5.363   4.869
    4U      O5'  104   6.966   5.480   5.059
    4U      C5'  105   6.955   5.512   5.200
    4U      H5'  106   7.027   5.587   5.231
    4U     H5''  107   6.976   5.424   5.260
    4U      C4'  108   6.813   5.557   5.222
    4U      H4'  109   6.800   5.572   5.329
    4U      O4'  110   6.793   5.684   5.163
    4U      C1'  111   6.657   5.706   5.143
    4U      H1'  112   6.627   5.787   5.210
    4U       N1  113   6.619   5.749   5.002
    4U       C6  114   6.685   5.682   4.897
    4U       H6  115   6.765   5.612   4.916
    4U       C5  116   6.654   5.718   4.770
    4U       H5  117   6.710   5.668   4.692
    4U       C4  118   6.556   5.816   4.739
    4U       O4  119   6.522   5.857   4.627
    4U       N3  120   6.499   5.876   4.849
    4U       H3  121   6.426   5.943   4.833
    4U       C2  122   6.518   5.837   4.979
    4U       O2  123   6.458   5.896   5.069
    4U      C3'  124   6.697   5.471   5.166
    4U      H3'  125   6.711   5.439   5.063
    4U      C2'  126   6.580   5.577   5.172
    4U      H2'  127   6.510   5.555   5.091
    4U      O2'  128   6.518   5.584   5.300
    4U     HO2'  129   6.451   5.515   5.302
    4U      O3'  130   6.680   5.364   5.260
    5U        P  131   6.567   5.257   5.236
    5U      OP1  132   6.594   5.143   5.328
    5U      OP2  133   6.560   5.226   5.092
    5U      O5'  134   6.426   5.314   5.279
    5U      C5'  135   6.381   5.313   5.414
    5U      H5'  136   6.456   5.358   5.479
    5U     H5''  137   6.380   5.205   5.433
    5U      C4'  138   6.239   5.369   5.429
    5U      H4'  139   6.214   5.380   5.534
    5U      O4'  140   6.231   5.493   5.371
    5U      C1'  141   6.119   5.504   5.293
    5U      H1'  142   6.050   5.571   5.346
    5U       N1  143   6.144   5.559   5.156
    5U       C6  144   6.249   5.519   5.075
    5U       H6  145   6.309   5.434   5.104
    5U       C5  146   6.278   5.581   4.959
    5U       H5  147   6.362   5.557   4.895
    5U       C4  148   6.197   5.694   4.917
    5U       O4  149   6.198   5.751   4.805
    5U       N3  150   6.095   5.728   5.004
    5U       H3  151   6.051   5.816   4.984
    5U       C2  152   6.056   5.656   5.117
    5U       O2  153   5.951   5.673   5.178
    5U      C3'  154   6.134   5.278   5.358
    5U      H3'  155   6.190   5.202   5.304
    5U      C2'  156   6.044   5.368   5.279
    5U      H2'  157   6.048   5.330   5.177
    5U      O2'  158   5.911   5.375   5.319
    5U     HO2'  159   5.902   5.297   5.374
    5U      O3'  160   6.059   5.214   5.461
    6A        P  161   6.005   5.071   5.436
    6A      OP1  162   5.984   5.007   5.569
    6A      OP2  163   6.083   5.003   5.337
    6A      O5'  164   5.860   5.105   5.375
    6A      C5'  165   5.746   5.145   5.459
    6A      H5'  166   5.783   5.240   5.497
    6A     H5''  167   5.728   5.074   5.541
    6A      C4'  168   5.610   5.173   5.395
    6A      H4'  169   5.540   5.202   5.473
    6A      O4'  170   5.636   5.284   5.304
    6A      C1'  171   5.599   5.249   5.170
    6A      H1'  172   5.542   5.333   5.131
    6A       N9  173   5.720   5.223   5.097
    6A       C8  174   5.801   5.113   5.088
    6A       H8  175   5.769   5.031   5.151
    6A       N7  176   5.895   5.117   5.008
    6A       C5  177   5.886   5.243   4.955
    6A       C6  178   5.958   5.314   4.863
    6A       N6  179   6.063   5.271   4.797
    6A      H61  180   6.117   5.334   4.739
    6A      H62  181   6.092   5.174   4.794
    6A       N1  182   5.929   5.442   4.833
    6A       C2  183   5.817   5.490   4.884
    6A       H2  184   5.791   5.589   4.849
    6A       N3  185   5.732   5.440   4.974
    6A       C4  186   5.775   5.306   5.004
    6A      C3'  187   5.538   5.068   5.309
    6A      H3'  188   5.614   4.990   5.302
    6A      C2'  189   5.496   5.134   5.178
    6A      H2'  190   5.513   5.058   5.102
    6A      O2'  191   5.367   5.185   5.180
    6A     HO2'  192   5.327   5.138   5.253
    6A      O3'  193   5.422   5.020   5.364
    7G        P  194   5.426   4.930   5.500
    7G      OP1  195   5.566   4.883   5.521
    7G      OP2  196   5.324   4.832   5.497
    7G      O5'  197   5.384   5.048   5.604
    7G      C5'  198   5.313   5.011   5.723
    7G      H5'  199   5.362   4.929   5.775
    7G     H5''  200   5.212   4.978   5.697
    7G      C4'  201   5.271   5.117   5.824
    7G      H4'  202   5.221   5.068   5.907
    7G      O4'  203   5.381   5.180   5.878
    7G      C1'  204   5.359   5.320   5.876
    7G      H1'  205   5.392   5.377   5.963
    7G       N9  206   5.433   5.386   5.765
    7G       C8  207   5.537   5.337   5.692
    7G       H8  208   5.579   5.238   5.696
    7G       N7  209   5.593   5.429   5.606
    7G       C5  210   5.518   5.545   5.631
    7G       C6  211   5.526   5.674   5.569
    7G       O6  212   5.590   5.705   5.470
    7G       N1  213   5.452   5.764   5.639
    7G       H1  214   5.467   5.862   5.622
    7G       C2  215   5.366   5.731   5.745
    7G       N2  216   5.298   5.838   5.788
    7G      H21  217   5.324   5.924   5.741
    7G      H22  218   5.241   5.830   5.871
    7G       N3  219   5.344   5.612   5.794
    7G       C4  220   5.424   5.518   5.729
    7G      C3'  221   5.179   5.218   5.767
    7G      H3'  222   5.213   5.246   5.667
    7G      C2'  223   5.208   5.340   5.859
    7G      H2'  224   5.184   5.435   5.810
    7G      O2'  225   5.131   5.341   5.984
    7G     HO2'  226   5.147   5.252   6.018
    7G      O3'  227   5.037   5.193   5.767
    8G        P  228   4.946   5.237   5.643
    8G      OP1  229   4.806   5.197   5.662
    8G      OP2  230   5.006   5.194   5.517
    8G      O5'  231   4.951   5.391   5.646
    8G      C5'  232   4.869   5.471   5.732
    8G      H5'  233   4.917   5.468   5.830
    8G     H5''  234   4.770   5.426   5.741
    8G      C4'  235   4.858   5.619   5.683
    8G      H4'  236   4.774   5.661   5.739
    8G      O4'  237   4.980   5.691   5.704
    8G      C1'  238   4.990   5.794   5.599
    8G      H1'  239   5.024   5.886   5.646
    8G       N9  240   5.113   5.763   5.517
    8G       C8  241   5.166   5.640   5.491
    8G       H8  242   5.127   5.551   5.539
    8G       N7  243   5.265   5.644   5.409
    8G       C5  244   5.283   5.784   5.382
    8G       C6  245   5.366   5.851   5.292
    8G       O6  246   5.458   5.810   5.230
    8G       N1  247   5.325   5.983   5.278
    8G       H1  248   5.376   6.037   5.210
    8G       C2  249   5.223   6.043   5.340
    8G       N2  250   5.194   6.170   5.320
    8G      H21  251   5.229   6.209   5.233
    8G      H22  252   5.121   6.211   5.376
    8G       N3  253   5.154   5.982   5.429
    8G       C4  254   5.184   5.853   5.443
    8G      C3'  255   4.812   5.652   5.536
    8G      H3'  256   4.865   5.583   5.470
    8G      C2'  257   4.848   5.797   5.530
    8G      H2'  258   4.848   5.842   5.430
    8G      O2'  259   4.762   5.882   5.606
    8G     HO2'  260   4.788   5.973   5.595
    8G      O3'  261   4.674   5.633   5.516
    9G        P  262   4.624   5.611   5.375
    9G      OP1  263   4.481   5.625   5.370
    9G      OP2  264   4.685   5.483   5.329
    9G      O5'  265   4.686   5.730   5.282
    9G      C5'  266   4.625   5.857   5.278
    9G      H5'  267   4.625   5.911   5.373
    9G     H5''  268   4.524   5.832   5.244
    9G      C4'  269   4.681   5.946   5.158
    9G      H4'  270   4.626   6.040   5.147
    9G      O4'  271   4.821   5.988   5.187
    9G      C1'  272   4.900   5.976   5.069
    9G      H1'  273   4.960   6.067   5.061
    9G       N9  274   4.983   5.851   5.063
    9G       C8  275   4.984   5.753   5.154
    9G       H8  276   4.924   5.756   5.243
    9G       N7  277   5.090   5.671   5.139
    9G       C5  278   5.145   5.713   5.014
    9G       C6  279   5.259   5.661   4.932
    9G       O6  280   5.323   5.558   4.944
    9G       N1  281   5.286   5.739   4.824
    9G       H1  282   5.367   5.710   4.771
    9G       C2  283   5.204   5.841   4.784
    9G       N2  284   5.239   5.915   4.688
    9G      H21  285   5.326   5.897   4.640
    9G      H22  286   5.183   5.997   4.666
    9G       N3  287   5.100   5.886   4.849
    9G       C4  288   5.074   5.821   4.963
    9G      C3'  289   4.691   5.881   5.017
    9G      H3'  290   4.734   5.781   5.021
    9G      C2'  291   4.802   5.968   4.951
    9G      H2'  292   4.852   5.922   4.865
    9G      O2'  293   4.740   6.099   4.927
    9G     HO2'  294   4.658   6.092   4.877
    9G      O3'  295   4.559   5.901   4.961
   10U        P  296   4.479   5.771   4.925
   10U      OP1  297   4.347   5.820   4.885
   10U      OP2  298   4.493   5.672   5.032
   10U      O5'  299   4.565   5.728   4.803
   10U      C5'  300   4.539   5.781   4.668
   10U      H5'  301   4.536   5.889   4.674
   10U     H5''  302   4.442   5.739   4.642
   10U      C4'  303   4.647   5.737   4.571
   10U      H4'  304   4.627   5.787   4.477
   10U      O4'  305   4.780   5.763   4.625
   10U      C1'  306   4.873   5.660   4.584
   10U      H1'  307   4.950   5.707   4.523
   10U       N1  308   4.933   5.583   4.697
   10U       C6  309   4.862   5.554   4.812
   10U       H6  310   4.764   5.593   4.834
   10U       C5  311   4.918   5.469   4.905
   10U       H5  312   4.867   5.449   4.998
   10U       C4  313   5.050   5.414   4.891
   10U       O4  314   5.103   5.335   4.970
   10U       N3  315   5.116   5.455   4.777
   10U       H3  316   5.207   5.415   4.758
   10U       C2  317   5.062   5.533   4.679
   10U       O2  318   5.142   5.569   4.595
   10U      C3'  319   4.641   5.593   4.539
   10U      H3'  320   4.618   5.542   4.633
   10U      C2'  321   4.785   5.564   4.493
   10U      H2'  322   4.809   5.459   4.508
   10U      O2'  323   4.781   5.598   4.358
   10U     HO2'  324   4.702   5.562   4.318
   10U      O3'  325   4.536   5.565   4.447
   11U        P  326   4.469   5.422   4.430
   11U      OP1  327   4.330   5.435   4.378
   11U      OP2  328   4.494   5.343   4.550
   11U      O5'  329   4.569   5.365   4.320
   11U      C5'  330   4.548   5.390   4.187
   11U      H5'  331   4.556   5.497   4.166
   11U     H5''  332   4.448   5.356   4.160
   11U      C4'  333   4.652   5.322   4.097
   11U      H4'  334   4.627   5.334   3.992
   11U      O4'  335   4.781   5.370   4.120
   11U      C1'  336   4.880   5.265   4.099
   11U      H1'  337   4.945   5.293   4.016
   11U       N1  338   4.965   5.252   4.226
   11U       C6  339   4.907   5.249   4.354
   11U       H6  340   4.800   5.232   4.362
   11U       C5  341   4.989   5.266   4.458
   11U       H5  342   4.947   5.279   4.557
   11U       C4  343   5.132   5.272   4.444
   11U       O4  344   5.208   5.277   4.542
   11U       N3  345   5.183   5.269   4.316
   11U       H3  346   5.278   5.299   4.298
   11U       C2  347   5.099   5.252   4.202
   11U       O2  348   5.144   5.252   4.083
   11U      C3'  349   4.665   5.165   4.124
   11U      H3'  350   4.663   5.149   4.232
   11U      C2'  351   4.803   5.140   4.065
   11U      H2'  352   4.848   5.061   4.125
   11U      O2'  353   4.798   5.105   3.928
   11U     HO2'  354   4.718   5.058   3.903
   11U      O3'  355   4.570   5.085   4.056
   12A        P  356   4.509   4.964   4.146
   12A      OP1  357   4.431   4.874   4.057
   12A      OP2  358   4.445   5.017   4.267
   12A      O5'  359   4.642   4.883   4.185
   12A      C5'  360   4.712   4.804   4.086
   12A      H5'  361   4.733   4.856   3.993
   12A     H5''  362   4.651   4.716   4.066
   12A      C4'  363   4.839   4.747   4.152
   12A      H4'  364   4.895   4.685   4.082
   12A      O4'  365   4.924   4.847   4.208
   12A      C1'  366   4.996   4.797   4.322
   12A      H1'  367   5.104   4.806   4.309
   12A       N9  368   4.955   4.883   4.434
   12A       C8  369   4.832   4.948   4.445
   12A       H8  370   4.765   4.959   4.361
   12A       N7  371   4.818   5.020   4.557
   12A       C5  372   4.936   4.992   4.625
   12A       C6  373   4.997   5.046   4.743
   12A       N6  374   4.934   5.128   4.824
   12A      H61  375   4.974   5.155   4.913
   12A      H62  376   4.847   5.163   4.786
   12A       N1  377   5.121   5.005   4.780
   12A       C2  378   5.185   4.924   4.696
   12A       H2  379   5.285   4.902   4.730
   12A       N3  380   5.149   4.877   4.578
   12A       C4  381   5.022   4.917   4.550
   12A      C3'  382   4.811   4.657   4.273
   12A      H3'  383   4.740   4.716   4.331
   12A      C2'  384   4.948   4.651   4.343
   12A      H2'  385   4.944   4.640   4.451
   12A      O2'  386   5.042   4.561   4.286
   12A     HO2'  387   4.998   4.499   4.228
   12A      O3'  388   4.754   4.535   4.224
   13G        P  389   4.670   4.440   4.313
   13G      OP1  390   4.648   4.308   4.253
   13G      OP2  391   4.544   4.518   4.352
   13G      O5'  392   4.764   4.415   4.441
   13G      C5'  393   4.856   4.304   4.450
   13G      H5'  394   4.919   4.308   4.362
   13G     H5''  395   4.801   4.210   4.445
   13G      C4'  396   4.926   4.295   4.588
   13G      H4'  397   5.006   4.221   4.589
   13G      O4'  398   4.995   4.414   4.616
   13G      C1'  399   4.983   4.438   4.757
   13G      H1'  400   5.083   4.457   4.797
   13G       N9  401   4.897   4.552   4.796
   13G       C8  402   4.799   4.610   4.715
   13G       H8  403   4.789   4.575   4.614
   13G       N7  404   4.735   4.708   4.771
   13G       C5  405   4.792   4.712   4.899
   13G       C6  406   4.750   4.791   5.012
   13G       O6  407   4.651   4.873   5.007
   13G       N1  408   4.821   4.761   5.128
   13G       H1  409   4.797   4.811   5.212
   13G       C2  410   4.920   4.667   5.132
   13G       N2  411   4.981   4.650   5.248
   13G      H21  412   4.968   4.713   5.325
   13G      H22  413   5.054   4.581   5.261
   13G       N3  414   4.964   4.594   5.027
   13G       C4  415   4.884   4.612   4.916
   13G      C3'  416   4.837   4.273   4.704
   13G      H3'  417   4.750   4.339   4.700
   13G      C2'  418   4.925   4.317   4.821
   13G      H2'  419   4.866   4.334   4.911
   13G      O2'  420   5.043   4.228   4.842
   13G     HO2'  421   5.115   4.260   4.786
   13G      O3'  422   4.786   4.146   4.711
   14G        P  423   4.640   4.117   4.772
   14G      OP1  424   4.617   3.973   4.772
   14G      OP2  425   4.550   4.208   4.700
   14G      O5'  426   4.656   4.155   4.924
   14G      C5'  427   4.748   4.082   5.005
   14G      H5'  428   4.844   4.055   4.962
   14G     H5''  429   4.695   3.990   5.029
   14G      C4'  430   4.787   4.128   5.138
   14G      H4'  431   4.866   4.082   5.197
   14G      O4'  432   4.821   4.264   5.142
   14G      C1'  433   4.772   4.349   5.248
   14G      H1'  434   4.855   4.400   5.297
   14G       N9  435   4.663   4.439   5.199
   14G       C8  436   4.618   4.465   5.071
   14G       H8  437   4.659   4.424   4.980
   14G       N7  438   4.528   4.561   5.065
   14G       C5  439   4.511   4.592   5.199
   14G       C6  440   4.426   4.682   5.263
   14G       O6  441   4.338   4.751   5.215
   14G       N1  442   4.436   4.692   5.399
   14G       H1  443   4.380   4.761   5.448
   14G       C2  444   4.524   4.617   5.473
   14G       N2  445   4.534   4.644   5.598
   14G      H21  446   4.456   4.690   5.641
   14G      H22  447   4.602   4.593   5.653
   14G       N3  448   4.610   4.525   5.422
   14G       C4  449   4.593   4.517   5.283
   14G      C3'  450   4.667   4.137   5.225
   14G      H3'  451   4.582   4.158   5.160
   14G      C2'  452   4.706   4.240   5.336
   14G      H2'  453   4.619   4.277   5.391
   14G      O2'  454   4.794   4.181   5.423
   14G     HO2'  455   4.775   4.087   5.426
   14G      O3'  456   4.649   4.017   5.298
   15G        P  457   4.500   3.969   5.328
   15G      OP1  458   4.498   3.840   5.393
   15G      OP2  459   4.425   3.974   5.200
   15G      O5'  460   4.442   4.072   5.432
   15G      C5'  461   4.458   4.064   5.573
   15G      H5'  462   4.565   4.065   5.597
   15G     H5''  463   4.410   3.973   5.609
   15G      C4'  464   4.369   4.164   5.652
   15G      H4'  465   4.392   4.157   5.758
   15G      O4'  466   4.393   4.303   5.606
   15G      C1'  467   4.279   4.384   5.602
   15G      H1'  468   4.285   4.481   5.651
   15G       N9  469   4.227   4.407   5.461
   15G       C8  470   4.249   4.336   5.351
   15G       H8  471   4.302   4.241   5.355
   15G       N7  472   4.206   4.388   5.241
   15G       C5  473   4.128   4.499   5.295
   15G       C6  474   4.058   4.598   5.223
   15G       O6  475   4.050   4.613   5.097
   15G       N1  476   4.004   4.693   5.303
   15G       H1  477   3.975   4.778   5.255
   15G       C2  478   4.015   4.688   5.438
   15G       N2  479   3.958   4.791   5.494
   15G      H21  480   3.918   4.855   5.426
   15G      H22  481   3.941   4.806   5.592
   15G       N3  482   4.083   4.603   5.511
   15G       C4  483   4.147   4.511   5.429
   15G      C3'  484   4.217   4.158   5.636
   15G      H3'  485   4.199   4.152   5.528
   15G      C2'  486   4.174   4.292   5.683
   15G      H2'  487   4.077   4.319   5.641
   15G      O2'  488   4.185   4.321   5.826
   15G     HO2'  489   4.178   4.416   5.832
   15G      O3'  490   4.139   4.056   5.695
   16U        P  491   4.015   3.998   5.607
   16U      OP1  492   3.941   3.896   5.690
   16U      OP2  493   4.073   3.960   5.477
   16U      O5'  494   3.908   4.116   5.574
   16U      C5'  495   3.854   4.192   5.682
   16U      H5'  496   3.924   4.219   5.761
   16U     H5''  497   3.777   4.139   5.737
   16U      C4'  498   3.769   4.312   5.634
   16U      H4'  499   3.732   4.355   5.727
   16U      O4'  500   3.841   4.412   5.551
   16U      C1'  501   3.746   4.452   5.448
   16U      H1'  502   3.739   4.561   5.447
   16U       N1  503   3.787   4.415   5.304
   16U       C6  504   3.860   4.305   5.284
   16U       H6  505   3.891   4.246   5.369
   16U       C5  506   3.907   4.278   5.160
   16U       H5  507   3.980   4.201   5.141
   16U       C4  508   3.873   4.361   5.045
   16U       O4  509   3.920   4.357   4.935
   16U       N3  510   3.769   4.447   5.071
   16U       H3  511   3.740   4.496   4.988
   16U       C2  512   3.737   4.490   5.197
   16U       O2  513   3.661   4.591   5.219
   16U      C3'  514   3.648   4.271   5.553
   16U      H3'  515   3.668   4.192   5.481
   16U      C2'  516   3.605   4.395   5.479
   16U      H2'  517   3.547   4.356   5.395
   16U      O2'  518   3.537   4.486   5.559
   16U     HO2'  519   3.450   4.448   5.570
   16U      O3'  520   3.545   4.218   5.641
   17U        P  521   3.416   4.156   5.568
   17U      OP1  522   3.329   4.099   5.671
   17U      OP2  523   3.462   4.069   5.460
   17U      O5'  524   3.346   4.279   5.509
   17U      C5'  525   3.215   4.319   5.546
   17U      H5'  526   3.204   4.308   5.654
   17U     H5''  527   3.143   4.255   5.494
   17U      C4'  528   3.179   4.462   5.501
   17U      H4'  529   3.074   4.480   5.527
   17U      O4'  530   3.261   4.568   5.570
   17U      C1'  531   3.279   4.681   5.493
   17U      H1'  532   3.184   4.735   5.498
   17U       N1  533   3.388   4.778   5.532
   17U       C6  534   3.490   4.811   5.451
   17U       H6  535   3.493   4.775   5.349
   17U       C5  536   3.594   4.880   5.492
   17U       H5  537   3.666   4.910   5.417
   17U       C4  538   3.604   4.924   5.625
   17U       O4  539   3.695   4.998   5.667
   17U       N3  540   3.498   4.887   5.707
   17U       H3  541   3.497   4.903   5.807
   17U       C2  542   3.386   4.817   5.665
   17U       O2  543   3.299   4.792   5.748
   17U      C3'  544   3.205   4.494   5.351
   17U      H3'  545   3.253   4.412   5.297
   17U      C2'  546   3.295   4.608   5.356
   17U      H2'  547   3.394   4.564   5.351
   17U      O2'  548   3.276   4.700   5.249
   17U     HO2'  549   3.194   4.676   5.204
   17U      O3'  550   3.080   4.522   5.295
   18A        P  551   3.013   4.413   5.188
   18A      OP1  552   2.880   4.462   5.146
   18A      OP2  553   3.028   4.275   5.241
   18A      O5'  554   3.112   4.412   5.070
   18A      C5'  555   3.105   4.518   4.975
   18A      H5'  556   3.129   4.611   5.028
   18A     H5''  557   3.002   4.537   4.948
   18A      C4'  558   3.187   4.489   4.853
   18A      H4'  559   3.149   4.552   4.773
   18A      O4'  560   3.319   4.540   4.872
   18A      C1'  561   3.404   4.427   4.837
   18A      H1'  562   3.494   4.468   4.790
   18A       N9  563   3.452   4.359   4.964
   18A       C8  564   3.425   4.394   5.091
   18A       H8  565   3.361   4.479   5.113
   18A       N7  566   3.473   4.312   5.184
   18A       C5  567   3.546   4.228   5.101
   18A       C6  568   3.627   4.117   5.114
   18A       N6  569   3.640   4.053   5.232
   18A      H61  570   3.690   3.966   5.243
   18A      H62  571   3.571   4.085   5.298
   18A       N1  572   3.691   4.053   5.020
   18A       C2  573   3.675   4.090   4.897
   18A       H2  574   3.728   4.035   4.821
   18A       N3  575   3.595   4.195   4.857
   18A       C4  576   3.536   4.258   4.966
   18A      C3'  577   3.185   4.345   4.798
   18A      H3'  578   3.173   4.269   4.876
   18A      C2'  579   3.328   4.333   4.748
   18A      H2'  580   3.363   4.229   4.754
   18A      O2'  581   3.342   4.376   4.614
   18A     HO2'  582   3.259   4.407   4.579
   18A      O3'  583   3.097   4.330   4.692
   19G        P  584   3.041   4.190   4.652
   19G      OP1  585   2.973   4.204   4.525
   19G      OP2  586   2.967   4.129   4.770
   19G      O5'  587   3.169   4.100   4.625
   19G      C5'  588   3.226   4.073   4.495
   19G      H5'  589   3.284   4.155   4.454
   19G     H5''  590   3.147   4.051   4.424
   19G      C4'  591   3.320   3.955   4.518
   19G      H4'  592   3.347   3.914   4.421
   19G      O4'  593   3.433   3.988   4.592
   19G      C1'  594   3.473   3.876   4.673
   19G      H1'  595   3.575   3.840   4.661
   19G       N9  596   3.431   3.903   4.816
   19G       C8  597   3.340   3.979   4.872
   19G       H8  598   3.285   4.051   4.814
   19G       N7  599   3.320   3.961   5.002
   19G       C5  600   3.409   3.861   5.036
   19G       C6  601   3.443   3.783   5.152
   19G       O6  602   3.394   3.786   5.265
   19G       N1  603   3.550   3.697   5.135
   19G       H1  604   3.578   3.651   5.220
   19G       C2  605   3.599   3.660   5.016
   19G       N2  606   3.678   3.557   5.002
   19G      H21  607   3.703   3.499   5.081
   19G      H22  608   3.731   3.557   4.916
   19G       N3  609   3.570   3.727   4.902
   19G       C4  610   3.477   3.832   4.923
   19G      C3'  611   3.259   3.827   4.583
   19G      H3'  612   3.196   3.864   4.664
   19G      C2'  613   3.384   3.755   4.625
   19G      H2'  614   3.365   3.686   4.708
   19G      O2'  615   3.468   3.703   4.528
   19G     HO2'  616   3.404   3.677   4.462
   19G      O3'  617   3.201   3.740   4.485
   20G        P  618   3.075   3.640   4.523
   20G      OP1  619   3.014   3.593   4.393
   20G      OP2  620   2.995   3.710   4.621
   20G      O5'  621   3.160   3.519   4.593
   20G      C5'  622   3.240   3.432   4.516
   20G      H5'  623   3.301   3.489   4.446
   20G     H5''  624   3.180   3.359   4.461
   20G      C4'  625   3.330   3.353   4.616
   20G      H4'  626   3.405   3.291   4.567
   20G      O4'  627   3.402   3.448   4.702
   20G      C1'  628   3.405   3.394   4.834
   20G      H1'  629   3.507   3.381   4.872
   20G       N9  630   3.326   3.464   4.935
   20G       C8  631   3.220   3.552   4.918
   20G       H8  632   3.174   3.563   4.821
   20G       N7  633   3.158   3.584   5.032
   20G       C5  634   3.238   3.519   5.131
   20G       C6  635   3.216   3.504   5.274
   20G       O6  636   3.123   3.544   5.338
   20G       N1  637   3.320   3.435   5.338
   20G       H1  638   3.305   3.409   5.435
   20G       C2  639   3.404   3.363   5.262
   20G       N2  640   3.479   3.287   5.338
   20G      H21  641   3.459   3.280   5.436
   20G      H22  642   3.564   3.246   5.301
   20G       N3  643   3.426   3.367   5.128
   20G       C4  644   3.339   3.445   5.069
   20G      C3'  645   3.248   3.259   4.702
   20G      H3'  646   3.151   3.300   4.729
   20G      C2'  647   3.339   3.255   4.822
   20G      H2'  648   3.280   3.229   4.910
   20G      O2'  649   3.452   3.166   4.804
   20G     HO2'  650   3.425   3.080   4.838
   20G      O3'  651   3.230   3.138   4.621
   21G3       P  652   3.120   3.030   4.668
   21G3     OP1  653   3.090   2.951   4.542
   21G3     OP2  654   3.007   3.091   4.746
   21G3     O5'  655   3.202   2.940   4.774
   21G3     C5'  656   3.327   2.876   4.743
   21G3     H5'  657   3.389   2.935   4.675
   21G3    H5''  658   3.308   2.783   4.689
   21G3     C4'  659   3.408   2.827   4.862
   21G3     H4'  660   3.499   2.774   4.834
   21G3     O4'  661   3.451   2.933   4.944
   21G3     C1'  662   3.446   2.897   5.084
   21G3     H1'  663   3.549   2.896   5.119
   21G3      N9  664   3.369   2.989   5.165
   21G3      C8  665   3.257   3.060   5.136
   21G3      H8  666   3.225   3.076   5.034
   21G3      N7  667   3.191   3.106   5.242
   21G3      C5  668   3.267   3.065   5.349
   21G3      C6  669   3.243   3.069   5.491
   21G3      O6  670   3.161   3.133   5.555
   21G3      N1  671   3.333   2.996   5.564
   21G3      H1  672   3.311   2.975   5.660
   21G3      C2  673   3.427   2.913   5.507
   21G3      N2  674   3.504   2.852   5.598
   21G3     H21  675   3.472   2.865   5.693
   21G3     H22  676   3.567   2.779   5.567
   21G3      N3  677   3.464   2.915   5.378
   21G3      C4  678   3.374   2.987   5.304
   21G3     C3'  679   3.322   2.737   4.957
   21G3     H3'  680   3.220   2.773   4.963
   21G3     C2'  681   3.397   2.753   5.093
   21G3     H2'  682   3.322   2.750   5.172
   21G3     O2'  683   3.506   2.667   5.108
   21G3    HO2'  684   3.490   2.590   5.053
   21G3     O3'  685   3.324   2.600   4.927
   21G3    HO3'  686   3.272   2.584   4.848
   22Cl-    Cl-  687   7.833   6.442   9.400
   23Cl-    Cl-  688   1.038   4.223   6.490
   24Cl-    Cl-  689   4.768   3.869   3.472
   25Cl-    Cl-  690   9.743   0.617   7.936
   26Cl-    Cl-  691   7.842   9.503   9.763
   27Cl-    Cl-  692   9.645   2.903   5.714
   28Cl-    Cl-  693   2.633   1.444   7.467
   29Cl-    Cl-  694   4.789   0.423   5.856
   30Cl-    Cl-  695   6.011   0.518   3.871
   31Cl-    Cl-  696   7.843   1.369   1.177
   32Cl-    Cl-  697   8.445   6.217   7.909
   33Cl-    Cl-  698   2.550   5.469   6.398
   34Cl-    Cl-  699   0.691   0.223   3.709
   35Cl-    Cl-  700   4.289   6.376   8.172
   36Cl-    Cl-  701   8.363   7.830   5.311
   37Cl-    Cl-  702   9.388   6.242   4.204
   38Cl-    Cl-  703   4.150   3.519   7.307
   39Cl-    Cl-  704   5.989   6.600   6.697
   40Cl-    Cl-  705   1.721   9.354   9.712
   41Cl-    Cl-  706   2.591   2.471   8.992
   42Cl-    Cl-  707   7.826   2.675   2.320
   43Cl-    Cl-  708   4.246   3.518   2.742
   44Cl-    Cl-  709   0.851   6.421   2.748
   45Cl-    Cl-  710   9.575   4.578   6.305
   46Cl-    Cl-  711   9.824   7.362   2.724
   47Cl-    Cl-  712   0.504   5.537   0.665
   48Cl-    Cl-  713   7.418   2.033   0.368
   49Cl-    Cl-  714   1.223   1.701   3.191
   50Cl-    Cl-  715   9.063   2.033   4.878
   51Cl-    Cl-  716   6.096   2.971   0.878
   52Cl-    Cl-  717   4.754   1.309   5.241
   53Cl-    Cl-  718   2.384   7.710   5.898
   54Cl-    Cl-  719   4.006   7.339   5.551
   55Cl-    Cl-  720   1.998   6.802   3.247
   56Cl-    Cl-  721   7.821   2.569   2.798
   57Cl-    Cl-  722   3.414   0.882   4.869
   58Cl-    Cl-  723   9.422   4.112   1.443
   59Cl-    Cl-  724   5.088   0.550   5.290
   60Cl-    Cl-  725   4.678   1.875   3.162
   61Cl-    Cl-  726   0.769   0.358   4.902
   62Cl-    Cl-  727   2.406   0.327   9.830
   63Cl-    Cl-  728   7.853   3.368   6.564
   64Cl-    Cl-  729   5.429   6.965   1.163
   65Cl-    Cl-  730   5.334   6.443   2.912
   66Cl-    Cl-  731   6.155   5.770   9.520
   67Cl-    Cl-  732   3.439   5.193   6.538
   68Cl-    Cl-  733   8.455   2.175   3.128
   69Cl-    Cl-  734   9.874   6.088   6.925
   70Cl-    Cl-  735   6.069   7.877   1.140
   71Cl-    Cl-  736   0.067   2.575   7.490
   72Cl-    Cl-  737   5.550   8.100   8.204
   73Cl-    Cl-  738   0.748   4.947   4.915
   74Cl-    Cl-  739   1.294   0.932   9.435
   75Cl-    Cl-  740   9.718   6.823   1.657
   76Cl-    Cl-  741   5.740   1.143   9.619
   77Cl-    Cl-  742   8.568   3.914   1.018
   78Cl-    Cl-  743   6.853   3.379   1.997
   79Cl-    Cl-  744   6.720   2.119   0.770
   80Cl-    Cl-  745   0.723   8.548   8.238
   81Cl-    Cl-  746   3.591   3.475   1.727
   82Cl-    Cl-  747   2.180   4.728   1.171
   83Cl-    Cl-  748   3.369   6.075   9.088
   84Cl-    Cl-  749   8.630   3.972   0.309
   85Cl-    Cl-  750   8.270   5.116   3.578
   86Cl-    Cl-  751   5.187   4.751   9.229
   87Cl-    Cl-  752   1.226   5.278   2.595
   88Cl-    Cl-  753   0.404   7.223   1.036
   89Cl-    Cl-  754   8.782   0.086   9.243
   90Cl-    Cl-  755   9.266   2.401   9.007
   91Cl-    Cl-  756   1.255   8.394   1.601
   92Cl-    Cl-  757   4.817   5.100   2.600
   93Cl-    Cl-  758   5.679   1.258   7.204
   94Cl-    Cl-  759   9.038   1.837   3.534
   95Cl-    Cl-  760   3.974   6.760   9.284
   96Cl-    Cl-  761   4.804   6.806   5.911
   97Cl-    Cl-  762   1.200   9.347   6.058
   98Cl-    Cl-  763   4.922   0.981   5.893
   99Cl-    Cl-  764   0.916   1.206   7.503
  100Cl-    Cl-  765   6.201   4.000   9.135
  101Cl-    Cl-  766   3.003   3.800   7.754
  102Cl-    Cl-  767   5.385   6.257   5.038
  103Cl-    Cl-  768   6.055   5.542   8.172
  104Cl-    Cl-  769   4.450   6.570   3.561
  105Cl-    Cl-  770   0.160   6.184   9.274
  106Cl-    Cl-  771   4.394   4.717   8.959
  107K+      K+  772   5.555   3.225   2.896
  108K+      K+  773   5.325   4.283   9.189
  109K+      K+  774   4.595   6.042   6.112
  110K+      K+  775   3.266   3.893   5.454
  111K+      K+  776   4.110   4.261   4.745
  112K+      K+  777   1.618   7.086   4.612
  113K+      K+  778   1.564   6.942   5.503
  114K+      K+  779   1.803   4.605   5.172
  115K+      K+  780   6.262   6.212   8.571
  116K+      K+  781   6.598   4.606   5.662
  117K+      K+  782   3.437   5.070   0.903
  118K+      K+  783   7.066   5.085   5.285
  119K+      K+  784   5.795   1.500   4.862
  120K+      K+  785   6.856   5.516   4.241
  121K+      K+  786   8.186   4.022   0.580
  122K+      K+  787   2.930   5.606   3.234
  123K+      K+  788   3.368   7.415   2.122
  124K+      K+  789   5.215   5.428   5.199
  125K+      K+  790   5.735   5.574   5.270
  126K+      K+  791   2.023   5.485   9.122
  127K+      K+  792   4.093   4.543   2.271
  128K+      K+  793   5.813   5.848   5.566
  129K+      K+  794   4.323   5.512   5.148
  130K+      K+  795   7.884   7.693   1.826
  131K+      K+  796   1.872   0.647   5.112
  132K+      K+  797   9.857   3.947   7.274
  133K+      K+  798   6.446   5.330   0.116
  134K+      K+  799   5.657   9.527   0.101
  135K+      K+  800   3.072   3.871   5.105
  136K+      K+  801   0.060   6.685   7.431
  137K+      K+  802   6.034   2.270   0.255
  138K+      K+  803   5.469   7.557   1.228
  139K+      K+  804   2.944   4.430   6.204
  140K+      K+  805   4.608   4.943   4.727
  141K+      K+  806   9.692   0.043   8.861
  142K+      K+  807   1.755   9.030   0.987
  143K+      K+  808   9.421   5.980   9.460
  144K+      K+  809   1.648   0.190   9.854
  145K+      K+  810   3.913   5.265   6.622
  146K+      K+  811   5.784   4.814   9.855
  147K+      K+  812   9.698   9.727   4.458
  148K+      K+  813   9.426   7.396   1.108
  149K+      K+  814   7.655   7.193   8.457
  150K+      K+  815   9.230   8.023   4.871
  151K+      K+  816   0.922   4.813   2.772
  152K+      K+  817   9.650   8.789   7.252
  153K+      K+  818   7.254   0.655   8.065
  154K+      K+  819   4.425   2.925   6.922
  155K+      K+  820   8.151   1.862   2.715
  156K+      K+  821   7.923   2.065   3.172
  157K+      K+  822   4.750   8.287   6.666
  158K+      K+  823   5.063   5.413   8.969
  159K+      K+  824   4.248   4.631   4.949
  160K+      K+  825   3.061   2.626   6.624
  161K+      K+  826   9.270   2.076   8.936
  162K+      K+  827   0.756   7.333   3.238
  163K+      K+  828   7.488   4.471   7.999
  164K+      K+  829   3.511   7.672   1.911
  165K+      K+  830   5.057   4.173   5.328
  166K+      K+  831   5.472   0.274   5.886
  167K+      K+  832   0.800   4.086   0.203
  168K+      K+  833   5.961   7.416   1.709
  169K+      K+  834   7.324   7.965   4.124
  170K+      K+  835   6.991   1.810   9.858
  171K+      K+  836   8.640   4.944   5.437
  172K+      K+  837   8.070   8.648   7.062
  173K+      K+  838   4.421   3.054   7.649
  174K+      K+  839   3.972   6.456   8.205
  175K+      K+  840   8.728   1.600   4.404
  176K+      K+  841   9.854   5.124   5.277
  177K+      K+  842   6.011   9.134   8.372
  178K+      K+  843   4.251   3.854   4.778
  179K+      K+  844   3.007   5.661   9.615
  180K+      K+  845   1.958   2.164   5.162
  181K+      K+  846   1.435   1.466   2.616
  182K+      K+  847   8.943   0.289   5.969
  183K+      K+  848   8.294   4.411   0.642
  184K+      K+  849   1.078   0.041   0.395
  185K+      K+  850   4.819   3.852   7.191
  186K+      K+  851   6.617   4.696   4.777
  187K+      K+  852   0.960   9.084   8.618
  188K+      K+  853   4.848   1.469   2.228
  189K+      K+  854   0.132   9.624   1.555
  190K+      K+  855   0.521   6.164   9.802
  191K+      K+  856   1.817   5.440   5.648
  192K+      K+  857   7.478   3.883   7.006
  193K+      K+  858   5.229   4.406   3.918
  194K+      K+  859   1.522   7.634   7.304
  195K+      K+  860   4.242   5.285   1.580
  196K+      K+  861   7.786   5.378   3.124
  197K+      K+  862   1.608   4.863   8.203
  198K+      K+  863   1.170   6.031   3.781
  199K+      K+  864   9.863   3.722   1.538
  200K+      K+  865   8.413   1.257   7.908
  201K+      K+  866   6.673   4.537   1.203
  202K+      K+  867   4.047   5.430   3.917
  203K+      K+  868   5.850   1.475   0.589
  204K+      K+  869   3.784   2.962   5.265
  205K+      K+  870   1.435   1.563   7.021
  206K+      K+  871   2.159   1.709   8.012
  207K+      K+  872   9.498   3.393   7.576
  208K+      K+  873   3.590   4.254   4.530
  209K+      K+  874   0.720   5.058   7.048
  210K+      K+  875   6.077   0.777   3.457
  211K+      K+  876   9.585   4.305   4.382
  212WAT      O  877   2.089   4.600   4.365
  212WAT     H1  878   2.138   4.677   4.325
  212WAT     H2  879   2.061   4.623   4.458
  213WAT      O  880   0.067   9.174   9.419
  213WAT     H1  881   0.060   9.233   9.339
  213WAT     H2  882   0.005   9.208   9.490
  214WAT      O  883   7.161   8.117   2.796
  214WAT     H1  884   7.252   8.082   2.775
  214WAT     H2  885   7.094   8.043   2.785
  215WAT      O  886   9.119   2.235   4.247
  215WAT     H1  887   9.099   2.319   4.298
  215WAT     H2  888   9.035   2.182   4.236
  216WAT      O  889   2.512   6.720   4.242
  216WAT     H1  890   2.590   6.783   4.237
  216WAT     H2  891   2.507   6.679   4.333
  217WAT      O  892   6.547   6.181   5.116
  217WAT     H1  893   6.579   6.089   5.093
  217WAT     H2  894   6.618   6.229   5.167
  218WAT      O  895   2.048   8.758   4.169
  218WAT     H1  896   2.128   8.814   4.151
  218WAT     H2  897   2.023   8.707   4.087
  219WAT      O  898   7.382   2.096   2.921
  219WAT     H1  899   7.467   2.144   2.896
  219WAT     H2  900   7.367   2.021   2.856
  220WAT      O  901   6.347   6.644   7.410
  220WAT     H1  902   6.260   6.654   7.459
  220WAT     H2  903   6.403   6.575   7.456
  221WAT      O  904   8.904   3.944   3.285
  221WAT     H1  905   8.974   3.944   3.213
  221WAT     H2  906   8.824   3.995   3.253
  222WAT      O  907   9.633   6.066   0.369
  222WAT     H1  908   9.635   5.972   0.405
  222WAT     H2  909   9.720   6.111   0.391
  223WAT      O  910   5.501   7.632   0.572
  223WAT     H1  911   5.456   7.625   0.661
  223WAT     H2  912   5.498   7.727   0.540
  224WAT      O  913   6.874   0.526   2.595
  224WAT     H1  914   6.856   0.434   2.629
  224WAT     H2  915   6.788   0.575   2.583
  225WAT      O  916   2.585   0.242   1.885
  225WAT     H1  917   2.516   0.190   1.936
  225WAT     H2  918   2.676   0.210   1.910
  226WAT      O  919   8.937   3.771   1.655
  226WAT     H1  920   8.962   3.863   1.625
  226WAT     H2  921   8.890   3.723   1.580
  227WAT      O  922   3.156   8.111   5.811
  227WAT     H1  923   3.064   8.140   5.834
  227WAT     H2  924   3.154   8.015   5.780
  228WAT      O  925   3.431   6.349   5.700
  228WAT     H1  926   3.517   6.366   5.748
  228WAT     H2  927   3.447   6.351   5.601
  229WAT      O  928   9.572   1.505   5.690
  229WAT     H1  929   9.520   1.498   5.775
  229WAT     H2  930   9.670   1.509   5.712
  230WAT      O  931   1.487   4.760   8.873
  230WAT     H1  932   1.464   4.775   8.969
  230WAT     H2  933   1.494   4.662   8.855
  231WAT      O  934   1.988   7.595   6.276
  231WAT     H1  935   1.937   7.563   6.196
  231WAT     H2  936   1.938   7.670   6.319
  232WAT      O  937   2.935   8.745   5.205
  232WAT     H1  938   2.910   8.693   5.287
  232WAT     H2  939   2.943   8.683   5.128
  233WAT      O  940   3.379   4.203   3.469
  233WAT     H1  941   3.291   4.177   3.429
  233WAT     H2  942   3.389   4.302   3.468
  234WAT      O  943   9.092   5.431   0.969
  234WAT     H1  944   9.143   5.410   0.886
  234WAT     H2  945   9.063   5.346   1.012
  235WAT      O  946   2.621   2.562   0.138
  235WAT     H1  947   2.628   2.478   0.084
  235WAT     H2  948   2.533   2.563   0.187
  236WAT      O  949   2.576   1.732   9.704
  236WAT     H1  950   2.622   1.820   9.705
  236WAT     H2  951   2.629   1.667   9.649
  237WAT      O  952   1.845   2.173   1.979
  237WAT     H1  953   1.880   2.238   1.911
  237WAT     H2  954   1.895   2.087   1.972
  238WAT      O  955   3.577   8.285   8.018
  238WAT     H1  956   3.487   8.315   7.986
  238WAT     H2  957   3.594   8.324   8.109
  239WAT      O  958   2.606   2.993   9.127
  239WAT     H1  959   2.565   3.069   9.176
  239WAT     H2  960   2.571   2.990   9.033
  240WAT      O  961   2.382   8.285   1.524
  240WAT     H1  962   2.331   8.272   1.609
  240WAT     H2  963   2.321   8.324   1.455
  241WAT      O  964   4.309   9.505   8.220
  241WAT     H1  965   4.394   9.463   8.252
  241WAT     H2  966   4.293   9.590   8.269
  242WAT      O  967   6.272   3.994   3.024
  242WAT     H1  968   6.360   4.039   3.003
  242WAT     H2  969   6.259   3.918   2.961
  243WAT      O  970   8.514   8.465   5.595
  243WAT     H1  971   8.524   8.477   5.496
  243WAT     H2  972   8.551   8.376   5.622
  244WAT      O  973   8.212   3.094   2.687
  244WAT     H1  974   8.114   3.106   2.703
  244WAT     H2  975   8.251   3.179   2.651
  245WAT      O  976   5.958   3.070   1.154
  245WAT     H1  977   5.949   3.052   1.056
  245WAT     H2  978   5.960   2.984   1.204
  246WAT      O  979   0.735   6.710   8.644
  246WAT     H1  980   0.725   6.655   8.727
  246WAT     H2  981   0.660   6.688   8.581
  247WAT      O  982   2.430   5.650   3.990
  247WAT     H1  983   2.454   5.614   4.080
  247WAT     H2  984   2.396   5.576   3.932
  248WAT      O  985   5.969   2.977   3.238
  248WAT     H1  986   5.871   2.979   3.221
  248WAT     H2  987   6.018   2.960   3.153
  249WAT      O  988   5.467   6.156   1.876
  249WAT     H1  989   5.473   6.196   1.785
  249WAT     H2  990   5.530   6.203   1.938
  250WAT      O  991   7.954   8.623   4.307
  250WAT     H1  992   8.023   8.588   4.243
  250WAT     H2  993   7.999   8.677   4.378
  251WAT      O  994   5.020   5.973   3.216
  251WAT     H1  995   5.105   5.988   3.266
  251WAT     H2  996   4.945   5.958   3.282
  252WAT      O  997   2.768   0.808   4.574
  252WAT     H1  998   2.850   0.799   4.631
  252WAT     H2  999   2.697   0.747   4.609
  253WAT      O 1000   7.682   5.798   8.439
  253WAT     H1 1001   7.732   5.712   8.433
  253WAT     H2 1002   7.736   5.864   8.492
  254WAT      O 1003   3.280   8.784   3.642
  254WAT     H1 1004   3.314   8.733   3.563
  254WAT     H2 1005   3.288   8.728   3.725
  255WAT      O 1006   0.881   1.625   0.627
  255WAT     H1 1007   0.856   1.706   0.681
  255WAT     H2 1008   0.902   1.652   0.533
  256WAT      O 1009   7.025   2.190   3.250
  256WAT     H1 1010   7.085   2.142   3.185
  256WAT     H2 1011   6.969   2.256   3.200
  257WAT      O 1012   5.868   0.662   4.229
  257WAT     H1 1013   5.819   0.626   4.308
  257WAT     H2 1014   5.806   0.669   4.152
  258WAT      O 1015   9.148   6.346   7.684
  258WAT     H1 1016   9.235   6.349   7.733
  258WAT     H2 1017   9.086   6.281   7.729
  259WAT      O 1018   3.293   8.135   3.856
  259WAT     H1 1019   3.362   8.090   3.912
  259WAT     H2 1020   3.276   8.081   3.774
  260WAT      O 1021   0.493   5.598   3.600
  260WAT     H1 1022   0.409   5.567   3.554
  260WAT     H2 1023   0.489   5.697   3.614
  261WAT      O 1024   2.000   2.636   0.605
  261WAT     H1 1025   1.939   2.715   0.603
  261WAT     H2 1026   1.949   2.556   0.637
  262WAT      O 1027   0.131   7.699   7.144
  262WAT     H1 1028   0.220   7.661   7.118
  262WAT     H2 1029   0.141   7.751   7.229
  263WAT      O 1030   9.179   3.786   1.090
  263WAT     H1 1031   9.172   3.815   1.185
  263WAT     H2 1032   9.106   3.827   1.036
  264WAT      O 1033   7.312   5.698   5.161
  264WAT     H1 1034   7.282   5.647   5.080
  264WAT     H2 1035   7.320   5.795   5.138
  265WAT      O 1036   6.859   1.244   6.799
  265WAT     H1 1037   6.765   1.245   6.766
  265WAT     H2 1038   6.860   1.263   6.897
  266WAT      O 1039   5.708   7.961   4.699
  266WAT     H1 1040   5.802   7.996   4.701
  266WAT     H2 1041   5.666   7.986   4.612
  267WAT      O 1042   8.519   4.518   1.325
  267WAT     H1 1043   8.447   4.501   1.258
  267WAT     H2 1044   8.482   4.572   1.401
  268WAT      O 1045   5.398   5.022   7.116
  268WAT     H1 1046   5.441   5.065   7.196
  268WAT     H2 1047   5.432   5.066   7.033
  269WAT      O 1048   0.826   3.947   8.177
  269WAT     H1 1049   0.913   3.978   8.212
  269WAT     H2 1050   0.841   3.876   8.107
  270WAT      O 1051   5.115   5.807   0.587
  270WAT     H1 1052   5.059   5.888   0.568
  270WAT     H2 1053   5.205   5.835   0.620
  271WAT      O 1054   3.798   5.922   8.946
  271WAT     H1 1055   3.866   5.904   8.875
  271WAT     H2 1056   3.708   5.937   8.904
  272WAT      O 1057   2.945   7.376   1.873
  272WAT     H1 1058   2.957   7.361   1.775
  272WAT     H2 1059   3.017   7.329   1.923
  273WAT      O 1060   3.100   4.028   0.665
  273WAT     H1 1061   3.151   4.022   0.579
  273WAT     H2 1062   3.162   4.055   0.739
  274WAT      O 1063   8.100   5.982   8.218
  274WAT     H1 1064   8.096   5.988   8.118
  274WAT     H2 1065   8.094   6.074   8.256
  275WAT      O 1066   3.931   0.184   8.151
  275WAT     H1 1067   3.977   0.128   8.082
  275WAT     H2 1068   3.872   0.252   8.106
  276WAT      O 1069   4.637   9.087   0.746
  276WAT     H1 1070   4.583   9.007   0.722
  276WAT     H2 1071   4.705   9.062   0.815
  277WAT      O 1072   9.485   8.913   3.752
  277WAT     H1 1073   9.541   8.831   3.759
  277WAT     H2 1074   9.544   8.992   3.734
  278WAT      O 1075   4.668   4.483   0.576
  278WAT     H1 1076   4.714   4.401   0.541
  278WAT     H2 1077   4.724   4.563   0.557
  279WAT      O 1078   5.220   8.412   5.940
  279WAT     H1 1079   5.158   8.374   5.872
  279WAT     H2 1080   5.168   8.440   6.021
  280WAT      O 1081   5.908   3.293   9.667
  280WAT     H1 1082   5.830   3.258   9.720
  280WAT     H2 1083   5.993   3.262   9.708
  281WAT      O 1084   9.511   3.251   6.344
  281WAT     H1 1085   9.593   3.240   6.287
  281WAT     H2 1086   9.535   3.236   6.440
  282WAT      O 1087   7.320   8.661   9.371
  282WAT     H1 1088   7.225   8.652   9.401
  282WAT     H2 1089   7.359   8.745   9.410
  283WAT      O 1090   1.505   2.617   9.617
  283WAT     H1 1091   1.456   2.548   9.670
  283WAT     H2 1092   1.533   2.579   9.529
  284WAT      O 1093   4.786   5.643   6.201
  284WAT     H1 1094   4.701   5.632   6.252
  284WAT     H2 1095   4.765   5.670   6.107
  285WAT      O 1096   6.059   4.605   3.490
  285WAT     H1 1097   5.998   4.563   3.423
  285WAT     H2 1098   6.071   4.702   3.468
  286WAT      O 1099   7.436   4.131   6.941
  286WAT     H1 1100   7.387   4.212   6.972
  286WAT     H2 1101   7.522   4.158   6.897
  287WAT      O 1102   0.276   0.980   0.438
  287WAT     H1 1103   0.283   1.022   0.347
  287WAT     H2 1104   0.259   0.882   0.428
  288WAT      O 1105   0.413   2.608   8.678
  288WAT     H1 1106   0.377   2.562   8.759
  288WAT     H2 1107   0.498   2.655   8.701
  289WAT      O 1108   3.103   4.550   9.186
  289WAT     H1 1109   3.052   4.588   9.109
  289WAT     H2 1110   3.197   4.531   9.157
  290WAT      O 1111   3.777   7.824   8.953
  290WAT     H1 1112   3.742   7.821   8.860
  290WAT     H2 1113   3.876   7.837   8.952
  291WAT      O 1114   1.679   6.988   2.881
  291WAT     H1 1115   1.694   7.026   2.972
  291WAT     H2 1116   1.765   6.987   2.830
  292WAT      O 1117   5.479   1.256   4.859
  292WAT     H1 1118   5.452   1.227   4.951
  292WAT     H2 1119   5.426   1.338   4.834
  293WAT      O 1120   4.659   2.422   6.339
  293WAT     H1 1121   4.610   2.337   6.357
  293WAT     H2 1122   4.705   2.416   6.250
  294WAT      O 1123   5.590   6.038   2.931
  294WAT     H1 1124   5.610   6.092   2.849
  294WAT     H2 1125   5.569   5.944   2.905
  295WAT      O 1126   8.485   1.748   3.769
  295WAT     H1 1127   8.388   1.763   3.749
  295WAT     H2 1128   8.541   1.800   3.705
  296WAT      O 1129   4.191   3.017   7.203
  296WAT     H1 1130   4.145   3.026   7.115
  296WAT     H2 1131   4.271   2.957   7.193
  297WAT      O 1132   4.623   8.581   7.254
  297WAT     H1 1133   4.713   8.624   7.258
  297WAT     H2 1134   4.570   8.622   7.180
  298WAT      O 1135   1.767   8.336   2.852
  298WAT     H1 1136   1.818   8.319   2.767
  298WAT     H2 1137   1.759   8.435   2.866
  299WAT      O 1138   4.542   1.435   1.044
  299WAT     H1 1139   4.568   1.354   1.097
  299WAT     H2 1140   4.514   1.508   1.106
  300WAT      O 1141   6.259   1.066   7.566
  300WAT     H1 1142   6.253   0.966   7.567
  300WAT     H2 1143   6.310   1.098   7.646
  301WAT      O 1144   5.707   3.433   6.473
  301WAT     H1 1145   5.733   3.468   6.562
  301WAT     H2 1146   5.716   3.334   6.472
  302WAT      O 1147   2.648   9.026   4.201
  302WAT     H1 1148   2.651   9.019   4.101
  302WAT     H2 1149   2.738   9.000   4.238
  303WAT      O 1150   0.588   2.881   7.363
  303WAT     H1 1151   0.635   2.911   7.280
  303WAT     H2 1152   0.571   2.960   7.422
  304WAT      O 1153   9.707   7.799   5.469
  304WAT     H1 1154   9.797   7.805   5.426
  304WAT     H2 1155   9.683   7.888   5.508
  305WAT      O 1156   8.542   2.815   7.541
  305WAT     H1 1157   8.607   2.777   7.476
  305WAT     H2 1158   8.451   2.818   7.500
  306WAT      O 1159   8.051   9.677   0.181
  306WAT     H1 1160   8.142   9.700   0.148
  306WAT     H2 1161   7.985   9.683   0.106
  307WAT      O 1162   5.001   1.247   2.244
  307WAT     H1 1163   4.966   1.190   2.319
  307WAT     H2 1164   5.092   1.282   2.269
  308WAT      O 1165   7.185   3.771   2.814
  308WAT     H1 1166   7.182   3.728   2.904
  308WAT     H2 1167   7.176   3.701   2.743
  309WAT      O 1168   7.966   5.836   7.168
  309WAT     H1 1169   7.976   5.886   7.082
  309WAT     H2 1170   7.901   5.884   7.227
  310WAT      O 1171   2.242   0.265   2.751
  310WAT     H1 1172   2.236   0.299   2.658
  310WAT     H2 1173   2.154   0.278   2.797
  311WAT      O 1174   4.260   0.079   4.052
  311WAT     H1 1175   4.240  -0.006   4.101
  311WAT     H2 1176   4.263   0.154   4.118
  312WAT      O 1177   1.173   7.837   3.821
  312WAT     H1 1178   1.130   7.791   3.742
  312WAT     H2 1179   1.260   7.791   3.842
  313WAT      O 1180   3.081   3.403   2.684
  313WAT     H1 1181   3.074   3.308   2.653
  313WAT     H2 1182   3.112   3.460   2.608
  314WAT      O 1183   7.568   0.889   8.684
  314WAT     H1 1184   7.608   0.801   8.711
  314WAT     H2 1185   7.612   0.921   8.600
  315WAT      O 1186   5.541   6.609   9.665
  315WAT     H1 1187   5.622   6.665   9.680
  315WAT     H2 1188   5.500   6.632   9.577
  316WAT      O 1189   5.617   5.623   6.559
  316WAT     H1 1190   5.688   5.563   6.522
  316WAT     H2 1191   5.541   5.629   6.495
  317WAT      O 1192   7.174   8.025   8.474
  317WAT     H1 1193   7.234   7.956   8.515
  317WAT     H2 1194   7.219   8.114   8.476
  318WAT      O 1195   3.414   7.834   0.475
  318WAT     H1 1196   3.509   7.857   0.497
  318WAT     H2 1197   3.353   7.890   0.531
  319WAT      O 1198   3.887   3.003   7.510
  319WAT     H1 1199   3.939   3.073   7.559
  319WAT     H2 1200   3.810   3.046   7.462
  320WAT      O 1201   0.899   9.713   1.899
  320WAT     H1 1202   0.870   9.617   1.901
  320WAT     H2 1203   0.990   9.721   1.939
  321WAT      O 1204   9.521   5.955   7.769
  321WAT     H1 1205   9.520   5.997   7.678
  321WAT     H2 1206   9.432   5.912   7.786
  322WAT      O 1207   3.061   1.433   2.458
  322WAT     H1 1208   3.096   1.516   2.415
  322WAT     H2 1209   3.094   1.353   2.408
  323WAT      O 1210   6.148   0.760   8.577
  323WAT     H1 1211   6.150   0.773   8.676
  323WAT     H2 1212   6.054   0.749   8.546
  324WAT      O 1213   6.599   0.563   6.590
  324WAT     H1 1214   6.555   0.613   6.666
  324WAT     H2 1215   6.643   0.628   6.529
  325WAT      O 1216   2.915   6.230   3.898
  325WAT     H1 1217   2.923   6.329   3.883
  325WAT     H2 1218   2.818   6.204   3.899
  326WAT      O 1219   0.930   5.775   1.355
  326WAT     H1 1220   0.840   5.816   1.373
  326WAT     H2 1221   0.947   5.773   1.257
  327WAT      O 1222   6.507   2.746   8.574
  327WAT     H1 1223   6.484   2.738   8.671
  327WAT     H2 1224   6.460   2.825   8.534
  328WAT      O 1225   7.971   0.928   1.848
  328WAT     H1 1226   7.965   0.921   1.749
  328WAT     H2 1227   8.066   0.944   1.875
  329WAT      O 1228   7.787   6.775   7.662
  329WAT     H1 1229   7.739   6.861   7.679
  329WAT     H2 1230   7.864   6.767   7.725
  330WAT      O 1231   8.059   5.222   9.339
  330WAT     H1 1232   7.985   5.162   9.306
  330WAT     H2 1233   8.077   5.203   9.435
  331WAT      O 1234   5.462   4.706   3.190
  331WAT     H1 1235   5.455   4.805   3.177
  331WAT     H2 1236   5.394   4.660   3.133
  332WAT      O 1237   3.456   5.453   0.313
  332WAT     H1 1238   3.401   5.504   0.246
  332WAT     H2 1239   3.486   5.367   0.273
  333WAT      O 1240   8.348   8.467   5.831
  333WAT     H1 1241   8.248   8.471   5.826
  333WAT     H2 1242   8.386   8.490   5.742
  334WAT      O 1243   2.692   5.338   2.728
  334WAT     H1 1244   2.651   5.336   2.819
  334WAT     H2 1245   2.772   5.279   2.726
  335WAT      O 1246   0.332   2.343   1.596
  335WAT     H1 1247   0.346   2.280   1.520
  335WAT     H2 1248   0.393   2.319   1.672
  336WAT      O 1249   4.660   0.476   0.036
  336WAT     H1 1250   4.754   0.511   0.031
  336WAT     H2 1251   4.644   0.435   0.126
  337WAT      O 1252   7.240   8.531   0.063
  337WAT     H1 1253   7.174   8.476   0.115
  337WAT     H2 1254   7.311   8.565   0.125
  338WAT      O 1255   6.689   3.900   0.064
  338WAT     H1 1256   6.695   3.996   0.093
  338WAT     H2 1257   6.763   3.847   0.106
  339WAT      O 1258   9.422   4.726   0.624
  339WAT     H1 1259   9.469   4.642   0.652
  339WAT     H2 1260   9.487   4.787   0.579
  340WAT      O 1261   0.265   4.005   9.312
  340WAT     H1 1262   0.174   3.963   9.310
  340WAT     H2 1263   0.332   3.942   9.271
  341WAT      O 1264   7.377   6.503   4.637
  341WAT     H1 1265   7.297   6.453   4.604
  341WAT     H2 1266   7.434   6.529   4.559
  342WAT      O 1267   6.491   3.312   2.987
  342WAT     H1 1268   6.566   3.253   2.956
  342WAT     H2 1269   6.415   3.257   3.020
  343WAT      O 1270   5.709   4.171   7.870
  343WAT     H1 1271   5.715   4.210   7.778
  343WAT     H2 1272   5.677   4.077   7.865
  344WAT      O 1273   0.832   2.253   7.040
  344WAT     H1 1274   0.803   2.312   6.964
  344WAT     H2 1275   0.760   2.248   7.109
  345WAT      O 1276   8.050   6.458   1.997
  345WAT     H1 1277   7.975   6.487   2.056
  345WAT     H2 1278   8.125   6.524   2.003
  346WAT      O 1279   6.907   4.578   2.700
  346WAT     H1 1280   6.965   4.506   2.737
  346WAT     H2 1281   6.902   4.654   2.765
  347WAT      O 1282   3.411   6.172   6.772
  347WAT     H1 1283   3.406   6.271   6.763
  347WAT     H2 1284   3.505   6.141   6.761
  348WAT      O 1285   6.488   8.035   4.405
  348WAT     H1 1286   6.487   7.981   4.320
  348WAT     H2 1287   6.548   8.114   4.393
  349WAT      O 1288   3.231   2.337   2.210
  349WAT     H1 1289   3.307   2.323   2.147
  349WAT     H2 1290   3.259   2.312   2.302
  350WAT      O 1291   7.448   8.758   1.272
  350WAT     H1 1292   7.539   8.785   1.302
  350WAT     H2 1293   7.451   8.728   1.177
  351WAT      O 1294   5.600   4.786   6.517
  351WAT     H1 1295   5.687   4.835   6.524
  351WAT     H2 1296   5.562   4.773   6.609
  352WAT      O 1297   0.031   2.874   5.580
  352WAT     H1 1298  -0.042   2.878   5.649
  352WAT     H2 1299  -0.009   2.867   5.489
  353WAT      O 1300   2.738   9.797   6.096
  353WAT     H1 1301   2.675   9.720   6.107
  353WAT     H2 1302   2.827   9.762   6.067
  354WAT      O 1303   0.194   9.372   1.499
  354WAT     H1 1304   0.141   9.333   1.424
  354WAT     H2 1305   0.207   9.303   1.570
  355WAT      O 1306   1.567   3.428   6.767
  355WAT     H1 1307   1.613   3.382   6.691
  355WAT     H2 1308   1.474   3.452   6.741
  356WAT      O 1309   7.637   0.862   2.144
  356WAT     H1 1310   7.554   0.838   2.093
  356WAT     H2 1311   7.649   0.798   2.220
  357WAT      O 1312   9.753   6.956   8.147
  357WAT     H1 1313   9.666   6.997   8.121
  357WAT     H2 1314   9.785   6.998   8.232
  358WAT      O 1315   6.855   5.249   7.313
  358WAT     H1 1316   6.919   5.220   7.384
  358WAT     H2 1317   6.769   5.276   7.355
  359WAT      O 1318   2.180   1.338   6.473
  359WAT     H1 1319   2.232   1.269   6.523
  359WAT     H2 1320   2.084   1.333   6.499
  360WAT      O 1321   5.273   3.733   4.621
  360WAT     H1 1322   5.259   3.794   4.698
  360WAT     H2 1323   5.367   3.740   4.588
  361WAT      O 1324   8.412   6.426   6.975
  361WAT     H1 1325   8.482   6.357   6.957
  361WAT     H2 1326   8.328   6.402   6.926
  362WAT      O 1327   0.639   8.046   8.343
  362WAT     H1 1328   0.548   8.079   8.372
  362WAT     H2 1329   0.631   8.002   8.254
  363WAT      O 1330   3.185   6.145   0.113
  363WAT     H1 1331   3.091   6.174   0.096
  363WAT     H2 1332   3.235   6.218   0.158
  364WAT      O 1333   4.293   6.040   4.490
  364WAT     H1 1334   4.202   6.006   4.466
  364WAT     H2 1335   4.305   6.033   4.589
  365WAT      O 1336   0.502   7.734   3.146
  365WAT     H1 1337   0.444   7.793   3.201
  365WAT     H2 1338   0.524   7.779   3.060
  366WAT      O 1339   7.509   1.987   9.811
  366WAT     H1 1340   7.531   1.896   9.847
  366WAT     H2 1341   7.575   2.054   9.846
  367WAT      O 1342   2.842   2.140   8.743
  367WAT     H1 1343   2.769   2.100   8.799
  367WAT     H2 1344   2.847   2.238   8.760
  368WAT      O 1345   3.463   0.993   4.565
  368WAT     H1 1346   3.437   0.974   4.660
  368WAT     H2 1347   3.443   0.914   4.508
  369WAT      O 1348   7.380   0.789   5.817
  369WAT     H1 1349   7.378   0.864   5.751
  369WAT     H2 1350   7.389   0.825   5.910
  370WAT      O 1351   3.102   6.395   7.233
  370WAT     H1 1352   3.175   6.396   7.165
  370WAT     H2 1353   3.141   6.383   7.324
  371WAT      O 1354   5.418   5.390   8.322
  371WAT     H1 1355   5.445   5.466   8.263
  371WAT     H2 1356   5.499   5.351   8.365
  372WAT      O 1357   4.394   2.566   4.751
  372WAT     H1 1358   4.339   2.540   4.830
  372WAT     H2 1359   4.441   2.485   4.714
  373WAT      O 1360   1.664   3.634   8.785
  373WAT     H1 1361   1.661   3.688   8.701
  373WAT     H2 1362   1.656   3.537   8.763
  374WAT      O 1363   4.736   4.606   1.065
  374WAT     H1 1364   4.726   4.508   1.045
  374WAT     H2 1365   4.803   4.619   1.138
  375WAT      O 1366   2.552   8.944   9.478
  375WAT     H1 1367   2.477   8.948   9.543
  375WAT     H2 1368   2.518   8.913   9.389
  376WAT      O 1369   3.264   9.047   8.674
  376WAT     H1 1370   3.243   9.045   8.771
  376WAT     H2 1371   3.268   9.141   8.642
  377WAT      O 1372   6.322   1.860   7.520
  377WAT     H1 1373   6.400   1.849   7.582
  377WAT     H2 1374   6.259   1.928   7.558
  378WAT      O 1375   0.351   6.583   0.971
  378WAT     H1 1376   0.436   6.636   0.979
  378WAT     H2 1377   0.372   6.485   0.970
  379WAT      O 1378   0.262   6.185   8.755
  379WAT     H1 1379   0.353   6.171   8.795
  379WAT     H2 1380   0.202   6.226   8.824
  380WAT      O 1381   4.015   8.264   2.290
  380WAT     H1 1382   3.942   8.223   2.345
  380WAT     H2 1383   4.031   8.358   2.320
  381WAT      O 1384   7.998   8.865   4.679
  381WAT     H1 1385   7.946   8.785   4.707
  381WAT     H2 1386   7.979   8.941   4.742
  382WAT      O 1387   3.394   2.375   1.508
  382WAT     H1 1388   3.481   2.372   1.558
  382WAT     H2 1389   3.329   2.311   1.548
  383WAT      O 1390   2.753   5.622   2.680
  383WAT     H1 1391   2.737   5.523   2.687
  383WAT     H2 1392   2.769   5.646   2.584
  384WAT      O 1393   4.086   3.930   2.157
  384WAT     H1 1394   4.183   3.916   2.140
  384WAT     H2 1395   4.050   3.855   2.212
  385WAT      O 1396   7.695   5.948   0.502
  385WAT     H1 1397   7.712   5.868   0.559
  385WAT     H2 1398   7.712   5.925   0.406
  386WAT      O 1399   9.469   7.371   9.493
  386WAT     H1 1400   9.411   7.308   9.442
  386WAT     H2 1401   9.565   7.342   9.484
  387WAT      O 1402   4.518   5.424   4.912
  387WAT     H1 1403   4.499   5.512   4.954
  387WAT     H2 1404   4.435   5.387   4.872
  388WAT      O 1405   4.604   1.152   3.611
  388WAT     H1 1406   4.684   1.091   3.614
  388WAT     H2 1407   4.578   1.178   3.704
  389WAT      O 1408   2.753   3.135   2.961
  389WAT     H1 1409   2.843   3.147   3.003
  389WAT     H2 1410   2.764   3.119   2.863
  390WAT      O 1411   6.102   2.269   7.789
  390WAT     H1 1412   6.119   2.367   7.783
  390WAT     H2 1413   6.005   2.251   7.776
  391WAT      O 1414   2.607   7.370   5.422
  391WAT     H1 1415   2.522   7.407   5.384
  391WAT     H2 1416   2.593   7.347   5.519
  392WAT      O 1417   2.053   2.073   0.192
  392WAT     H1 1418   2.120   1.999   0.187
  392WAT     H2 1419   2.100   2.161   0.202
  393WAT      O 1420   3.980   9.130   7.058
  393WAT     H1 1421   3.881   9.122   7.059
  393WAT     H2 1422   4.017   9.102   7.147
  394WAT      O 1423   9.316   5.604   1.870
  394WAT     H1 1424   9.373   5.530   1.904
  394WAT     H2 1425   9.302   5.671   1.942
  395WAT      O 1426   0.841   5.273   6.048
  395WAT     H1 1427   0.838   5.203   5.977
  395WAT     H2 1428   0.936   5.303   6.062
  396WAT      O 1429   0.352   9.252   3.979
  396WAT     H1 1430   0.379   9.198   4.059
  396WAT     H2 1431   0.431   9.304   3.946
  397WAT      O 1432   9.257   0.495   5.704
  397WAT     H1 1433   9.330   0.560   5.686
  397WAT     H2 1434   9.267   0.415   5.645
  398WAT      O 1435   6.457   9.296   2.216
  398WAT     H1 1436   6.397   9.333   2.287
  398WAT     H2 1437   6.402   9.269   2.137
  399WAT      O 1438   8.155   2.826   3.431
  399WAT     H1 1439   8.124   2.921   3.425
  399WAT     H2 1440   8.209   2.814   3.515
  400WAT      O 1441   1.413   0.496   8.156
  400WAT     H1 1442   1.368   0.460   8.074
  400WAT     H2 1443   1.455   0.584   8.135
  401WAT      O 1444   4.882   8.140   2.530
  401WAT     H1 1445   4.795   8.093   2.545
  401WAT     H2 1446   4.940   8.129   2.611
  402WAT      O 1447   4.004   6.732   4.894
  402WAT     H1 1448   4.085   6.675   4.905
  402WAT     H2 1449   4.032   6.828   4.889
  403WAT      O 1450   1.660   7.795   4.843
  403WAT     H1 1451   1.606   7.847   4.910
  403WAT     H2 1452   1.654   7.839   4.754
  404WAT      O 1453   3.457   6.199   4.780
  404WAT     H1 1454   3.493   6.291   4.795
  404WAT     H2 1455   3.363   6.194   4.815
  405WAT      O 1456   9.728   8.959   6.727
  405WAT     H1 1457   9.820   8.972   6.762
  405WAT     H2 1458   9.718   9.008   6.640
  406WAT      O 1459   8.783   3.601   0.412
  406WAT     H1 1460   8.829   3.665   0.473
  406WAT     H2 1461   8.684   3.611   0.421
  407WAT      O 1462   2.403   8.293   7.772
  407WAT     H1 1463   2.475   8.360   7.756
  407WAT     H2 1464   2.336   8.297   7.698
  408WAT      O 1465   2.638   4.258   0.221
  408WAT     H1 1466   2.684   4.335   0.176
  408WAT     H2 1467   2.650   4.176   0.165
  409WAT      O 1468   1.154   6.784   7.957
  409WAT     H1 1469   1.101   6.729   8.020
  409WAT     H2 1470   1.094   6.847   7.908
  410WAT      O 1471   3.990   2.825   9.170
  410WAT     H1 1472   4.050   2.746   9.177
  410WAT     H2 1473   3.977   2.866   9.261
  411WAT      O 1474   6.665   7.486   4.309
  411WAT     H1 1475   6.700   7.445   4.225
  411WAT     H2 1476   6.579   7.442   4.335
  412WAT      O 1477   7.675   2.268   5.290
  412WAT     H1 1478   7.670   2.200   5.363
  412WAT     H2 1479   7.627   2.233   5.210
  413WAT      O 1480   1.832   7.776   0.498
  413WAT     H1 1481   1.839   7.766   0.398
  413WAT     H2 1482   1.821   7.873   0.521
  414WAT      O 1483   8.226   2.830   1.466
  414WAT     H1 1484   8.158   2.762   1.492
  414WAT     H2 1485   8.199   2.872   1.379
  415WAT      O 1486   6.547   8.103   1.366
  415WAT     H1 1487   6.466   8.161   1.372
  415WAT     H2 1488   6.621   8.144   1.420
  416WAT      O 1489   0.392   5.055   5.938
  416WAT     H1 1490   0.492   5.048   5.935
  416WAT     H2 1491   0.360   5.039   6.031
  417WAT      O 1492   3.827   3.411   8.991
  417WAT     H1 1493   3.805   3.317   9.017
  417WAT     H2 1494   3.827   3.419   8.891
  418WAT      O 1495   3.072   8.457   5.804
  418WAT     H1 1496   3.168   8.433   5.788
  418WAT     H2 1497   3.023   8.463   5.717
  419WAT      O 1498   1.721   5.697   9.795
  419WAT     H1 1499   1.623   5.714   9.800
  419WAT     H2 1500   1.768   5.778   9.762
  420WAT      O 1501   2.817   8.338   2.492
  420WAT     H1 1502   2.881   8.366   2.563
  420WAT     H2 1503   2.782   8.419   2.444
  421WAT      O 1504   5.123   7.313   3.886
  421WAT     H1 1505   5.065   7.339   3.964
  421WAT     H2 1506   5.111   7.215   3.867
  422WAT      O 1507   8.957   0.510   6.141
  422WAT     H1 1508   8.905   0.590   6.169
  422WAT     H2 1509   9.033   0.495   6.206
  423WAT      O 1510   9.067   4.191   5.048
  423WAT     H1 1511   9.087   4.101   5.087
  423WAT     H2 1512   8.981   4.187   4.998
  424WAT      O 1513   8.158   7.535   4.788
  424WAT     H1 1514   8.069   7.492   4.803
  424WAT     H2 1515   8.220   7.512   4.863
  425WAT      O 1516   1.799   8.811   7.311
  425WAT     H1 1517   1.851   8.895   7.295
  425WAT     H2 1518   1.748   8.787   7.229
  426WAT      O 1519   9.608   2.930   6.538
  426WAT     H1 1520   9.520   2.911   6.495
  426WAT     H2 1521   9.681   2.917   6.471
  427WAT      O 1522   2.253   4.639   6.077
  427WAT     H1 1523   2.159   4.623   6.046
  427WAT     H2 1524   2.264   4.736   6.099
  428WAT      O 1525   9.430   9.761   8.900
  428WAT     H1 1526   9.345   9.765   8.848
  428WAT     H2 1527   9.411   9.726   8.992
  429WAT      O 1528   6.655   0.532   0.785
  429WAT     H1 1529   6.562   0.500   0.772
  429WAT     H2 1530   6.715   0.454   0.804
  430WAT      O 1531   8.878   5.661   0.664
  430WAT     H1 1532   8.808   5.639   0.731
  430WAT     H2 1533   8.901   5.579   0.611
  431WAT      O 1534   6.602   9.476   9.191
  431WAT     H1 1535   6.559   9.459   9.280
  431WAT     H2 1536   6.545   9.437   9.119
  432WAT      O 1537   7.433   4.297   8.186
  432WAT     H1 1538   7.356   4.237   8.164
  432WAT     H2 1539   7.408   4.356   8.263
  433WAT      O 1540   0.137   0.812   1.535
  433WAT     H1 1541   0.116   0.725   1.579
  433WAT     H2 1542   0.113   0.887   1.596
  434WAT      O 1543   1.744   5.652   2.896
  434WAT     H1 1544   1.812   5.639   2.824
  434WAT     H2 1545   1.781   5.712   2.967
  435WAT      O 1546   3.926   6.799   6.356
  435WAT     H1 1547   4.026   6.798   6.344
  435WAT     H2 1548   3.895   6.708   6.382
  436WAT      O 1549   9.467   4.730   1.596
  436WAT     H1 1550   9.544   4.792   1.612
  436WAT     H2 1551   9.414   4.719   1.680
  437WAT      O 1552   7.728   1.729   7.983
  437WAT     H1 1553   7.794   1.793   8.021
  437WAT     H2 1554   7.685   1.677   8.057
  438WAT      O 1555   2.507   2.717   5.628
  438WAT     H1 1556   2.475   2.789   5.566
  438WAT     H2 1557   2.537   2.759   5.714
  439WAT      O 1558   3.941   5.964   9.656
  439WAT     H1 1559   3.987   5.890   9.705
  439WAT     H2 1560   3.964   5.958   9.559
  440WAT      O 1561   0.401   3.429   0.599
  440WAT     H1 1562   0.455   3.353   0.562
  440WAT     H2 1563   0.450   3.515   0.583
  441WAT      O 1564   1.656   5.605   0.414
  441WAT     H1 1565   1.614   5.638   0.499
  441WAT     H2 1566   1.754   5.594   0.427
  442WAT      O 1567   5.773   6.788   7.468
  442WAT     H1 1568   5.782   6.732   7.385
  442WAT     H2 1569   5.745   6.881   7.442
  443WAT      O 1570   3.758   8.452   5.060
  443WAT     H1 1571   3.660   8.464   5.044
  443WAT     H2 1572   3.790   8.370   5.014
  444WAT      O 1573   6.664   7.229   8.356
  444WAT     H1 1574   6.595   7.200   8.289
  444WAT     H2 1575   6.748   7.254   8.309
  445WAT      O 1576   5.032   9.736   0.840
  445WAT     H1 1577   5.022   9.641   0.810
  445WAT     H2 1578   5.018   9.797   0.762
  446WAT      O 1579   4.743   7.997   9.539
  446WAT     H1 1580   4.644   7.984   9.533
  446WAT     H2 1581   4.765   8.094   9.526
  447WAT      O 1582   2.438   1.911   4.816
  447WAT     H1 1583   2.482   1.823   4.796
  447WAT     H2 1584   2.503   1.971   4.861
  448WAT      O 1585   3.184   5.825   1.907
  448WAT     H1 1586   3.208   5.733   1.873
  448WAT     H2 1587   3.236   5.893   1.856
  449WAT      O 1588   4.686   6.198   0.394
  449WAT     H1 1589   4.679   6.222   0.491
  449WAT     H2 1590   4.721   6.276   0.342
  450WAT      O 1591   9.681   1.993   9.747
  450WAT     H1 1592   9.744   1.923   9.713
  450WAT     H2 1593   9.728   2.050   9.814
  451WAT      O 1594   7.382   9.636   6.117
  451WAT     H1 1595   7.415   9.714   6.169
  451WAT     H2 1596   7.439   9.556   6.135
  452WAT      O 1597   8.581   2.837   5.740
  452WAT     H1 1598   8.636   2.905   5.692
  452WAT     H2 1599   8.626   2.813   5.827
  453WAT      O 1600   4.860   9.220   9.113
  453WAT     H1 1601   4.950   9.247   9.146
  453WAT     H2 1602   4.832   9.134   9.157
  454WAT      O 1603   3.377   3.428   9.132
  454WAT     H1 1604   3.441   3.485   9.081
  454WAT     H2 1605   3.391   3.442   9.230
  455WAT      O 1606   9.777   5.509   7.384
  455WAT     H1 1607   9.754   5.583   7.447
  455WAT     H2 1608   9.693   5.474   7.342
  456WAT      O 1609   9.324   9.361   9.398
  456WAT     H1 1610   9.296   9.457   9.398
  456WAT     H2 1611   9.334   9.328   9.304
  457WAT      O 1612   3.747   2.944   8.008
  457WAT     H1 1613   3.754   2.952   8.107
  457WAT     H2 1614   3.737   3.036   7.968
  458WAT      O 1615   9.800   8.219   5.113
  458WAT     H1 1616   9.783   8.159   5.191
  458WAT     H2 1617   9.727   8.286   5.105
  459WAT      O 1618   2.281   1.084   5.315
  459WAT     H1 1619   2.268   1.031   5.398
  459WAT     H2 1620   2.378   1.101   5.301
  460WAT      O 1621   2.214   8.667   9.345
  460WAT     H1 1622   2.166   8.754   9.341
  460WAT     H2 1623   2.295   8.676   9.403
  461WAT      O 1624   3.529   0.461   4.209
  461WAT     H1 1625   3.430   0.456   4.201
  461WAT     H2 1626   3.554   0.513   4.291
  462WAT      O 1627   0.231   8.387   4.407
  462WAT     H1 1628   0.297   8.410   4.336
  462WAT     H2 1629   0.268   8.411   4.497
  463WAT      O 1630   8.826   4.229   2.716
  463WAT     H1 1631   8.760   4.282   2.769
  463WAT     H2 1632   8.877   4.289   2.655
  464WAT      O 1633   6.387   1.568   2.634
  464WAT     H1 1634   6.452   1.537   2.704
  464WAT     H2 1635   6.298   1.585   2.676
  465WAT      O 1636   9.714   9.076   8.286
  465WAT     H1 1637   9.745   9.162   8.247
  465WAT     H2 1638   9.786   9.007   8.279
  466WAT      O 1639   8.837   5.517   9.686
  466WAT     H1 1640   8.801   5.580   9.617
  466WAT     H2 1641   8.762   5.481   9.741
  467WAT      O 1642   9.579   2.770   0.765
  467WAT     H1 1643   9.503   2.759   0.700
  467WAT     H2 1644   9.544   2.811   0.849
  468WAT      O 1645   1.690   6.009   0.727
  468WAT     H1 1646   1.724   6.103   0.727
  468WAT     H2 1647   1.591   6.010   0.744
  469WAT      O 1648   3.100   0.079   6.062
  469WAT     H1 1649   3.102   0.086   5.962
  469WAT     H2 1650   3.086  -0.016   6.088
  470WAT      O 1651   7.959   7.333   4.827
  470WAT     H1 1652   8.016   7.298   4.901
  470WAT     H2 1653   7.864   7.338   4.857
  471WAT      O 1654   1.458   8.870   8.321
  471WAT     H1 1655   1.377   8.900   8.271
  471WAT     H2 1656   1.435   8.790   8.377
  472WAT      O 1657   7.846   1.788   1.927
  472WAT     H1 1658   7.891   1.700   1.946
  472WAT     H2 1659   7.750   1.772   1.903
  473WAT      O 1660   7.262   1.208   2.971
  473WAT     H1 1661   7.197   1.206   2.894
  473WAT     H2 1662   7.323   1.129   2.964
  474WAT      O 1663   3.749   4.147   8.494
  474WAT     H1 1664   3.711   4.196   8.572
  474WAT     H2 1665   3.682   4.145   8.420
  475WAT      O 1666   2.118   8.546   2.221
  475WAT     H1 1667   2.033   8.497   2.239
  475WAT     H2 1668   2.153   8.520   2.131
  476WAT      O 1669   2.315   4.975   6.885
  476WAT     H1 1670   2.371   5.039   6.833
  476WAT     H2 1671   2.264   5.025   6.955
  477WAT      O 1672   1.353   5.047   1.637
  477WAT     H1 1673   1.281   4.994   1.592
  477WAT     H2 1674   1.420   4.985   1.677
  478WAT      O 1675   8.388   9.402   5.855
  478WAT     H1 1676   8.293   9.432   5.865
  478WAT     H2 1677   8.421   9.369   5.944
  479WAT      O 1678   5.523   6.279   1.616
  479WAT     H1 1679   5.621   6.259   1.606
  479WAT     H2 1680   5.492   6.332   1.537
  480WAT      O 1681   5.854   9.840   5.646
  480WAT     H1 1682   5.809   9.837   5.557
  480WAT     H2 1683   5.897   9.752   5.665
  481WAT      O 1684   1.400   5.146   6.613
  481WAT     H1 1685   1.388   5.161   6.712
  481WAT     H2 1686   1.399   5.047   6.595
  482WAT      O 1687   7.583   7.133   1.563
  482WAT     H1 1688   7.601   7.230   1.543
  482WAT     H2 1689   7.623   7.110   1.652
  483WAT      O 1690   2.330   6.443   5.008
  483WAT     H1 1691   2.403   6.478   5.067
  483WAT     H2 1692   2.369   6.381   4.940
  484WAT      O 1693   6.744   0.126   6.548
  484WAT     H1 1694   6.786   0.084   6.468
  484WAT     H2 1695   6.727   0.223   6.530
  485WAT      O 1696   1.240   8.836   5.478
  485WAT     H1 1697   1.286   8.757   5.438
  485WAT     H2 1698   1.305   8.912   5.485
  486WAT      O 1699   2.563   5.387   7.286
  486WAT     H1 1700   2.476   5.390   7.236
  486WAT     H2 1701   2.615   5.470   7.268
  487WAT      O 1702   9.628   2.297   2.482
  487WAT     H1 1703   9.563   2.267   2.551
  487WAT     H2 1704   9.666   2.386   2.509
  488WAT      O 1705   5.085   9.498   1.518
  488WAT     H1 1706   5.149   9.559   1.471
  488WAT     H2 1707   5.103   9.500   1.616
  489WAT      O 1708   6.882   0.485   7.791
  489WAT     H1 1709   6.936   0.422   7.735
  489WAT     H2 1710   6.817   0.433   7.846
  490WAT      O 1711   7.982   0.658   4.607
  490WAT     H1 1712   8.068   0.689   4.567
  490WAT     H2 1713   7.981   0.558   4.610
  491WAT      O 1714   8.822   4.756   9.053
  491WAT     H1 1715   8.748   4.780   8.990
  491WAT     H2 1716   8.818   4.659   9.074
  492WAT      O 1717   8.967   4.682   0.764
  492WAT     H1 1718   8.900   4.715   0.697
  492WAT     H2 1719   8.935   4.703   0.856
  493WAT      O 1720   8.455   6.390   2.767
  493WAT     H1 1721   8.387   6.338   2.819
  493WAT     H2 1722   8.411   6.467   2.721
  494WAT      O 1723   0.178   2.925   7.035
  494WAT     H1 1724   0.092   2.968   7.007
  494WAT     H2 1725   0.162   2.828   7.053
  495WAT      O 1726   2.014   5.166   1.648
  495WAT     H1 1727   2.083   5.221   1.693
  495WAT     H2 1728   1.993   5.086   1.704
  496WAT      O 1729   3.961   0.723   5.033
  496WAT     H1 1730   3.886   0.670   4.995
  496WAT     H2 1731   3.950   0.730   5.132
  497WAT      O 1732   7.369   4.124   0.203
  497WAT     H1 1733   7.368   4.042   0.145
  497WAT     H2 1734   7.302   4.113   0.276
  498WAT      O 1735   8.813   1.738   1.264
  498WAT     H1 1736   8.805   1.640   1.246
  498WAT     H2 1737   8.903   1.757   1.305
  499WAT      O 1738   5.222   6.491   7.860
  499WAT     H1 1739   5.135   6.490   7.909
  499WAT     H2 1740   5.227   6.412   7.799
  500WAT      O 1741   1.782   0.874   5.180
  500WAT     H1 1742   1.750   0.871   5.274
  500WAT     H2 1743   1.847   0.949   5.168
  501WAT      O 1744   2.303   7.922   2.353
  501WAT     H1 1745   2.395   7.899   2.323
  501WAT     H2 1746   2.237   7.892   2.284
  502WAT      O 1747   3.647   6.071   6.760
  502WAT     H1 1748   3.726   6.123   6.792
  502WAT     H2 1749   3.629   5.996   6.823
  503WAT      O 1750   4.387   8.156   9.805
  503WAT     H1 1751   4.298   8.197   9.785
  503WAT     H2 1752   4.404   8.081   9.741
  504WAT      O 1753   2.302   3.757   8.587
  504WAT     H1 1754   2.251   3.842   8.594
  504WAT     H2 1755   2.244   3.686   8.547
  505WAT      O 1756   2.489   9.733   1.819
  505WAT     H1 1757   2.491   9.681   1.904
  505WAT     H2 1758   2.421   9.807   1.827
  506WAT      O 1759   1.784   8.752   5.688
  506WAT     H1 1760   1.856   8.801   5.639
  506WAT     H2 1761   1.695   8.778   5.652
  507WAT      O 1762   8.671   7.623   9.836
  507WAT     H1 1763   8.709   7.663   9.753
  507WAT     H2 1764   8.632   7.695   9.894
  508WAT      O 1765   5.467   7.600   2.490
  508WAT     H1 1766   5.548   7.620   2.435
  508WAT     H2 1767   5.479   7.513   2.538
  509WAT      O 1768   8.154   7.425   6.261
  509WAT     H1 1769   8.134   7.470   6.348
  509WAT     H2 1770   8.213   7.483   6.206
  510WAT      O 1771   8.786   9.353   7.157
  510WAT     H1 1772   8.838   9.438   7.148
  510WAT     H2 1773   8.695   9.366   7.117
  511WAT      O 1774   1.187   2.710   3.970
  511WAT     H1 1775   1.090   2.724   3.951
  511WAT     H2 1776   1.222   2.636   3.913
  512WAT      O 1777   6.242   8.641   3.983
  512WAT     H1 1778   6.156   8.688   4.006
  512WAT     H2 1779   6.229   8.587   3.900
  513WAT      O 1780   9.124   0.705   5.141
  513WAT     H1 1781   9.135   0.664   5.232
  513WAT     H2 1782   9.088   0.797   5.149
  514WAT      O 1783   7.693   7.345   4.928
  514WAT     H1 1784   7.605   7.300   4.916
  514WAT     H2 1785   7.678   7.440   4.957
  515WAT      O 1786   4.326   6.765   0.712
  515WAT     H1 1787   4.278   6.753   0.625
  515WAT     H2 1788   4.362   6.858   0.718
  516WAT      O 1789   7.005   8.427   3.801
  516WAT     H1 1790   6.941   8.352   3.788
  516WAT     H2 1791   7.049   8.449   3.713
  517WAT      O 1792   1.739   3.067   0.976
  517WAT     H1 1793   1.817   3.010   1.003
  517WAT     H2 1794   1.737   3.075   0.876
  518WAT      O 1795   8.806   4.734   6.320
  518WAT     H1 1796   8.764   4.734   6.411
  518WAT     H2 1797   8.901   4.703   6.327
  519WAT      O 1798   7.329   8.982   1.903
  519WAT     H1 1799   7.382   9.050   1.852
  519WAT     H2 1800   7.232   8.999   1.889
  520WAT      O 1801   5.785   8.963   0.777
  520WAT     H1 1802   5.880   8.947   0.751
  520WAT     H2 1803   5.742   9.024   0.710
  521WAT      O 1804   6.177   3.526   4.286
  521WAT     H1 1805   6.175   3.620   4.252
  521WAT     H2 1806   6.100   3.510   4.347
  522WAT      O 1807   5.542   2.884   5.505
  522WAT     H1 1808   5.460   2.918   5.551
  522WAT     H2 1809   5.623   2.920   5.550
  523WAT      O 1810   4.173   4.906   4.026
  523WAT     H1 1811   4.130   4.816   4.033
  523WAT     H2 1812   4.272   4.897   4.039
  524WAT      O 1813   2.681   6.270   4.211
  524WAT     H1 1814   2.650   6.279   4.306
  524WAT     H2 1815   2.667   6.176   4.181
  525WAT      O 1816   8.724   9.083   7.224
  525WAT     H1 1817   8.756   9.177   7.232
  525WAT     H2 1818   8.778   9.035   7.155
  526WAT      O 1819   0.622   9.030   2.897
  526WAT     H1 1820   0.684   8.959   2.932
  526WAT     H2 1821   0.530   8.991   2.888
  527WAT      O 1822   3.181   5.003   8.413
  527WAT     H1 1823   3.235   4.998   8.329
  527WAT     H2 1824   3.130   4.918   8.425
  528WAT      O 1825   9.482   7.518   4.743
  528WAT     H1 1826   9.514   7.496   4.651
  528WAT     H2 1827   9.523   7.604   4.773
  529WAT      O 1828   2.387   4.663   5.750
  529WAT     H1 1829   2.356   4.570   5.732
  529WAT     H2 1830   2.369   4.687   5.846
  530WAT      O 1831   7.228   6.941   4.936
  530WAT     H1 1832   7.251   6.870   5.003
  530WAT     H2 1833   7.234   6.903   4.844
  531WAT      O 1834   6.041   1.017   4.588
  531WAT     H1 1835   6.011   1.019   4.493
  531WAT     H2 1836   5.965   0.986   4.646
  532WAT      O 1837   5.228   7.106   5.971
  532WAT     H1 1838   5.178   7.062   5.896
  532WAT     H2 1839   5.324   7.081   5.966
  533WAT      O 1840   6.859   3.646   2.832
  533WAT     H1 1841   6.871   3.605   2.741
  533WAT     H2 1842   6.924   3.606   2.896
  534WAT      O 1843   4.147   5.074   9.486
  534WAT     H1 1844   4.136   4.987   9.438
  534WAT     H2 1845   4.060   5.123   9.487
  535WAT      O 1846   3.557   6.593   0.011
  535WAT     H1 1847   3.656   6.604   0.000
  535WAT     H2 1848   3.509   6.649  -0.056
  536WAT      O 1849   4.730   7.503   5.973
  536WAT     H1 1850   4.793   7.524   5.899
  536WAT     H2 1851   4.763   7.423   6.023
  537WAT      O 1852   7.407   0.076   3.370
  537WAT     H1 1853   7.473   0.142   3.406
  537WAT     H2 1854   7.329   0.125   3.332
  538WAT      O 1855   5.312   7.630   4.868
  538WAT     H1 1856   5.239   7.562   4.874
  538WAT     H2 1857   5.322   7.659   4.773
  539WAT      O 1858   1.831   5.401   4.749
  539WAT     H1 1859   1.824   5.301   4.744
  539WAT     H2 1860   1.832   5.439   4.657
  540WAT      O 1861   4.831   7.213   6.004
  540WAT     H1 1862   4.927   7.234   6.019
  540WAT     H2 1863   4.812   7.208   5.906
  541WAT      O 1864   4.304   2.477   2.020
  541WAT     H1 1865   4.248   2.521   1.950
  541WAT     H2 1866   4.370   2.543   2.055
  542WAT      O 1867   4.313   2.595   0.266
  542WAT     H1 1868   4.337   2.548   0.181
  542WAT     H2 1869   4.226   2.558   0.301
  543WAT      O 1870   8.554   5.262   3.599
  543WAT     H1 1871   8.614   5.199   3.648
  543WAT     H2 1872   8.462   5.222   3.593
  544WAT      O 1873   5.885   6.292   8.275
  544WAT     H1 1874   5.786   6.306   8.271
  544WAT     H2 1875   5.917   6.250   8.190
  545WAT      O 1876   0.795   1.736   8.394
  545WAT     H1 1877   0.889   1.731   8.427
  545WAT     H2 1878   0.765   1.831   8.393
  546WAT      O 1879   2.337   2.376   0.476
  546WAT     H1 1880   2.237   2.379   0.473
  546WAT     H2 1881   2.367   2.286   0.508
  547WAT      O 1882   1.378   5.239   3.383
  547WAT     H1 1883   1.385   5.148   3.425
  547WAT     H2 1884   1.321   5.233   3.301
  548WAT      O 1885   9.080   8.060   0.936
  548WAT     H1 1886   9.007   8.017   0.883
  548WAT     H2 1887   9.041   8.116   1.008
  549WAT      O 1888   3.450   1.136   7.322
  549WAT     H1 1889   3.424   1.141   7.419
  549WAT     H2 1890   3.377   1.092   7.270
  550WAT      O 1891   0.781   8.416   6.964
  550WAT     H1 1892   0.774   8.516   6.964
  550WAT     H2 1893   0.838   8.388   6.886
  551WAT      O 1894   7.717   7.856   5.593
  551WAT     H1 1895   7.772   7.843   5.511
  551WAT     H2 1896   7.771   7.829   5.673
  552WAT      O 1897   5.937   0.453   0.576
  552WAT     H1 1898   5.846   0.465   0.616
  552WAT     H2 1899   6.001   0.515   0.621
  553WAT      O 1900   9.380   5.740   0.172
  553WAT     H1 1901   9.288   5.737   0.135
  553WAT     H2 1902   9.445   5.762   0.099
  554WAT      O 1903   3.576   1.969   8.827
  554WAT     H1 1904   3.642   1.897   8.847
  554WAT     H2 1905   3.509   1.975   8.900
  555WAT      O 1906   5.764   7.769   2.660
  555WAT     H1 1907   5.672   7.795   2.691
  555WAT     H2 1908   5.784   7.676   2.691
  556WAT      O 1909   1.527   4.879   2.637
  556WAT     H1 1910   1.572   4.967   2.650
  556WAT     H2 1911   1.443   4.891   2.585
  557WAT      O 1912   8.040   4.011   2.520
  557WAT     H1 1913   7.952   3.968   2.500
  557WAT     H2 1914   8.043   4.102   2.481
  558WAT      O 1915   8.097   0.816   3.686
  558WAT     H1 1916   8.057   0.829   3.595
  558WAT     H2 1917   8.181   0.869   3.694
  559WAT      O 1918   0.284   7.816   0.478
  559WAT     H1 1919   0.315   7.733   0.523
  559WAT     H2 1920   0.344   7.892   0.503
  560WAT      O 1921   7.190   6.676   0.230
  560WAT     H1 1922   7.251   6.601   0.208
  560WAT     H2 1923   7.195   6.697   0.328
  561WAT      O 1924   5.505   2.656   5.739
  561WAT     H1 1925   5.533   2.731   5.679
  561WAT     H2 1926   5.475   2.578   5.684
  562WAT      O 1927   8.606   0.756   0.501
  562WAT     H1 1928   8.582   0.849   0.471
  562WAT     H2 1929   8.568   0.740   0.592
  563WAT      O 1930   2.427   2.739   3.558
  563WAT     H1 1931   2.454   2.643   3.556
  563WAT     H2 1932   2.360   2.756   3.486
  564WAT      O 1933   4.628   8.532   3.224
  564WAT     H1 1934   4.605   8.625   3.251
  564WAT     H2 1935   4.664   8.482   3.303
  565WAT      O 1936   7.578   7.740   4.283
  565WAT     H1 1937   7.501   7.782   4.332
  565WAT     H2 1938   7.633   7.811   4.241
  566WAT      O 1939   1.812   2.055   3.787
  566WAT     H1 1940   1.741   2.119   3.816
  566WAT     H2 1941   1.883   2.049   3.858
  567WAT      O 1942   7.799   7.402   0.748
  567WAT     H1 1943   7.709   7.438   0.771
  567WAT     H2 1944   7.797   7.302   0.753
  568WAT      O 1945   2.216   5.087   7.086
  568WAT     H1 1946   2.208   5.139   7.171
  568WAT     H2 1947   2.127   5.048   7.062
  569WAT      O 1948   0.090   6.989   8.015
  569WAT     H1 1949   0.130   7.081   8.025
  569WAT     H2 1950  -0.001   6.987   8.055
  570WAT      O 1951   0.241   0.789   1.943
  570WAT     H1 1952   0.292   0.741   2.014
  570WAT     H2 1953   0.151   0.816   1.979
  571WAT      O 1954   1.287   1.766   4.565
  571WAT     H1 1955   1.240   1.843   4.522
  571WAT     H2 1956   1.220   1.706   4.609
  572WAT      O 1957   3.728   2.239   1.698
  572WAT     H1 1958   3.797   2.240   1.770
  572WAT     H2 1959   3.744   2.162   1.637
  573WAT      O 1960   7.919   8.040   8.392
  573WAT     H1 1961   8.002   8.023   8.340
  573WAT     H2 1962   7.854   8.090   8.335
  574WAT      O 1963   3.450   0.608   5.569
  574WAT     H1 1964   3.409   0.697   5.551
  574WAT     H2 1965   3.438   0.549   5.489
  575WAT      O 1966   5.604   8.132   7.764
  575WAT     H1 1967   5.697   8.116   7.797
  575WAT     H2 1968   5.582   8.230   7.773
  576WAT      O 1969   5.687   0.911   8.323
  576WAT     H1 1970   5.778   0.875   8.346
  576WAT     H2 1971   5.651   0.860   8.245
  577WAT      O 1972   2.810   0.168   7.362
  577WAT     H1 1973   2.785   0.194   7.269
  577WAT     H2 1974   2.907   0.189   7.378
  578WAT      O 1975   0.243   0.428   6.995
  578WAT     H1 1976   0.225   0.511   7.047
  578WAT     H2 1977   0.307   0.370   7.046
  579WAT      O 1978   7.903   8.677   6.113
  579WAT     H1 1979   7.999   8.661   6.136
  579WAT     H2 1980   7.890   8.772   6.087
  580WAT      O 1981   2.493   3.292   3.353
  580WAT     H1 1982   2.534   3.247   3.432
  580WAT     H2 1983   2.405   3.332   3.380
  581WAT      O 1984   4.307   1.216   4.164
  581WAT     H1 1985   4.392   1.268   4.164
  581WAT     H2 1986   4.253   1.241   4.244
  582WAT      O 1987   0.994   4.132   7.244
  582WAT     H1 1988   0.913   4.139   7.303
  582WAT     H2 1989   0.974   4.072   7.167
  583WAT      O 1990   6.380   0.501   0.314
  583WAT     H1 1991   6.391   0.581   0.255
  583WAT     H2 1992   6.340   0.529   0.401
  584WAT      O 1993   9.561   1.244   1.471
  584WAT     H1 1994   9.654   1.208   1.483
  584WAT     H2 1995   9.529   1.279   1.559
  585WAT      O 1996   7.478   9.365   9.531
  585WAT     H1 1997   7.440   9.457   9.518
  585WAT     H2 1998   7.576   9.366   9.509
  586WAT      O 1999   9.019   4.625   7.863
  586WAT     H1 2000   8.965   4.589   7.787
  586WAT     H2 2001   8.959   4.665   7.932
  587WAT      O 2002   0.697   3.834   7.643
  587WAT     H1 2003   0.633   3.897   7.599
  587WAT     H2 2004   0.691   3.745   7.598
  588WAT      O 2005   2.174   2.673   0.184
  588WAT     H1 2006   2.186   2.646   0.088
  588WAT     H2 2007   2.079   2.700   0.199
  589WAT      O 2008   3.297   6.404   2.508
  589WAT     H1 2009   3.383   6.442   2.540
  589WAT     H2 2010   3.283   6.429   2.412
  590WAT      O 2011   6.939   2.864   7.492
  590WAT     H1 2012   7.019   2.897   7.541
  590WAT     H2 2013   6.856   2.902   7.533
  591WAT      O 2014   9.383   2.659   6.420
  591WAT     H1 2015   9.307   2.723   6.434
  591WAT     H2 2016   9.403   2.652   6.322
  592WAT      O 2017   4.664   0.334   0.666
  592WAT     H1 2018   4.756   0.368   0.686
  592WAT     H2 2019   4.597   0.395   0.709
  593WAT      O 2020   5.395   1.076   4.294
  593WAT     H1 2021   5.383   0.984   4.332
  593WAT     H2 2022   5.488   1.084   4.256
  594WAT      O 2023   2.485   5.842   6.987
  594WAT     H1 2024   2.425   5.907   7.033
  594WAT     H2 2025   2.569   5.829   7.041
  595WAT      O 2026   7.097   4.599   0.482
  595WAT     H1 2027   7.007   4.571   0.449
  595WAT     H2 2028   7.087   4.667   0.554
  596WAT      O 2029   6.675   8.008   7.746
  596WAT     H1 2030   6.595   8.051   7.705
  596WAT     H2 2031   6.720   8.074   7.806
  597WAT      O 2032   3.091   1.290   1.997
  597WAT     H1 2033   3.136   1.274   1.908
  597WAT     H2 2034   3.155   1.337   2.058
  598WAT      O 2035   7.330   0.625   3.483
  598WAT     H1 2036   7.320   0.709   3.537
  598WAT     H2 2037   7.396   0.565   3.527
  599WAT      O 2038   4.628   3.787   6.359
  599WAT     H1 2039   4.644   3.689   6.364
  599WAT     H2 2040   4.715   3.836   6.371
  600WAT      O 2041   6.523   9.437   4.257
  600WAT     H1 2042   6.539   9.413   4.162
  600WAT     H2 2043   6.425   9.435   4.277
  601WAT      O 2044   6.847   7.005   1.500
  601WAT     H1 2045   6.787   6.926   1.510
  601WAT     H2 2046   6.884   7.031   1.590
  602WAT      O 2047   1.061   2.110   1.781
  602WAT     H1 2048   1.005   2.116   1.864
  602WAT     H2 2049   1.152   2.147   1.800
  603WAT      O 2050   9.420   1.772   5.370
  603WAT     H1 2051   9.329   1.776   5.412
  603WAT     H2 2052   9.470   1.856   5.391
  604WAT      O 2053   7.702   6.491   3.593
  604WAT     H1 2054   7.696   6.414   3.656
  604WAT     H2 2055   7.724   6.458   3.501
  605WAT      O 2056   0.628   2.257   4.858
  605WAT     H1 2057   0.685   2.277   4.936
  605WAT     H2 2058   0.540   2.219   4.889
  606WAT      O 2059   9.274   8.464   6.602
  606WAT     H1 2060   9.191   8.445   6.655
  606WAT     H2 2061   9.284   8.562   6.589
  607WAT      O 2062   1.352   4.613   5.259
  607WAT     H1 2063   1.306   4.592   5.345
  607WAT     H2 2064   1.288   4.656   5.196
  608WAT      O 2065   6.689   9.513   2.019
  608WAT     H1 2066   6.746   9.434   2.045
  608WAT     H2 2067   6.745   9.580   1.970
  609WAT      O 2068   3.950   3.137   6.762
  609WAT     H1 2069   3.974   3.216   6.706
  609WAT     H2 2070   3.946   3.055   6.705
  610WAT      O 2071   6.215   5.878   1.087
  610WAT     H1 2072   6.127   5.895   1.131
  610WAT     H2 2073   6.278   5.952   1.109
  611WAT      O 2074   4.345   8.731   1.719
  611WAT     H1 2075   4.297   8.810   1.757
  611WAT     H2 2076   4.350   8.659   1.789
  612WAT      O 2077   5.882   7.385   2.930
  612WAT     H1 2078   5.880   7.400   3.029
  612WAT     H2 2079   5.921   7.295   2.911
  613WAT      O 2080   5.361   9.627   2.037
  613WAT     H1 2081   5.369   9.726   2.026
  613WAT     H2 2082   5.410   9.582   1.962
  614WAT      O 2083   4.825   7.842   9.334
  614WAT     H1 2084   4.793   7.907   9.403
  614WAT     H2 2085   4.851   7.756   9.377
  615WAT      O 2086   8.114   6.093   4.177
  615WAT     H1 2087   8.154   6.001   4.182
  615WAT     H2 2088   8.014   6.086   4.184
  616WAT      O 2089   2.963   4.809   4.810
  616WAT     H1 2090   2.915   4.732   4.768
  616WAT     H2 2091   2.903   4.889   4.812
  617WAT      O 2092   7.168   8.618   9.699
  617WAT     H1 2093   7.194   8.599   9.794
  617WAT     H2 2094   7.210   8.704   9.670
  618WAT      O 2095   6.986   3.667   7.601
  618WAT     H1 2096   7.012   3.683   7.506
  618WAT     H2 2097   7.064   3.684   7.661
  619WAT      O 2098   4.428   6.302   9.357
  619WAT     H1 2099   4.493   6.347   9.297
  619WAT     H2 2100   4.343   6.285   9.308
  620WAT      O 2101   7.008   8.791   2.039
  620WAT     H1 2102   7.005   8.762   1.943
  620WAT     H2 2103   7.011   8.710   2.098
  621WAT      O 2104   4.541   1.214   3.873
  621WAT     H1 2105   4.509   1.291   3.928
  621WAT     H2 2106   4.571   1.140   3.934
  622WAT      O 2107   2.803   1.619   4.852
  622WAT     H1 2108   2.854   1.533   4.856
  622WAT     H2 2109   2.751   1.631   4.936
  623WAT      O 2110   8.958   2.317   4.771
  623WAT     H1 2111   8.981   2.220   4.765
  623WAT     H2 2112   9.042   2.371   4.768
  624WAT      O 2113   0.660   3.515   8.129
  624WAT     H1 2114   0.712   3.469   8.058
  624WAT     H2 2115   0.606   3.447   8.180
  625WAT      O 2116   9.783   3.948   9.686
  625WAT     H1 2117   9.732   3.900   9.614
  625WAT     H2 2118   9.759   3.910   9.775
  626WAT      O 2119   8.920   2.559   3.253
  626WAT     H1 2120   8.826   2.577   3.222
  626WAT     H2 2121   8.984   2.614   3.198
  627WAT      O 2122   0.611   0.237   4.171
  627WAT     H1 2123   0.702   0.198   4.160
  627WAT     H2 2124   0.581   0.278   4.085
  628WAT      O 2125   5.256   4.441   4.396
  628WAT     H1 2126   5.171   4.479   4.360
  628WAT     H2 2127   5.325   4.441   4.324
  629WAT      O 2128   4.848   3.388   4.362
  629WAT     H1 2129   4.816   3.480   4.387
  629WAT     H2 2130   4.864   3.335   4.446
  630WAT      O 2131   8.071   6.604   9.760
  630WAT     H1 2132   8.056   6.596   9.858
  630WAT     H2 2133   7.983   6.602   9.712
  631WAT      O 2134   4.619   4.773   9.630
  631WAT     H1 2135   4.568   4.846   9.584
  631WAT     H2 2136   4.653   4.807   9.718
  632WAT      O 2137   9.653   4.413   5.045
  632WAT     H1 2138   9.572   4.413   4.987
  632WAT     H2 2139   9.661   4.501   5.092
  633WAT      O 2140   6.320   8.993   0.758
  633WAT     H1 2141   6.363   9.016   0.845
  633WAT     H2 2142   6.363   9.045   0.684
  634WAT      O 2143   4.451   0.684   4.864
  634WAT     H1 2144   4.369   0.723   4.906
  634WAT     H2 2145   4.520   0.668   4.935
  635WAT      O 2146   0.606   7.446   1.001
  635WAT     H1 2147   0.645   7.487   1.083
  635WAT     H2 2148   0.534   7.382   1.027
  636WAT      O 2149   2.496   7.157   4.317
  636WAT     H1 2150   2.511   7.097   4.396
  636WAT     H2 2151   2.458   7.244   4.348
  637WAT      O 2152   5.544   6.866   5.744
  637WAT     H1 2153   5.497   6.816   5.671
  637WAT     H2 2154   5.618   6.809   5.781
  638WAT      O 2155   2.601   8.301   6.752
  638WAT     H1 2156   2.701   8.297   6.753
  638WAT     H2 2157   2.564   8.213   6.782
  639WAT      O 2158   7.580   0.299   6.447
  639WAT     H1 2159   7.499   0.243   6.436
  639WAT     H2 2160   7.635   0.294   6.363
  640WAT      O 2161   6.107   2.898   4.859
  640WAT     H1 2162   6.151   2.809   4.851
  640WAT     H2 2163   6.164   2.969   4.817
  641WAT      O 2164   5.575   3.241   4.740
  641WAT     H1 2165   5.607   3.336   4.736
  641WAT     H2 2166   5.491   3.237   4.795
  642WAT      O 2167   6.202   0.342   0.187
  642WAT     H1 2168   6.123   0.322   0.245
  642WAT     H2 2169   6.278   0.372   0.245
  643WAT      O 2170   4.303   1.777   1.151
  643WAT     H1 2171   4.362   1.718   1.205
  643WAT     H2 2172   4.359   1.836   1.092
  644WAT      O 2173   7.458   9.373   7.556
  644WAT     H1 2174   7.419   9.323   7.479
  644WAT     H2 2175   7.390   9.382   7.629
  645WAT      O 2176   8.207   3.633   6.184
  645WAT     H1 2177   8.108   3.625   6.186
  645WAT     H2 2178   8.247   3.563   6.244
  646WAT      O 2179   2.289   5.705   7.330
  646WAT     H1 2180   2.199   5.734   7.297
  646WAT     H2 2181   2.359   5.769   7.297
  647WAT      O 2182   0.852   4.358   8.783
  647WAT     H1 2183   0.919   4.305   8.833
  647WAT     H2 2184   0.891   4.388   8.696
  648WAT      O 2185   9.121   0.073   0.133
  648WAT     H1 2186   9.151   0.004   0.199
  648WAT     H2 2187   9.105   0.159   0.181
  649WAT      O 2188   6.795   1.970   6.133
  649WAT     H1 2189   6.875   1.913   6.115
  649WAT     H2 2190   6.814   2.064   6.106
  650WAT      O 2191   7.542   8.737   7.244
  650WAT     H1 2192   7.528   8.803   7.317
  650WAT     H2 2193   7.633   8.697   7.251
  651WAT      O 2194   8.211   2.010   6.849
  651WAT     H1 2195   8.145   2.085   6.841
  651WAT     H2 2196   8.302   2.044   6.829
  652WAT      O 2197   4.278   5.002   6.975
  652WAT     H1 2198   4.189   4.981   6.934
  652WAT     H2 2199   4.301   5.098   6.959
  653WAT      O 2200   1.270   0.210   6.614
  653WAT     H1 2201   1.323   0.188   6.696
  653WAT     H2 2202   1.252   0.126   6.563
  654WAT      O 2203   6.039   7.184   3.934
  654WAT     H1 2204   5.968   7.135   3.883
  654WAT     H2 2205   6.129   7.149   3.907
  655WAT      O 2206   5.230   5.403   7.403
  655WAT     H1 2207   5.300   5.373   7.468
  655WAT     H2 2208   5.141   5.368   7.432
  656WAT      O 2209   8.056   6.302   3.992
  656WAT     H1 2210   8.071   6.381   4.051
  656WAT     H2 2211   8.087   6.219   4.039
  657WAT      O 2212   1.982   2.290   1.786
  657WAT     H1 2213   1.994   2.207   1.732
  657WAT     H2 2214   2.071   2.323   1.817
  658WAT      O 2215   2.679   3.439   4.031
  658WAT     H1 2216   2.640   3.374   4.096
  658WAT     H2 2217   2.730   3.510   4.080
  659WAT      O 2218   6.537   9.242   5.282
  659WAT     H1 2219   6.528   9.170   5.351
  659WAT     H2 2220   6.456   9.301   5.286
  660WAT      O 2221   2.588   1.540   3.791
  660WAT     H1 2222   2.636   1.480   3.728
  660WAT     H2 2223   2.590   1.500   3.883
  661WAT      O 2224   5.673   1.743   9.385
  661WAT     H1 2225   5.653   1.682   9.461
  661WAT     H2 2226   5.694   1.834   9.420
  662WAT      O 2227   5.080   4.190   8.475
  662WAT     H1 2228   5.123   4.181   8.565
  662WAT     H2 2229   5.021   4.271   8.474
  663WAT      O 2230   1.686   3.713   9.275
  663WAT     H1 2231   1.650   3.691   9.366
  663WAT     H2 2232   1.629   3.784   9.234
  664WAT      O 2233   1.744   2.182   7.160
  664WAT     H1 2234   1.796   2.116   7.214
  664WAT     H2 2235   1.706   2.136   7.080
  665WAT      O 2236   4.666   7.852   0.146
  665WAT     H1 2237   4.588   7.910   0.169
  665WAT     H2 2238   4.720   7.897   0.074
  666WAT      O 2239   6.748   0.377   3.026
  666WAT     H1 2240   6.845   0.399   3.037
  666WAT     H2 2241   6.734   0.333   2.937
  667WAT      O 2242   9.781   6.789   8.723
  667WAT     H1 2243   9.862   6.756   8.674
  667WAT     H2 2244   9.709   6.810   8.657
  668WAT      O 2245   1.985   1.820   0.519
  668WAT     H1 2246   1.914   1.752   0.502
  668WAT     H2 2247   2.069   1.794   0.470
  669WAT      O 2248   8.256   3.492   0.471
  669WAT     H1 2249   8.337   3.539   0.504
  669WAT     H2 2250   8.261   3.395   0.495
  670WAT      O 2251   3.598   2.628   9.426
  670WAT     H1 2252   3.573   2.554   9.363
  670WAT     H2 2253   3.634   2.705   9.374
  671WAT      O 2254   5.738   3.346   3.367
  671WAT     H1 2255   5.739   3.273   3.435
  671WAT     H2 2256   5.710   3.432   3.410
  672WAT      O 2257   1.315   5.910   7.922
  672WAT     H1 2258   1.412   5.891   7.903
  672WAT     H2 2259   1.275   5.962   7.847
  673WAT      O 2260   1.048   6.523   1.910
  673WAT     H1 2261   1.049   6.434   1.864
  673WAT     H2 2262   1.044   6.510   2.009
  674WAT      O 2263   2.530   8.771   4.010
  674WAT     H1 2264   2.579   8.740   4.092
  674WAT     H2 2265   2.438   8.731   4.011
  675WAT      O 2266   8.750   1.988   6.359
  675WAT     H1 2267   8.774   2.079   6.392
  675WAT     H2 2268   8.660   1.963   6.393
  676WAT      O 2269   7.182   4.763   9.521
  676WAT     H1 2270   7.214   4.699   9.452
  676WAT     H2 2271   7.170   4.714   9.608
  677WAT      O 2272   9.666   2.392   5.913
  677WAT     H1 2273   9.746   2.380   5.971
  677WAT     H2 2274   9.678   2.472   5.854
  678WAT      O 2275   5.658   5.267   9.069
  678WAT     H1 2276   5.616   5.203   9.133
  678WAT     H2 2277   5.757   5.258   9.073
  679WAT      O 2278   2.696   6.174   1.620
  679WAT     H1 2279   2.704   6.117   1.538
  679WAT     H2 2280   2.650   6.260   1.597
  680WAT      O 2281   2.285   9.297   1.618
  680WAT     H1 2282   2.345   9.223   1.648
  680WAT     H2 2283   2.279   9.366   1.690
  681WAT      O 2284   9.235   1.984   8.500
  681WAT     H1 2285   9.189   2.036   8.572
  681WAT     H2 2286   9.169   1.927   8.452
  682WAT      O 2287   4.420   8.731   7.118
  682WAT     H1 2288   4.331   8.747   7.161
  682WAT     H2 2289   4.406   8.694   7.026
  683WAT      O 2290   4.872   1.116   6.329
  683WAT     H1 2291   4.804   1.181   6.297
  683WAT     H2 2292   4.942   1.103   6.259
  684WAT      O 2293   7.887   0.197   8.705
  684WAT     H1 2294   7.960   0.171   8.642
  684WAT     H2 2295   7.922   0.192   8.799
  685WAT      O 2296   0.459   3.177   2.902
  685WAT     H1 2297   0.543   3.219   2.870
  685WAT     H2 2298   0.470   3.078   2.905
  686WAT      O 2299   7.574   2.078   7.317
  686WAT     H1 2300   7.478   2.107   7.323
  686WAT     H2 2301   7.623   2.106   7.400
  687WAT      O 2302   1.799   9.298   1.049
  687WAT     H1 2303   1.860   9.325   1.124
  687WAT     H2 2304   1.850   9.298   0.963
  688WAT      O 2305   3.201   3.933   7.980
  688WAT     H1 2306   3.125   3.908   7.919
  688WAT     H2 2307   3.174   4.011   8.036
  689WAT      O 2308   6.843   9.621   7.985
  689WAT     H1 2309   6.851   9.522   7.971
  689WAT     H2 2310   6.928   9.666   7.958
  690WAT      O 2311   1.927   2.337   2.550
  690WAT     H1 2312   1.900   2.286   2.469
  690WAT     H2 2313   2.000   2.288   2.598
  691WAT      O 2314   7.172   2.217   9.463
  691WAT     H1 2315   7.252   2.165   9.493
  691WAT     H2 2316   7.128   2.260   9.542
  692WAT      O 2317   1.576   8.448   4.278
  692WAT     H1 2318   1.609   8.532   4.234
  692WAT     H2 2319   1.495   8.469   4.333
  693WAT      O 2320   8.121   7.050   3.021
  693WAT     H1 2321   8.185   7.126   3.014
  693WAT     H2 2322   8.139   6.984   2.947
  694WAT      O 2323   4.374   4.846   3.794
  694WAT     H1 2324   4.391   4.934   3.750
  694WAT     H2 2325   4.382   4.856   3.893
  695WAT      O 2326   0.515   3.944   8.713
  695WAT     H1 2327   0.537   3.875   8.645
  695WAT     H2 2328   0.592   4.008   8.723
  696WAT      O 2329   2.134   0.876   2.841
  696WAT     H1 2330   2.097   0.925   2.761
  696WAT     H2 2331   2.216   0.827   2.814
  697WAT      O 2332   2.056   7.126   5.109
  697WAT     H1 2333   1.967   7.083   5.126
  697WAT     H2 2334   2.072   7.131   5.010
  698WAT      O 2335   3.326   1.848   3.648
  698WAT     H1 2336   3.297   1.795   3.568
  698WAT     H2 2337   3.425   1.862   3.645
  699WAT      O 2338   1.059   3.565   3.901
  699WAT     H1 2339   1.114   3.646   3.879
  699WAT     H2 2340   1.120   3.488   3.918
  700WAT      O 2341   6.980   5.254   1.176
  700WAT     H1 2342   6.979   5.321   1.251
  700WAT     H2 2343   7.043   5.180   1.199
  701WAT      O 2344   4.301   1.527   3.824
  701WAT     H1 2345   4.256   1.537   3.735
  701WAT     H2 2346   4.246   1.467   3.882
  702WAT      O 2347   0.792   3.364   7.917
  702WAT     H1 2348   0.742   3.306   7.853
  702WAT     H2 2349   0.890   3.362   7.895
  703WAT      O 2350   2.069   0.515   6.682
  703WAT     H1 2351   2.077   0.451   6.758
  703WAT     H2 2352   2.136   0.491   6.612
  704WAT      O 2353   5.340   1.926   7.403
  704WAT     H1 2354   5.373   1.833   7.385
  704WAT     H2 2355   5.251   1.938   7.359
  705WAT      O 2356   5.803   8.202   3.958
  705WAT     H1 2357   5.819   8.137   3.883
  705WAT     H2 2358   5.810   8.154   4.045
  706WAT      O 2359   4.480   7.266   5.293
  706WAT     H1 2360   4.431   7.285   5.378
  706WAT     H2 2361   4.432   7.194   5.243
  707WAT      O 2362   9.030   6.913   6.322
  707WAT     H1 2363   9.036   7.005   6.361
  707WAT     H2 2364   9.059   6.916   6.226
  708WAT      O 2365   7.768   5.400   6.468
  708WAT     H1 2366   7.866   5.383   6.455
  708WAT     H2 2367   7.756   5.477   6.530
  709WAT      O 2368   0.055   0.547   0.567
  709WAT     H1 2369  -0.003   0.578   0.643
  709WAT     H2 2370   0.008   0.474   0.517
  710WAT      O 2371   0.893   4.795   5.137
  710WAT     H1 2372   0.857   4.844   5.058
  710WAT     H2 2373   0.839   4.817   5.218
  711WAT      O 2374   3.627   1.410   4.893
  711WAT     H1 2375   3.647   1.439   4.987
  711WAT     H2 2376   3.648   1.313   4.884
  712WAT      O 2377   8.530   3.941   8.304
  712WAT     H1 2378   8.498   3.847   8.302
  712WAT     H2 2379   8.457   4.003   8.274
  713WAT      O 2380   7.671   6.770   3.898
  713WAT     H1 2381   7.610   6.770   3.819
  713WAT     H2 2382   7.738   6.696   3.889
  714WAT      O 2383   7.402   5.996   1.700
  714WAT     H1 2384   7.409   6.064   1.773
  714WAT     H2 2385   7.356   5.914   1.735
  715WAT      O 2386   6.807   4.772   2.884
  715WAT     H1 2387   6.763   4.854   2.921
  715WAT     H2 2388   6.888   4.751   2.938
  716WAT      O 2389   5.288   0.345   4.027
  716WAT     H1 2390   5.218   0.276   4.043
  716WAT     H2 2391   5.331   0.328   3.938
  717WAT      O 2392   0.795   3.783   6.057
  717WAT     H1 2393   0.733   3.842   6.109
  717WAT     H2 2394   0.874   3.759   6.114
  718WAT      O 2395   6.465   0.637   6.825
  718WAT     H1 2396   6.384   0.659   6.880
  718WAT     H2 2397   6.470   0.538   6.811
  719WAT      O 2398   5.693   9.097   6.574
  719WAT     H1 2399   5.657   9.152   6.499
  719WAT     H2 2400   5.653   9.128   6.660
  720WAT      O 2401   5.326   2.239   7.925
  720WAT     H1 2402   5.397   2.193   7.872
  720WAT     H2 2403   5.263   2.285   7.863
  721WAT      O 2404   1.157   5.544   4.527
  721WAT     H1 2405   1.235   5.601   4.553
  721WAT     H2 2406   1.180   5.448   4.542
  722WAT      O 2407   6.596   3.258   9.856
  722WAT     H1 2408   6.566   3.210   9.938
  722WAT     H2 2409   6.557   3.350   9.856
  723WAT      O 2410   1.049   2.972   5.632
  723WAT     H1 2411   0.975   2.916   5.670
  723WAT     H2 2412   1.053   2.958   5.533
  724WAT      O 2413   7.445   8.424   0.441
  724WAT     H1 2414   7.534   8.400   0.403
  724WAT     H2 2415   7.399   8.341   0.473
  725WAT      O 2416   8.686   9.317   4.649
  725WAT     H1 2417   8.599   9.365   4.642
  725WAT     H2 2418   8.754   9.364   4.593
  726WAT      O 2419   7.080   7.501   8.063
  726WAT     H1 2420   7.132   7.434   8.010
  726WAT     H2 2421   6.998   7.528   8.012
  727WAT      O 2422   5.581   7.087   8.391
  727WAT     H1 2423   5.593   7.118   8.296
  727WAT     H2 2424   5.507   7.019   8.394
  728WAT      O 2425   2.824   3.121   4.202
  728WAT     H1 2426   2.797   3.062   4.278
  728WAT     H2 2427   2.861   3.207   4.238
  729WAT      O 2428   9.642   0.774   8.605
  729WAT     H1 2429   9.701   0.710   8.654
  729WAT     H2 2430   9.698   0.837   8.551
  730WAT      O 2431   1.473   9.431   4.474
  730WAT     H1 2432   1.542   9.359   4.470
  730WAT     H2 2433   1.516   9.520   4.457
  731WAT      O 2434   5.168   7.541   8.960
  731WAT     H1 2435   5.150   7.619   9.019
  731WAT     H2 2436   5.124   7.554   8.872
  732WAT      O 2437   4.821   9.828   9.306
  732WAT     H1 2438   4.842   9.924   9.328
  732WAT     H2 2439   4.761   9.824   9.227
  733WAT      O 2440   3.242   5.080   8.867
  733WAT     H1 2441   3.307   5.099   8.941
  733WAT     H2 2442   3.288   5.093   8.779
  734WAT      O 2443   4.853   6.605   5.610
  734WAT     H1 2444   4.820   6.699   5.607
  734WAT     H2 2445   4.813   6.558   5.689
  735WAT      O 2446   4.039   3.179   9.098
  735WAT     H1 2447   3.944   3.165   9.070
  735WAT     H2 2448   4.082   3.246   9.038
  736WAT      O 2449   1.921   1.384   5.736
  736WAT     H1 2450   1.911   1.332   5.651
  736WAT     H2 2451   1.833   1.385   5.784
  737WAT      O 2452   2.388   5.178   5.100
  737WAT     H1 2453   2.452   5.180   5.176
  737WAT     H2 2454   2.406   5.255   5.039
  738WAT      O 2455   5.984   7.273   1.943
  738WAT     H1 2456   5.917   7.276   2.018
  738WAT     H2 2457   6.031   7.185   1.945
  739WAT      O 2458   2.261   7.694   9.693
  739WAT     H1 2459   2.325   7.768   9.714
  739WAT     H2 2460   2.224   7.657   9.778
  740WAT      O 2461   1.042   9.803   7.436
  740WAT     H1 2462   1.002   9.868   7.372
  740WAT     H2 2463   1.041   9.711   7.396
  741WAT      O 2464   6.116   5.274   3.468
  741WAT     H1 2465   6.163   5.363   3.463
  741WAT     H2 2466   6.023   5.284   3.433
  742WAT      O 2467   0.844   7.230   7.873
  742WAT     H1 2468   0.912   7.256   7.805
  742WAT     H2 2469   0.760   7.283   7.857
  743WAT      O 2470   6.646   4.193   8.109
  743WAT     H1 2471   6.569   4.225   8.055
  743WAT     H2 2472   6.640   4.230   8.202
  744WAT      O 2473   4.241   1.668   7.348
  744WAT     H1 2474   4.236   1.694   7.252
  744WAT     H2 2475   4.183   1.730   7.402
  745WAT      O 2476   3.075   7.940   7.482
  745WAT     H1 2477   3.126   7.997   7.546
  745WAT     H2 2478   3.133   7.919   7.403
  746WAT      O 2479   0.816   9.715   2.266
  746WAT     H1 2480   0.884   9.760   2.324
  746WAT     H2 2481   0.820   9.754   2.174
  747WAT      O 2482   0.467   9.418   2.779
  747WAT     H1 2483   0.406   9.496   2.767
  747WAT     H2 2484   0.544   9.445   2.836
  748WAT      O 2485   7.110   1.168   5.285
  748WAT     H1 2486   7.026   1.179   5.233
  748WAT     H2 2487   7.099   1.212   5.375
  749WAT      O 2488   1.549   3.601   6.066
  749WAT     H1 2489   1.620   3.670   6.054
  749WAT     H2 2490   1.462   3.646   6.087
  750WAT      O 2491   6.711   3.131   8.664
  750WAT     H1 2492   6.789   3.188   8.638
  750WAT     H2 2493   6.644   3.131   8.590
  751WAT      O 2494   6.443   2.943   2.281
  751WAT     H1 2495   6.493   2.867   2.321
  751WAT     H2 2496   6.476   2.960   2.188
  752WAT      O 2497   6.927   2.729   1.320
  752WAT     H1 2498   6.879   2.740   1.407
  752WAT     H2 2499   6.875   2.774   1.247
  753WAT      O 2500   5.508   9.349   2.798
  753WAT     H1 2501   5.544   9.260   2.770
  753WAT     H2 2502   5.583   9.408   2.826
  754WAT      O 2503   3.468   8.261   2.351
  754WAT     H1 2504   3.445   8.292   2.258
  754WAT     H2 2505   3.546   8.313   2.385
  755WAT      O 2506   5.162   7.841   2.294
  755WAT     H1 2507   5.149   7.935   2.326
  755WAT     H2 2508   5.227   7.840   2.218
  756WAT      O 2509   7.126   0.536   8.269
  756WAT     H1 2510   7.075   0.616   8.301
  756WAT     H2 2511   7.084   0.453   8.307
  757WAT      O 2512   0.056   0.406   7.231
  757WAT     H1 2513  -0.025   0.353   7.207
  757WAT     H2 2514   0.058   0.490   7.176
  758WAT      O 2515   9.824   7.288   6.930
  758WAT     H1 2516   9.752   7.226   6.961
  758WAT     H2 2517   9.913   7.244   6.944
  759WAT      O 2518   4.770   0.478   4.851
  759WAT     H1 2519   4.850   0.424   4.824
  759WAT     H2 2520   4.747   0.542   4.777
  760WAT      O 2521   1.668   2.356   8.538
  760WAT     H1 2522   1.671   2.443   8.588
  760WAT     H2 2523   1.746   2.351   8.476
  761WAT      O 2524   9.385   6.840   6.630
  761WAT     H1 2525   9.387   6.940   6.626
  761WAT     H2 2526   9.478   6.806   6.644
  762WAT      O 2527   4.654   3.015   6.820
  762WAT     H1 2528   4.677   2.920   6.795
  762WAT     H2 2529   4.731   3.055   6.869
  763WAT      O 2530   9.100   3.945   3.085
  763WAT     H1 2531   9.142   3.856   3.066
  763WAT     H2 2532   9.081   3.992   2.999
  764WAT      O 2533   5.500   1.433   2.480
  764WAT     H1 2534   5.532   1.521   2.446
  764WAT     H2 2535   5.579   1.372   2.494
  765WAT      O 2536   9.815   0.358   8.916
  765WAT     H1 2537   9.863   0.283   8.871
  765WAT     H2 2538   9.723   0.328   8.940
  766WAT      O 2539   8.922   3.094   6.880
  766WAT     H1 2540   8.834   3.140   6.894
  766WAT     H2 2541   8.996   3.161   6.882
  767WAT      O 2542   2.604   9.335   2.035
  767WAT     H1 2543   2.686   9.291   2.073
  767WAT     H2 2544   2.616   9.346   1.936
  768WAT      O 2545   5.925   9.646   8.702
  768WAT     H1 2546   5.900   9.552   8.675
  768WAT     H2 2547   5.842   9.702   8.705
  769WAT      O 2548   1.265   3.970   6.045
  769WAT     H1 2549   1.173   3.948   6.077
  769WAT     H2 2550   1.312   4.025   6.115
  770WAT      O 2551   1.345   6.071   0.588
  770WAT     H1 2552   1.383   6.045   0.678
  770WAT     H2 2553   1.253   6.033   0.579
  771WAT      O 2554   4.456   3.267   4.958
  771WAT     H1 2555   4.479   3.364   4.951
  771WAT     H2 2556   4.443   3.244   5.055
  772WAT      O 2557   7.384   5.081   0.955
  772WAT     H1 2558   7.405   4.984   0.973
  772WAT     H2 2559   7.468   5.130   0.935
  773WAT      O 2560   3.760   9.064   2.289
  773WAT     H1 2561   3.685   9.070   2.224
  773WAT     H2 2562   3.752   9.137   2.357
  774WAT      O 2563   0.782   5.304   4.190
  774WAT     H1 2564   0.685   5.311   4.215
  774WAT     H2 2565   0.825   5.233   4.246
  775WAT      O 2566   2.512   6.479   4.097
  775WAT     H1 2567   2.582   6.416   4.127
  775WAT     H2 2568   2.513   6.561   4.154
  776WAT      O 2569   6.553   9.712   4.564
  776WAT     H1 2570   6.582   9.623   4.600
  776WAT     H2 2571   6.463   9.735   4.602
  777WAT      O 2572   2.348   5.400   8.668
  777WAT     H1 2573   2.251   5.423   8.658
  777WAT     H2 2574   2.401   5.446   8.597
  778WAT      O 2575   5.838   6.126   2.310
  778WAT     H1 2576   5.938   6.125   2.320
  778WAT     H2 2577   5.796   6.143   2.399
  779WAT      O 2578   2.283   9.466   7.196
  779WAT     H1 2579   2.217   9.465   7.121
  779WAT     H2 2580   2.366   9.514   7.167
  780WAT      O 2581   4.637   8.652   6.002
  780WAT     H1 2582   4.580   8.728   6.032
  780WAT     H2 2583   4.579   8.578   5.967
  781WAT      O 2584   8.953   8.948   5.326
  781WAT     H1 2585   8.884   8.974   5.393
  781WAT     H2 2586   8.918   8.876   5.267
  782WAT      O 2587   9.790   4.148   1.719
  782WAT     H1 2588   9.721   4.220   1.722
  782WAT     H2 2589   9.772   4.081   1.791
  783WAT      O 2590   6.442   0.774   8.793
  783WAT     H1 2591   6.361   0.802   8.845
  783WAT     H2 2592   6.521   0.771   8.854
  784WAT      O 2593   6.150   5.778   7.290
  784WAT     H1 2594   6.248   5.766   7.276
  784WAT     H2 2595   6.100   5.730   7.217
  785WAT      O 2596   8.806   1.486   2.063
  785WAT     H1 2597   8.876   1.508   1.994
  785WAT     H2 2598   8.795   1.565   2.124
  786WAT      O 2599   1.622   0.517   0.050
  786WAT     H1 2600   1.700   0.515   0.113
  786WAT     H2 2601   1.627   0.599  -0.007
  787WAT      O 2602   3.513   3.642   7.420
  787WAT     H1 2603   3.494   3.548   7.393
  787WAT     H2 2604   3.577   3.643   7.497
  788WAT      O 2605   3.016   6.337   7.820
  788WAT     H1 2606   3.094   6.280   7.796
  788WAT     H2 2607   2.969   6.368   7.737
  789WAT      O 2608   5.160   4.669   4.022
  789WAT     H1 2609   5.101   4.743   3.991
  789WAT     H2 2610   5.221   4.701   4.094
  790WAT      O 2611   0.378   4.701   8.990
  790WAT     H1 2612   0.281   4.679   8.977
  790WAT     H2 2613   0.433   4.618   8.983
  791WAT      O 2614   2.978   2.194   3.040
  791WAT     H1 2615   2.927   2.151   3.115
  791WAT     H2 2616   2.951   2.152   2.953
  792WAT      O 2617   9.108   9.237   8.143
  792WAT     H1 2618   9.143   9.146   8.120
  792WAT     H2 2619   9.131   9.259   8.237
  793WAT      O 2620   8.157   8.374   3.841
  793WAT     H1 2621   8.170   8.464   3.882
  793WAT     H2 2622   8.207   8.369   3.755
  794WAT      O 2623   7.445   7.050   2.719
  794WAT     H1 2624   7.457   7.115   2.644
  794WAT     H2 2625   7.498   7.081   2.798
  795WAT      O 2626   3.034   1.510   5.587
  795WAT     H1 2627   3.004   1.445   5.657
  795WAT     H2 2628   2.954   1.549   5.541
  796WAT      O 2629   7.369   1.526   7.417
  796WAT     H1 2630   7.396   1.433   7.394
  796WAT     H2 2631   7.320   1.525   7.504
  797WAT      O 2632   6.145   4.750   8.514
  797WAT     H1 2633   6.125   4.811   8.591
  797WAT     H2 2634   6.194   4.669   8.546
  798WAT      O 2635   6.243   0.898   2.299
  798WAT     H1 2636   6.227   0.801   2.321
  798WAT     H2 2637   6.339   0.920   2.318
  799WAT      O 2638   8.839   0.643   0.382
  799WAT     H1 2639   8.747   0.675   0.404
  799WAT     H2 2640   8.841   0.611   0.287
  800WAT      O 2641   7.487   1.071   7.420
  800WAT     H1 2642   7.579   1.036   7.440
  800WAT     H2 2643   7.419   1.006   7.454
  801WAT      O 2644   5.566   8.593   0.035
  801WAT     H1 2645   5.509   8.624   0.111
  801WAT     H2 2646   5.661   8.620   0.051
  802WAT      O 2647   1.863   8.133   3.024
  802WAT     H1 2648   1.829   8.213   2.974
  802WAT     H2 2649   1.943   8.096   2.976
  803WAT      O 2650   1.753   6.093   3.593
  803WAT     H1 2651   1.710   6.174   3.631
  803WAT     H2 2652   1.774   6.108   3.496
  804WAT      O 2653   8.589   5.932   0.755
  804WAT     H1 2654   8.526   6.005   0.729
  804WAT     H2 2655   8.588   5.860   0.686
  805WAT      O 2656   2.079   5.479   0.067
  805WAT     H1 2657   2.128   5.446   0.148
  805WAT     H2 2658   1.983   5.496   0.091
  806WAT      O 2659   4.870   6.015   0.311
  806WAT     H1 2660   4.809   6.090   0.337
  806WAT     H2 2661   4.815   5.937   0.280
  807WAT      O 2662   1.119   4.455   5.629
  807WAT     H1 2663   1.077   4.408   5.707
  807WAT     H2 2664   1.172   4.389   5.575
  808WAT      O 2665   6.383   6.271   9.670
  808WAT     H1 2666   6.460   6.334   9.681
  808WAT     H2 2667   6.313   6.292   9.738
  809WAT      O 2668   2.172   6.249   6.607
  809WAT     H1 2669   2.136   6.294   6.689
  809WAT     H2 2670   2.164   6.310   6.529
  810WAT      O 2671   2.569   2.798   0.003
  810WAT     H1 2672   2.619   2.721   0.042
  810WAT     H2 2673   2.516   2.843   0.075
  811WAT      O 2674   9.117   7.075   5.805
  811WAT     H1 2675   9.039   7.014   5.792
  811WAT     H2 2676   9.201   7.021   5.806
  812WAT      O 2677   4.153   1.223   9.463
  812WAT     H1 2678   4.060   1.246   9.435
  812WAT     H2 2679   4.166   1.249   9.559
  813WAT      O 2680   2.757   7.108   3.749
  813WAT     H1 2681   2.766   7.149   3.839
  813WAT     H2 2682   2.709   7.171   3.688
  814WAT      O 2683   9.581   5.322   8.124
  814WAT     H1 2684   9.581   5.249   8.055
  814WAT     H2 2685   9.487   5.342   8.152
  815WAT      O 2686   5.393   3.693   2.742
  815WAT     H1 2687   5.415   3.762   2.674
  815WAT     H2 2688   5.321   3.727   2.803
  816WAT      O 2689   4.023   3.148   8.320
  816WAT     H1 2690   4.015   3.049   8.317
  816WAT     H2 2691   3.932   3.189   8.333
  817WAT      O 2692   9.629   2.717   9.597
  817WAT     H1 2693   9.659   2.736   9.691
  817WAT     H2 2694   9.702   2.741   9.533
  818WAT      O 2695   9.787   3.019   3.854
  818WAT     H1 2696   9.845   2.953   3.903
  818WAT     H2 2697   9.738   3.075   3.921
  819WAT      O 2698   7.824   5.904   1.930
  819WAT     H1 2699   7.887   5.875   2.002
  819WAT     H2 2700   7.868   5.893   1.841
  820WAT      O 2701   3.731   0.224   9.047
  820WAT     H1 2702   3.660   0.194   8.982
  820WAT     H2 2703   3.808   0.263   8.997
  821WAT      O 2704   8.488   8.892   1.267
  821WAT     H1 2705   8.441   8.805   1.254
  821WAT     H2 2706   8.448   8.940   1.346
  822WAT      O 2707   7.974   3.068   0.548
  822WAT     H1 2708   7.913   3.123   0.491
  822WAT     H2 2709   8.006   2.989   0.497
  823WAT      O 2710   7.899   8.175   3.621
  823WAT     H1 2711   7.829   8.125   3.570
  823WAT     H2 2712   7.971   8.204   3.558
  824WAT      O 2713   0.717   8.444   0.642
  824WAT     H1 2714   0.622   8.415   0.645
  824WAT     H2 2715   0.725   8.530   0.592
  825WAT      O 2716   9.633   5.253   4.596
  825WAT     H1 2717   9.724   5.264   4.637
  825WAT     H2 2718   9.586   5.177   4.641
  826WAT      O 2719   4.845   1.670   8.045
  826WAT     H1 2720   4.803   1.675   8.136
  826WAT     H2 2721   4.890   1.756   8.023
  827WAT      O 2722   7.568   9.293   0.890
  827WAT     H1 2723   7.498   9.319   0.824
  827WAT     H2 2724   7.653   9.341   0.869
  828WAT      O 2725   5.526   4.810   8.012
  828WAT     H1 2726   5.604   4.751   8.035
  828WAT     H2 2727   5.448   4.753   7.985
  829WAT      O 2728   9.401   8.706   3.534
  829WAT     H1 2729   9.426   8.799   3.561
  829WAT     H2 2730   9.334   8.670   3.598
  830WAT      O 2731   9.650   9.203   4.747
  830WAT     H1 2732   9.634   9.290   4.793
  830WAT     H2 2733   9.659   9.130   4.816
  831WAT      O 2734   2.586   0.414   8.377
  831WAT     H1 2735   2.491   0.422   8.409
  831WAT     H2 2736   2.604   0.320   8.351
  832WAT      O 2737   9.614   2.523   6.881
  832WAT     H1 2738   9.581   2.430   6.897
  832WAT     H2 2739   9.619   2.572   6.969
  833WAT      O 2740   6.371   9.046   5.498
  833WAT     H1 2741   6.330   9.076   5.412
  833WAT     H2 2742   6.460   9.004   5.479
  834WAT      O 2743   6.026   1.018   3.563
  834WAT     H1 2744   6.027   1.117   3.548
  834WAT     H2 2745   6.071   0.997   3.650
  835WAT      O 2746   4.669   2.198   3.515
  835WAT     H1 2747   4.732   2.139   3.464
  835WAT     H2 2748   4.715   2.231   3.597
  836WAT      O 2749   3.354   8.186   7.459
  836WAT     H1 2750   3.328   8.283   7.460
  836WAT     H2 2751   3.413   8.169   7.381
  837WAT      O 2752   7.078   1.536   7.464
  837WAT     H1 2753   7.043   1.627   7.485
  837WAT     H2 2754   7.022   1.494   7.393
  838WAT      O 2755   4.165   8.039   1.331
  838WAT     H1 2756   4.161   8.115   1.396
  838WAT     H2 2757   4.243   8.053   1.269
  839WAT      O 2758   9.210   7.446   0.610
  839WAT     H1 2759   9.123   7.425   0.564
  839WAT     H2 2760   9.286   7.409   0.556
  840WAT      O 2761   1.069   2.428   6.982
  840WAT     H1 2762   1.043   2.520   6.952
  840WAT     H2 2763   0.991   2.384   7.027
  841WAT      O 2764   3.650   6.084   5.305
  841WAT     H1 2765   3.653   6.077   5.404
  841WAT     H2 2766   3.664   6.179   5.277
  842WAT      O 2767   7.714   4.032   1.016
  842WAT     H1 2768   7.616   4.047   1.007
  842WAT     H2 2769   7.731   3.960   1.084
  843WAT      O 2770   9.545   1.313   9.304
  843WAT     H1 2771   9.586   1.232   9.346
  843WAT     H2 2772   9.494   1.364   9.373
  844WAT      O 2773   4.880   0.600   6.526
  844WAT     H1 2774   4.839   0.602   6.435
  844WAT     H2 2775   4.824   0.544   6.586
  845WAT      O 2776   9.618   3.699   1.340
  845WAT     H1 2777   9.522   3.719   1.360
  845WAT     H2 2778   9.650   3.762   1.269
  846WAT      O 2779   0.187   8.256   3.704
  846WAT     H1 2780   0.185   8.345   3.658
  846WAT     H2 2781   0.102   8.244   3.755
  847WAT      O 2782   5.536   3.765   4.560
  847WAT     H1 2783   5.622   3.751   4.511
  847WAT     H2 2784   5.514   3.863   4.560
  848WAT      O 2785   5.656   3.605   7.284
  848WAT     H1 2786   5.642   3.576   7.379
  848WAT     H2 2787   5.573   3.589   7.231
  849WAT      O 2788   2.618   3.042   5.000
  849WAT     H1 2789   2.705   3.058   5.047
  849WAT     H2 2790   2.633   2.978   4.924
  850WAT      O 2791   8.869   1.632   4.683
  850WAT     H1 2792   8.801   1.705   4.686
  850WAT     H2 2793   8.959   1.670   4.706
  851WAT      O 2794   7.545   0.365   1.871
  851WAT     H1 2795   7.609   0.394   1.942
  851WAT     H2 2796   7.569   0.411   1.785
  852WAT      O 2797   5.603   8.100   8.969
  852WAT     H1 2798   5.530   8.040   8.935
  852WAT     H2 2799   5.662   8.127   8.893
  853WAT      O 2800   2.381   5.757   9.701
  853WAT     H1 2801   2.365   5.850   9.733
  853WAT     H2 2802   2.407   5.699   9.778
  854WAT      O 2803   7.804   8.692   1.520
  854WAT     H1 2804   7.755   8.777   1.498
  854WAT     H2 2805   7.833   8.648   1.435
  855WAT      O 2806   3.615   2.372   7.966
  855WAT     H1 2807   3.611   2.274   7.948
  855WAT     H2 2808   3.544   2.419   7.913
  856WAT      O 2809   8.933   4.183   7.177
  856WAT     H1 2810   8.990   4.115   7.132
  856WAT     H2 2811   8.937   4.269   7.125
  857WAT      O 2812   4.981   8.383   0.209
  857WAT     H1 2813   5.065   8.435   0.193
  857WAT     H2 2814   4.903   8.446   0.211
  858WAT      O 2815   8.610   0.750   5.227
  858WAT     H1 2816   8.584   0.656   5.204
  858WAT     H2 2817   8.546   0.814   5.185
  859WAT      O 2818   3.585   3.068   9.604
  859WAT     H1 2819   3.574   2.985   9.659
  859WAT     H2 2820   3.575   3.148   9.663
  860WAT      O 2821   3.685   6.281   4.125
  860WAT     H1 2822   3.658   6.347   4.196
  860WAT     H2 2823   3.771   6.238   4.151
  861WAT      O 2824   3.767   7.423   5.361
  861WAT     H1 2825   3.753   7.353   5.292
  861WAT     H2 2826   3.851   7.402   5.412
  862WAT      O 2827   1.829   6.890   2.356
  862WAT     H1 2828   1.814   6.883   2.257
  862WAT     H2 2829   1.809   6.983   2.386
  863WAT      O 2830   7.529   3.529   9.313
  863WAT     H1 2831   7.484   3.520   9.402
  863WAT     H2 2832   7.508   3.619   9.275
  864WAT      O 2833   1.540   2.979   1.996
  864WAT     H1 2834   1.571   2.887   2.019
  864WAT     H2 2835   1.615   3.044   2.008
  865WAT      O 2836   8.910   0.673   3.291
  865WAT     H1 2837   8.843   0.601   3.275
  865WAT     H2 2838   8.975   0.675   3.215
  866WAT      O 2839   4.641   2.852   8.902
  866WAT     H1 2840   4.672   2.795   8.826
  866WAT     H2 2841   4.546   2.830   8.924
  867WAT      O 2842   6.333   7.607   7.981
  867WAT     H1 2843   6.316   7.624   8.078
  867WAT     H2 2844   6.386   7.522   7.971
  868WAT      O 2845   3.723   4.140   5.970
  868WAT     H1 2846   3.729   4.095   6.060
  868WAT     H2 2847   3.803   4.198   5.957
  869WAT      O 2848   0.349   6.328   4.888
  869WAT     H1 2849   0.275   6.273   4.927
  869WAT     H2 2850   0.418   6.267   4.847
  870WAT      O 2851   8.169   6.195   1.098
  870WAT     H1 2852   8.180   6.230   1.005
  870WAT     H2 2853   8.196   6.099   1.100
  871WAT      O 2854   1.974   0.242   7.483
  871WAT     H1 2855   2.051   0.282   7.533
  871WAT     H2 2856   1.912   0.314   7.453
  872WAT      O 2857   1.595   4.043   4.313
  872WAT     H1 2858   1.650   3.995   4.381
  872WAT     H2 2859   1.635   4.133   4.295
  873WAT      O 2860   2.928   1.005   2.348
  873WAT     H1 2861   2.835   1.043   2.352
  873WAT     H2 2862   2.993   1.080   2.334
  874WAT      O 2863   8.651   3.224   4.875
  874WAT     H1 2864   8.551   3.229   4.884
  874WAT     H2 2865   8.691   3.312   4.902
  875WAT      O 2866   4.147   1.556   4.493
  875WAT     H1 2867   4.060   1.552   4.445
  875WAT     H2 2868   4.170   1.465   4.528
  876WAT      O 2869   9.403   2.339   6.005
  876WAT     H1 2870   9.334   2.343   5.932
  876WAT     H2 2871   9.494   2.353   5.966
  877WAT      O 2872   2.836   8.633   3.100
  877WAT     H1 2873   2.902   8.657   3.170
  877WAT     H2 2874   2.745   8.664   3.128
  878WAT      O 2875   4.026   3.522   0.103
  878WAT     H1 2876   4.098   3.483   0.160
  878WAT     H2 2877   4.061   3.537   0.010
  879WAT      O 2878   3.427   4.772   3.898
  879WAT     H1 2879   3.396   4.759   3.992
  879WAT     H2 2880   3.526   4.768   3.895
  880WAT      O 2881   6.623   6.770   1.574
  880WAT     H1 2882   6.548   6.837   1.567
  880WAT     H2 2883   6.614   6.703   1.501
  881WAT      O 2884   2.199   4.941   7.809
  881WAT     H1 2885   2.212   4.860   7.867
  881WAT     H2 2886   2.249   4.928   7.723
  882WAT      O 2887   9.049   3.319   1.519
  882WAT     H1 2888   9.008   3.394   1.571
  882WAT     H2 2889   9.128   3.283   1.570
  883WAT      O 2890   5.282   5.409   2.731
  883WAT     H1 2891   5.237   5.336   2.679
  883WAT     H2 2892   5.223   5.440   2.804
  884WAT      O 2893   4.031   7.941   7.327
  884WAT     H1 2894   4.096   7.991   7.383
  884WAT     H2 2895   4.021   7.986   7.238
  885WAT      O 2896   0.458   1.272   8.116
  885WAT     H1 2897   0.544   1.311   8.083
  885WAT     H2 2898   0.475   1.182   8.156
  886WAT      O 2899   3.540   6.848   1.496
  886WAT     H1 2900   3.630   6.822   1.462
  886WAT     H2 2901   3.499   6.772   1.545
  887WAT      O 2902   3.156   2.540   3.808
  887WAT     H1 2903   3.169   2.572   3.714
  887WAT     H2 2904   3.176   2.615   3.872
  888WAT      O 2905   6.026   4.899   8.694
  888WAT     H1 2906   6.038   4.998   8.694
  888WAT     H2 2907   5.937   4.876   8.653
  889WAT      O 2908   3.332   6.494   0.123
  889WAT     H1 2909   3.424   6.529   0.103
  889WAT     H2 2910   3.339   6.415   0.184
  890WAT      O 2911   9.348   5.672   3.224
  890WAT     H1 2912   9.368   5.679   3.126
  890WAT     H2 2913   9.392   5.747   3.273
  891WAT      O 2914   9.102   7.009   1.805
  891WAT     H1 2915   9.051   6.927   1.831
  891WAT     H2 2916   9.200   6.992   1.813
  892WAT      O 2917   2.880   9.156   3.378
  892WAT     H1 2918   2.836   9.230   3.328
  892WAT     H2 2919   2.933   9.099   3.315
  893WAT      O 2920   1.702   1.925   4.536
  893WAT     H1 2921   1.653   2.010   4.518
  893WAT     H2 2922   1.799   1.943   4.548
  894WAT      O 2923   8.218   2.790   5.458
  894WAT     H1 2924   8.294   2.800   5.393
  894WAT     H2 2925   8.254   2.790   5.551
  895WAT      O 2926   6.303   1.110   1.865
  895WAT     H1 2927   6.299   1.070   1.773
  895WAT     H2 2928   6.305   1.210   1.858
  896WAT      O 2929   3.895   2.093   0.153
  896WAT     H1 2930   3.845   2.095   0.066
  896WAT     H2 2931   3.991   2.072   0.135
  897WAT      O 2932   8.430   3.219   1.588
  897WAT     H1 2933   8.439   3.286   1.661
  897WAT     H2 2934   8.356   3.155   1.610
  898WAT      O 2935   0.369   8.622   7.679
  898WAT     H1 2936   0.431   8.671   7.741
  898WAT     H2 2937   0.389   8.648   7.585
  899WAT      O 2938   0.914   4.244   7.840
  899WAT     H1 2939   0.911   4.335   7.798
  899WAT     H2 2940   0.843   4.237   7.910
  900WAT      O 2941   7.702   3.683   2.852
  900WAT     H1 2942   7.712   3.672   2.753
  900WAT     H2 2943   7.780   3.733   2.888
  901WAT      O 2944   6.828   5.541   7.542
  901WAT     H1 2945   6.754   5.602   7.513
  901WAT     H2 2946   6.864   5.571   7.630
  902WAT      O 2947   3.797   2.301   3.332
  902WAT     H1 2948   3.699   2.322   3.341
  902WAT     H2 2949   3.825   2.243   3.409
  903WAT      O 2950   7.232   2.885   4.513
  903WAT     H1 2951   7.290   2.957   4.552
  903WAT     H2 2952   7.136   2.915   4.514
  904WAT      O 2953   1.108   6.285   3.876
  904WAT     H1 2954   1.151   6.366   3.917
  904WAT     H2 2955   1.009   6.299   3.870
  905WAT      O 2956   6.992   0.416   0.780
  905WAT     H1 2957   6.956   0.508   0.795
  905WAT     H2 2958   6.925   0.348   0.810
  906WAT      O 2959   5.701   3.195   9.802
  906WAT     H1 2960   5.726   3.119   9.742
  906WAT     H2 2961   5.602   3.190   9.821
  907WAT      O 2962   4.147   3.345   9.348
  907WAT     H1 2963   4.195   3.267   9.309
  907WAT     H2 2964   4.064   3.364   9.294
  908WAT      O 2965   4.913   1.933   1.584
  908WAT     H1 2966   4.883   1.980   1.501
  908WAT     H2 2967   4.837   1.880   1.622
  909WAT      O 2968   9.556   7.872   4.067
  909WAT     H1 2969   9.466   7.890   4.105
  909WAT     H2 2970   9.603   7.959   4.049
  910WAT      O 2971   0.858   5.549   8.131
  910WAT     H1 2972   0.762   5.542   8.101
  910WAT     H2 2973   0.862   5.600   8.217
  911WAT      O 2974   2.411   3.001   2.821
  911WAT     H1 2975   2.398   3.049   2.908
  911WAT     H2 2976   2.324   2.994   2.773
  912WAT      O 2977   9.606   1.297   6.500
  912WAT     H1 2978   9.630   1.335   6.590
  912WAT     H2 2979   9.690   1.275   6.450
  913WAT      O 2980   6.071   3.016   9.656
  913WAT     H1 2981   6.142   2.953   9.623
  913WAT     H2 2982   6.114   3.096   9.696
  914WAT      O 2983   3.803   7.851   9.297
  914WAT     H1 2984   3.746   7.778   9.261
  914WAT     H2 2985   3.881   7.812   9.346
  915WAT      O 2986   0.670   7.293   0.372
  915WAT     H1 2987   0.677   7.353   0.292
  915WAT     H2 2988   0.718   7.336   0.449
  916WAT      O 2989   2.507   0.857   0.061
  916WAT     H1 2990   2.454   0.790   0.009
  916WAT     H2 2991   2.455   0.884   0.142
  917WAT      O 2992   8.079   3.572   6.491
  917WAT     H1 2993   8.065   3.664   6.526
  917WAT     H2 2994   7.995   3.518   6.502
  918WAT      O 2995   2.916   6.321   8.720
  918WAT     H1 2996   2.943   6.281   8.808
  918WAT     H2 2997   2.988   6.304   8.652
  919WAT      O 2998   9.229   3.054   3.377
  919WAT     H1 2999   9.227   3.005   3.464
  919WAT     H2 3000   9.137   3.053   3.337
  920WAT      O 3001   4.095   7.518   0.005
  920WAT     H1 3002   4.037   7.439   0.024
  920WAT     H2 3003   4.041   7.586  -0.046
  921WAT      O 3004   7.679   6.909   8.095
  921WAT     H1 3005   7.728   6.995   8.078
  921WAT     H2 3006   7.726   6.834   8.048
  922WAT      O 3007   1.813   6.431   0.818
  922WAT     H1 3008   1.748   6.399   0.749
  922WAT     H2 3009   1.800   6.381   0.903
  923WAT      O 3010   6.990   3.015   6.547
  923WAT     H1 3011   6.979   3.010   6.646
  923WAT     H2 3012   7.005   2.923   6.511
  924WAT      O 3013   9.706   1.045   1.308
  924WAT     H1 3014   9.742   1.018   1.218
  924WAT     H2 3015   9.671   1.138   1.303
  925WAT      O 3016   7.934   4.172   0.960
  925WAT     H1 3017   7.845   4.145   0.997
  925WAT     H2 3018   8.005   4.111   0.994
  926WAT      O 3019   9.821   5.204   1.654
  926WAT     H1 3020   9.906   5.233   1.697
  926WAT     H2 3021   9.749   5.199   1.722
  927WAT      O 3022   2.830   8.779   7.053
  927WAT     H1 3023   2.789   8.862   7.091
  927WAT     H2 3024   2.775   8.700   7.079
  928WAT      O 3025   7.479   9.214   5.774
  928WAT     H1 3026   7.449   9.309   5.766
  928WAT     H2 3027   7.577   9.208   5.757
  929WAT      O 3028   8.475   3.485   8.741
  929WAT     H1 3029   8.423   3.401   8.726
  929WAT     H2 3030   8.557   3.465   8.795
  930WAT      O 3031   2.356   7.987   5.276
  930WAT     H1 3032   2.383   8.072   5.320
  930WAT     H2 3033   2.435   7.927   5.267
  931WAT      O 3034   3.373   4.799   2.542
  931WAT     H1 3035   3.472   4.791   2.543
  931WAT     H2 3036   3.332   4.708   2.543
  932WAT      O 3037   0.379   1.940   1.566
  932WAT     H1 3038   0.429   1.920   1.651
  932WAT     H2 3039   0.281   1.942   1.585
  933WAT      O 3040   8.433   8.171   4.263
  933WAT     H1 3041   8.341   8.144   4.234
  933WAT     H2 3042   8.463   8.249   4.208
  934WAT      O 3043   5.017   7.167   4.339
  934WAT     H1 3044   5.018   7.186   4.437
  934WAT     H2 3045   4.982   7.075   4.323
  935WAT      O 3046   0.517   0.243   6.230
  935WAT     H1 3047   0.600   0.299   6.221
  935WAT     H2 3048   0.509   0.212   6.325
  936WAT      O 3049   7.361   7.566   1.729
  936WAT     H1 3050   7.290   7.627   1.693
  936WAT     H2 3051   7.319   7.500   1.791
  937WAT      O 3052   5.632   3.762   3.284
  937WAT     H1 3053   5.685   3.746   3.201
  937WAT     H2 3054   5.646   3.856   3.315
  938WAT      O 3055   9.537   6.823   7.955
  938WAT     H1 3056   9.605   6.772   8.008
  938WAT     H2 3057   9.525   6.914   7.995
  939WAT      O 3058   2.978   8.741   9.800
  939WAT     H1 3059   3.019   8.668   9.745
  939WAT     H2 3060   2.881   8.748   9.780
  940WAT      O 3061   8.600   7.601   5.461
  940WAT     H1 3062   8.628   7.687   5.420
  940WAT     H2 3063   8.601   7.529   5.392
  941WAT      O 3064   8.198   3.857   4.611
  941WAT     H1 3065   8.292   3.878   4.637
  941WAT     H2 3066   8.163   3.783   4.668
  942WAT      O 3067   2.258   7.372   9.004
  942WAT     H1 3068   2.257   7.409   9.096
  942WAT     H2 3069   2.169   7.331   8.984
  943WAT      O 3070   1.816   6.028   2.138
  943WAT     H1 3071   1.838   6.115   2.182
  943WAT     H2 3072   1.817   6.039   2.039
  944WAT      O 3073   0.519   0.134   9.005
  944WAT     H1 3074   0.475   0.186   8.932
  944WAT     H2 3075   0.505   0.181   9.092
  945WAT      O 3076   8.373   4.485   6.150
  945WAT     H1 3077   8.364   4.387   6.131
  945WAT     H2 3078   8.463   4.516   6.120
  946WAT      O 3079   7.546   1.841   6.582
  946WAT     H1 3080   7.469   1.883   6.630
  946WAT     H2 3081   7.588   1.772   6.640
  947WAT      O 3082   2.428   7.943   1.916
  947WAT     H1 3083   2.465   7.962   2.007
  947WAT     H2 3084   2.373   8.020   1.885
  948WAT      O 3085   0.435   2.971   8.662
  948WAT     H1 3086   0.499   2.920   8.603
  948WAT     H2 3087   0.486   3.013   8.737
  949WAT      O 3088   9.504   4.690   5.764
  949WAT     H1 3089   9.433   4.734   5.820
  949WAT     H2 3090   9.460   4.627   5.699
  950WAT      O 3091   7.837   8.899   1.104
  950WAT     H1 3092   7.903   8.901   1.029
  950WAT     H2 3093   7.772   8.974   1.093
  951WAT      O 3094   4.940   8.060   3.324
  951WAT     H1 3095   4.868   8.070   3.393
  951WAT     H2 3096   4.945   7.964   3.295
  952WAT      O 3097   6.212   5.255   4.009
  952WAT     H1 3098   6.254   5.258   4.099
  952WAT     H2 3099   6.256   5.184   3.954
  953WAT      O 3100   4.131   1.749   4.679
  953WAT     H1 3101   4.228   1.751   4.704
  953WAT     H2 3102   4.114   1.672   4.619
  954WAT      O 3103   3.647   3.263   3.224
  954WAT     H1 3104   3.640   3.301   3.132
  954WAT     H2 3105   3.589   3.182   3.231
  955WAT      O 3106   0.532   4.187   6.385
  955WAT     H1 3107   0.611   4.179   6.446
  955WAT     H2 3108   0.504   4.283   6.379
  956WAT      O 3109   1.007   3.678   2.023
  956WAT     H1 3110   1.055   3.674   2.111
  956WAT     H2 3111   0.964   3.768   2.013
  957WAT      O 3112   8.061   4.008   1.128
  957WAT     H1 3113   7.981   3.953   1.152
  957WAT     H2 3114   8.142   3.950   1.127
  958WAT      O 3115   7.072   2.221   1.141
  958WAT     H1 3116   7.115   2.292   1.197
  958WAT     H2 3117   7.091   2.238   1.044
  959WAT      O 3118   6.673   6.532   8.882
  959WAT     H1 3119   6.657   6.630   8.873
  959WAT     H2 3120   6.701   6.494   8.793
  960WAT      O 3121   2.683   1.563   6.218
  960WAT     H1 3122   2.708   1.616   6.137
  960WAT     H2 3123   2.634   1.621   6.282
  961WAT      O 3124   2.282   8.024   1.041
  961WAT     H1 3125   2.236   8.087   1.103
  961WAT     H2 3126   2.254   7.930   1.061
  962WAT      O 3127   6.842   4.318   2.866
  962WAT     H1 3128   6.817   4.248   2.799
  962WAT     H2 3129   6.937   4.346   2.851
  963WAT      O 3130   1.450   4.040   9.394
  963WAT     H1 3131   1.491   4.008   9.308
  963WAT     H2 3132   1.508   4.013   9.471
  964WAT      O 3133   5.127   5.391   8.036
  964WAT     H1 3134   5.040   5.440   8.038
  964WAT     H2 3135   5.203   5.456   8.041
  965WAT      O 3136   6.916   2.933   2.140
  965WAT     H1 3137   6.964   3.020   2.130
  965WAT     H2 3138   6.911   2.887   2.051
  966WAT      O 3139   6.756   2.699   6.593
  966WAT     H1 3140   6.828   2.734   6.654
  966WAT     H2 3141   6.775   2.603   6.572
  967WAT      O 3142   1.069   6.620   3.339
  967WAT     H1 3143   0.999   6.648   3.273
  967WAT     H2 3144   1.129   6.551   3.297
  968WAT      O 3145   6.808   9.484   3.783
  968WAT     H1 3146   6.762   9.484   3.871
  968WAT     H2 3147   6.903   9.455   3.794
  969WAT      O 3148   4.639   0.977   0.409
  969WAT     H1 3149   4.571   0.945   0.343
  969WAT     H2 3150   4.618   0.940   0.499
  970WAT      O 3151   2.680   3.880   4.169
  970WAT     H1 3152   2.659   3.922   4.081
  970WAT     H2 3153   2.757   3.818   4.159
  971WAT      O 3154   2.628   8.081   2.537
  971WAT     H1 3155   2.686   8.105   2.615
  971WAT     H2 3156   2.685   8.065   2.456
  972WAT      O 3157   0.490   5.086   0.149
  972WAT     H1 3158   0.567   5.076   0.086
  972WAT     H2 3159   0.458   5.181   0.148
  973WAT      O 3160   5.846   0.995   5.937
  973WAT     H1 3161   5.793   1.003   5.853
  973WAT     H2 3162   5.846   0.899   5.967
  974WAT      O 3163   2.452   4.007   3.150
  974WAT     H1 3164   2.394   4.076   3.193
  974WAT     H2 3165   2.504   3.958   3.221
  975WAT      O 3166   4.613   3.491   1.391
  975WAT     H1 3167   4.604   3.488   1.292
  975WAT     H2 3168   4.529   3.528   1.431
  976WAT      O 3169   5.345   6.980   9.176
  976WAT     H1 3170   5.371   7.051   9.242
  976WAT     H2 3171   5.428   6.940   9.137
  977WAT      O 3172   1.794   5.774   1.249
  977WAT     H1 3173   1.809   5.829   1.167
  977WAT     H2 3174   1.873   5.715   1.264
  978WAT      O 3175   2.719   1.201   9.124
  978WAT     H1 3176   2.797   1.187   9.063
  978WAT     H2 3177   2.639   1.153   9.087
  979WAT      O 3178   6.692   0.249   8.734
  979WAT     H1 3179   6.613   0.269   8.791
  979WAT     H2 3180   6.702   0.320   8.664
  980WAT      O 3181   5.107   2.617   3.980
  980WAT     H1 3182   5.019   2.649   4.015
  980WAT     H2 3183   5.109   2.628   3.881
  981WAT      O 3184   8.056   8.336   8.355
  981WAT     H1 3185   8.070   8.285   8.440
  981WAT     H2 3186   7.977   8.396   8.366
  982WAT      O 3187   2.557   8.547   6.839
  982WAT     H1 3188   2.589   8.552   6.934
  982WAT     H2 3189   2.562   8.453   6.807
  983WAT      O 3190   9.524   2.453   1.849
  983WAT     H1 3191   9.610   2.474   1.895
  983WAT     H2 3192   9.491   2.534   1.801
  984WAT      O 3193   1.229   6.701   4.737
  984WAT     H1 3194   1.284   6.673   4.816
  984WAT     H2 3195   1.191   6.792   4.753
  985WAT      O 3196   7.885   9.556   6.956
  985WAT     H1 3197   7.939   9.473   6.959
  985WAT     H2 3198   7.801   9.540   6.903
  986WAT      O 3199   6.672   1.046   0.509
  986WAT     H1 3200   6.594   0.993   0.476
  986WAT     H2 3201   6.734   1.065   0.433
  987WAT      O 3202   9.051   2.744   3.806
  987WAT     H1 3203   8.959   2.779   3.789
  987WAT     H2 3204   9.049   2.644   3.806
  988WAT      O 3205   2.426   6.864   7.820
  988WAT     H1 3206   2.474   6.946   7.851
  988WAT     H2 3207   2.459   6.784   7.870
  989WAT      O 3208   2.349   2.751   3.833
  989WAT     H1 3209   2.390   2.812   3.901
  989WAT     H2 3210   2.404   2.752   3.749
  990WAT      O 3211   3.202   9.547   1.362
  990WAT     H1 3212   3.227   9.521   1.269
  990WAT     H2 3213   3.163   9.468   1.409
  991WAT      O 3214   8.017   9.463   7.305
  991WAT     H1 3215   8.026   9.364   7.320
  991WAT     H2 3216   8.079   9.492   7.233
  992WAT      O 3217   6.656   9.731   5.866
  992WAT     H1 3218   6.649   9.631   5.858
  992WAT     H2 3219   6.741   9.754   5.913
  993WAT      O 3220   9.084   9.763   4.404
  993WAT     H1 3221   9.137   9.840   4.367
  993WAT     H2 3222   9.005   9.799   4.454
  994WAT      O 3223   1.185   2.819   6.759
  994WAT     H1 3224   1.207   2.875   6.680
  994WAT     H2 3225   1.189   2.722   6.734
  995WAT      O 3226   7.698   1.644   2.391
  995WAT     H1 3227   7.747   1.731   2.390
  995WAT     H2 3228   7.643   1.636   2.307
  996WAT      O 3229   2.860   4.338   6.473
  996WAT     H1 3230   2.836   4.425   6.516
  996WAT     H2 3231   2.777   4.282   6.463
  997WAT      O 3232   6.172   2.263   9.871
  997WAT     H1 3233   6.149   2.172   9.906
  997WAT     H2 3234   6.232   2.253   9.792
  998WAT      O 3235   5.631   6.762   1.414
  998WAT     H1 3236   5.591   6.738   1.326
  998WAT     H2 3237   5.612   6.858   1.435
  999WAT      O 3238   9.237   6.927   5.072
  999WAT     H1 3239   9.169   6.877   5.018
  999WAT     H2 3240   9.310   6.961   5.012
 1000WAT      O 3241   6.943   5.291   3.774
 1000WAT     H1 3242   6.975   5.347   3.698
 1000WAT     H2 3243   6.911   5.203   3.741
 1001WAT      O 3244   5.773   7.404   8.676
 1001WAT     H1 3245   5.838   7.478   8.661
 1001WAT     H2 3246   5.722   7.421   8.761
 1002WAT      O 3247   5.727   0.303   0.238
 1002WAT     H1 3248   5.768   0.339   0.154
 1002WAT     H2 3249   5.628   0.319   0.237
 1003WAT      O 3250   5.832   5.630   0.164
 1003WAT     H1 3251   5.876   5.719   0.154
 1003WAT     H2 3252   5.888   5.570   0.221
 1004WAT      O 3253   2.056   3.404   4.938
 1004WAT     H1 3254   2.042   3.471   4.865
 1004WAT     H2 3255   2.122   3.439   5.004
 1005WAT      O 3256   0.890   1.714   8.709
 1005WAT     H1 3257   0.809   1.678   8.661
 1005WAT     H2 3258   0.939   1.639   8.753
 1006WAT      O 3259   6.247   9.338   9.172
 1006WAT     H1 3260   6.236   9.363   9.269
 1006WAT     H2 3261   6.158   9.313   9.134
 1007WAT      O 3262   5.193   9.079   5.658
 1007WAT     H1 3263   5.140   9.146   5.606
 1007WAT     H2 3264   5.239   9.016   5.595
 1008WAT      O 3265   1.759   7.435   3.545
 1008WAT     H1 3266   1.678   7.472   3.500
 1008WAT     H2 3267   1.841   7.479   3.509
 1009WAT      O 3268   9.836   2.183   0.886
 1009WAT     H1 3269   9.771   2.248   0.846
 1009WAT     H2 3270   9.792   2.093   0.894
 1010WAT      O 3271   5.107   5.061   9.296
 1010WAT     H1 3272   5.122   4.963   9.290
 1010WAT     H2 3273   5.049   5.081   9.374
 1011WAT      O 3274   8.407   4.293   8.053
 1011WAT     H1 3275   8.404   4.330   8.145
 1011WAT     H2 3276   8.501   4.266   8.031
 1012WAT      O 3277   4.375   1.778   4.775
 1012WAT     H1 3278   4.411   1.846   4.711
 1012WAT     H2 3279   4.428   1.694   4.768
 1013WAT      O 3280   4.683   3.041   1.985
 1013WAT     H1 3281   4.701   3.028   2.082
 1013WAT     H2 3282   4.752   3.103   1.946
 1014WAT      O 3283   9.603   2.521   0.199
 1014WAT     H1 3284   9.698   2.533   0.229
 1014WAT     H2 3285   9.554   2.607   0.209
 1015WAT      O 3286   0.803   7.519   8.049
 1015WAT     H1 3287   0.732   7.522   7.979
 1015WAT     H2 3288   0.808   7.427   8.088
 1016WAT      O 3289   2.288   5.458   7.216
 1016WAT     H1 3290   2.286   5.544   7.267
 1016WAT     H2 3291   2.278   5.477   7.118
 1017WAT      O 3292   3.122   3.330   9.089
 1017WAT     H1 3293   3.218   3.347   9.112
 1017WAT     H2 3294   3.080   3.273   9.160
 1018WAT      O 3295   3.585   5.638   1.156
 1018WAT     H1 3296   3.613   5.577   1.082
 1018WAT     H2 3297   3.666   5.675   1.201
 1019WAT      O 3298   2.297   7.366   6.737
 1019WAT     H1 3299   2.248   7.343   6.652
 1019WAT     H2 3300   2.337   7.457   6.728
 1020WAT      O 3301   7.930   4.520   2.606
 1020WAT     H1 3302   7.841   4.565   2.595
 1020WAT     H2 3303   7.943   4.494   2.702
 1021WAT      O 3304   7.492   5.086   4.616
 1021WAT     H1 3305   7.524   5.160   4.674
 1021WAT     H2 3306   7.535   5.093   4.526
 1022WAT      O 3307   4.148   3.142   0.321
 1022WAT     H1 3308   4.164   3.060   0.377
 1022WAT     H2 3309   4.093   3.117   0.241
 1023WAT      O 3310   9.178   0.960   3.324
 1023WAT     H1 3311   9.093   0.981   3.277
 1023WAT     H2 3312   9.158   0.927   3.416
 1024WAT      O 3313   9.164   9.411   5.811
 1024WAT     H1 3314   9.138   9.505   5.786
 1024WAT     H2 3315   9.240   9.381   5.755
 1025WAT      O 3316   6.542   4.366   3.841
 1025WAT     H1 3317   6.520   4.268   3.849
 1025WAT     H2 3318   6.546   4.391   3.745
 1026WAT      O 3319   3.448   7.430   8.028
 1026WAT     H1 3320   3.500   7.515   8.027
 1026WAT     H2 3321   3.481   7.371   8.101
 1027WAT      O 3322   9.434   5.594   7.501
 1027WAT     H1 3323   9.469   5.524   7.439
 1027WAT     H2 3324   9.387   5.665   7.449
 1028WAT      O 3325   8.983   9.059   8.986
 1028WAT     H1 3326   8.900   9.114   8.982
 1028WAT     H2 3327   8.959   8.962   8.998
 1029WAT      O 3328   0.527   1.511   5.317
 1029WAT     H1 3329   0.603   1.536   5.377
 1029WAT     H2 3330   0.495   1.419   5.338
 1030WAT      O 3331   5.146   4.409   0.465
 1030WAT     H1 3332   5.200   4.464   0.400
 1030WAT     H2 3333   5.109   4.469   0.536
 1031WAT      O 3334   6.568   6.391   0.100
 1031WAT     H1 3335   6.665   6.414   0.113
 1031WAT     H2 3336   6.551   6.299   0.135
 1032WAT      O 3337   5.802   9.637   2.145
 1032WAT     H1 3338   5.706   9.630   2.173
 1032WAT     H2 3339   5.815   9.584   2.061
 1033WAT      O 3340   6.501   0.967   8.030
 1033WAT     H1 3341   6.516   1.050   8.083
 1033WAT     H2 3342   6.552   0.891   8.072
 1034WAT      O 3343   8.655   3.641   1.815
 1034WAT     H1 3344   8.684   3.568   1.753
 1034WAT     H2 3345   8.624   3.720   1.761
 1035WAT      O 3346   1.409   4.411   6.881
 1035WAT     H1 3347   1.425   4.417   6.980
 1035WAT     H2 3348   1.394   4.503   6.844
 1036WAT      O 3349   1.682   5.689   6.124
 1036WAT     H1 3350   1.592   5.732   6.125
 1036WAT     H2 3351   1.681   5.608   6.183
 1037WAT      O 3352   6.443   0.476   2.701
 1037WAT     H1 3353   6.494   0.510   2.780
 1037WAT     H2 3354   6.368   0.419   2.731
 1038WAT      O 3355   1.829   2.602   0.085
 1038WAT     H1 3356   1.793   2.559   0.168
 1038WAT     H2 3357   1.835   2.535   0.012
 1039WAT      O 3358   7.507   0.219   0.634
 1039WAT     H1 3359   7.473   0.223   0.540
 1039WAT     H2 3360   7.606   0.205   0.633
 1040WAT      O 3361   9.613   8.657   0.195
 1040WAT     H1 3362   9.657   8.642   0.283
 1040WAT     H2 3363   9.520   8.688   0.209
 1041WAT      O 3364   4.816   0.358   8.252
 1041WAT     H1 3365   4.729   0.407   8.260
 1041WAT     H2 3366   4.839   0.316   8.340
 1042WAT      O 3367   6.989   4.912   1.849
 1042WAT     H1 3368   7.059   4.973   1.885
 1042WAT     H2 3369   7.004   4.897   1.752
 1043WAT      O 3370   4.172   6.266   6.848
 1043WAT     H1 3371   4.245   6.325   6.884
 1043WAT     H2 3372   4.115   6.234   6.924
 1044WAT      O 3373   2.177   3.798   4.725
 1044WAT     H1 3374   2.110   3.859   4.766
 1044WAT     H2 3375   2.195   3.826   4.631
 1045WAT      O 3376   1.260   8.187   2.858
 1045WAT     H1 3377   1.207   8.119   2.909
 1045WAT     H2 3378   1.204   8.268   2.842
 1046WAT      O 3379   1.206   0.631   9.016
 1046WAT     H1 3380   1.172   0.673   9.100
 1046WAT     H2 3381   1.204   0.532   9.025
 1047WAT      O 3382   1.033   4.616   1.459
 1047WAT     H1 3383   1.091   4.668   1.397
 1047WAT     H2 3384   0.992   4.539   1.411
 1048WAT      O 3385   8.401   8.147   1.782
 1048WAT     H1 3386   8.358   8.183   1.864
 1048WAT     H2 3387   8.369   8.054   1.766
 1049WAT      O 3388   8.833   8.498   2.826
 1049WAT     H1 3389   8.739   8.526   2.844
 1049WAT     H2 3390   8.834   8.404   2.793
 1050WAT      O 3391   1.433   4.813   0.294
 1050WAT     H1 3392   1.442   4.735   0.233
 1050WAT     H2 3393   1.397   4.783   0.382
 1051WAT      O 3394   3.349   0.316   5.922
 1051WAT     H1 3395   3.363   0.228   5.967
 1051WAT     H2 3396   3.437   0.363   5.914
 1052WAT      O 3397   4.683   8.248   7.744
 1052WAT     H1 3398   4.698   8.149   7.735
 1052WAT     H2 3399   4.650   8.285   7.658
 1053WAT      O 3400   3.668   2.944   4.732
 1053WAT     H1 3401   3.705   3.035   4.716
 1053WAT     H2 3402   3.698   2.910   4.821
 1054WAT      O 3403   1.487   0.052   6.376
 1054WAT     H1 3404   1.398   0.029   6.415
 1054WAT     H2 3405   1.489   0.149   6.350
 1055WAT      O 3406   4.020   5.892   4.311
 1055WAT     H1 3407   4.097   5.833   4.289
 1055WAT     H2 3408   3.937   5.837   4.320
 1056WAT      O 3409   5.345   8.262   3.257
 1056WAT     H1 3410   5.298   8.227   3.176
 1056WAT     H2 3411   5.444   8.255   3.244
 1057WAT      O 3412   8.740   0.583   2.833
 1057WAT     H1 3413   8.650   0.589   2.790
 1057WAT     H2 3414   8.756   0.490   2.865
 1058WAT      O 3415   0.505   3.101   2.526
 1058WAT     H1 3416   0.435   3.169   2.503
 1058WAT     H2 3417   0.592   3.147   2.541
 1059WAT      O 3418   0.077   8.018   6.307
 1059WAT     H1 3419   0.022   8.080   6.252
 1059WAT     H2 3420   0.018   7.948   6.347
 1060WAT      O 3421   3.182   7.144   9.744
 1060WAT     H1 3422   3.156   7.240   9.753
 1060WAT     H2 3423   3.273   7.137   9.703
 1061WAT      O 3424   6.130   8.494   1.728
 1061WAT     H1 3425   6.096   8.439   1.805
 1061WAT     H2 3426   6.171   8.578   1.763
 1062WAT      O 3427   4.239   0.252   8.988
 1062WAT     H1 3428   4.157   0.283   8.940
 1062WAT     H2 3429   4.307   0.220   8.922
 1063WAT      O 3430   2.586   9.298   4.239
 1063WAT     H1 3431   2.677   9.323   4.274
 1063WAT     H2 3432   2.583   9.199   4.224
 1064WAT      O 3433   5.053   6.944   3.084
 1064WAT     H1 3434   4.975   6.933   3.023
 1064WAT     H2 3435   5.066   6.860   3.136
 1065WAT      O 3436   0.671   6.896   6.699
 1065WAT     H1 3437   0.739   6.905   6.771
 1065WAT     H2 3438   0.662   6.983   6.650
 1066WAT      O 3439   2.632   0.836   5.603
 1066WAT     H1 3440   2.588   0.824   5.692
 1066WAT     H2 3441   2.583   0.782   5.535
 1067WAT      O 3442   8.095   8.323   1.672
 1067WAT     H1 3443   8.001   8.357   1.665
 1067WAT     H2 3444   8.146   8.379   1.737
 1068WAT      O 3445   2.495   1.264   4.626
 1068WAT     H1 3446   2.567   1.310   4.575
 1068WAT     H2 3447   2.514   1.166   4.630
 1069WAT      O 3448   5.325   8.233   2.575
 1069WAT     H1 3449   5.306   8.142   2.612
 1069WAT     H2 3450   5.293   8.303   2.639
 1070WAT      O 3451   1.976   1.802   6.031
 1070WAT     H1 3452   1.963   1.876   6.097
 1070WAT     H2 3453   1.940   1.830   5.942
 1071WAT      O 3454   3.745   9.646   7.937
 1071WAT     H1 3455   3.670   9.638   8.003
 1071WAT     H2 3456   3.832   9.632   7.984
 1072WAT      O 3457   3.645   1.655   8.162
 1072WAT     H1 3458   3.711   1.676   8.234
 1072WAT     H2 3459   3.555   1.689   8.187
 1073WAT      O 3460   9.076   8.172   5.830
 1073WAT     H1 3461   9.104   8.151   5.924
 1073WAT     H2 3462   9.012   8.249   5.831
 1074WAT      O 3463   2.056   1.954   5.012
 1074WAT     H1 3464   2.079   1.952   5.109
 1074WAT     H2 3465   2.100   1.877   4.966
 1075WAT      O 3466   4.990   0.905   8.675
 1075WAT     H1 3467   5.043   0.967   8.618
 1075WAT     H2 3468   4.965   0.951   8.760
 1076WAT      O 3469   7.167   5.573   1.825
 1076WAT     H1 3470   7.235   5.623   1.878
 1076WAT     H2 3471   7.139   5.627   1.746
 1077WAT      O 3472   6.070   0.320   8.941
 1077WAT     H1 3473   6.129   0.264   8.884
 1077WAT     H2 3474   6.054   0.274   9.029
 1078WAT      O 3475   3.076   3.068   1.139
 1078WAT     H1 3476   3.003   3.137   1.139
 1078WAT     H2 3477   3.092   3.038   1.045
 1079WAT      O 3478   8.902   4.996   9.486
 1079WAT     H1 3479   8.824   5.001   9.549
 1079WAT     H2 3480   8.872   4.958   9.398
 1080WAT      O 3481   6.547   1.384   5.613
 1080WAT     H1 3482   6.555   1.305   5.553
 1080WAT     H2 3483   6.480   1.366   5.684
 1081WAT      O 3484   1.950   6.230   5.049
 1081WAT     H1 3485   1.961   6.131   5.036
 1081WAT     H2 3486   2.007   6.260   5.125
 1082WAT      O 3487   3.581   6.520   2.649
 1082WAT     H1 3488   3.636   6.593   2.608
 1082WAT     H2 3489   3.505   6.561   2.700
 1083WAT      O 3490   4.097   2.654   1.887
 1083WAT     H1 3491   4.134   2.743   1.914
 1083WAT     H2 3492   4.109   2.643   1.788
 1084WAT      O 3493   7.360   5.680   0.532
 1084WAT     H1 3494   7.277   5.630   0.558
 1084WAT     H2 3495   7.413   5.702   0.614
 1085WAT      O 3496   3.047   4.844   5.692
 1085WAT     H1 3497   3.134   4.799   5.714
 1085WAT     H2 3498   3.013   4.809   5.605
 1086WAT      O 3499   3.997   1.204   6.660
 1086WAT     H1 3500   3.956   1.283   6.614
 1086WAT     H2 3501   4.058   1.157   6.596
 1087WAT      O 3502   6.052   2.655   2.749
 1087WAT     H1 3503   6.076   2.618   2.660
 1087WAT     H2 3504   5.987   2.594   2.794
 1088WAT      O 3505   5.951   5.044   1.015
 1088WAT     H1 3506   5.863   5.055   1.062
 1088WAT     H2 3507   5.968   5.124   0.958
 1089WAT      O 3508   2.898   8.287   5.926
 1089WAT     H1 3509   2.819   8.343   5.950
 1089WAT     H2 3510   2.965   8.343   5.877
 1090WAT      O 3511   7.518   4.569   1.428
 1090WAT     H1 3512   7.481   4.642   1.487
 1090WAT     H2 3513   7.554   4.610   1.344
 1091WAT      O 3514   1.159   4.291   2.037
 1091WAT     H1 3515   1.244   4.302   2.089
 1091WAT     H2 3516   1.174   4.317   1.942
 1092WAT      O 3517   1.971   5.382   2.930
 1092WAT     H1 3518   2.042   5.346   2.990
 1092WAT     H2 3519   1.985   5.480   2.916
 1093WAT      O 3520   0.005   2.165   1.669
 1093WAT     H1 3521   0.059   2.104   1.610
 1093WAT     H2 3522  -0.059   2.110   1.722
 1094WAT      O 3523   4.571   4.133   6.503
 1094WAT     H1 3524   4.507   4.056   6.509
 1094WAT     H2 3525   4.520   4.219   6.505
 1095WAT      O 3526   9.555   6.625   7.123
 1095WAT     H1 3527   9.598   6.566   7.191
 1095WAT     H2 3528   9.622   6.644   7.050
 1096WAT      O 3529   1.907   0.248   6.437
 1096WAT     H1 3530   1.935   0.189   6.512
 1096WAT     H2 3531   1.871   0.192   6.362
 1097WAT      O 3532   4.193   3.036   9.310
 1097WAT     H1 3533   4.117   3.047   9.245
 1097WAT     H2 3534   4.262   2.976   9.270
 1098WAT      O 3535   8.031   4.607   7.577
 1098WAT     H1 3536   8.126   4.612   7.546
 1098WAT     H2 3537   7.970   4.606   7.498
 1099WAT      O 3538   4.847   7.661   1.729
 1099WAT     H1 3539   4.768   7.722   1.725
 1099WAT     H2 3540   4.925   7.704   1.683
 1100WAT      O 3541   0.678   9.465   2.633
 1100WAT     H1 3542   0.752   9.432   2.691
 1100WAT     H2 3543   0.592   9.423   2.660
 1101WAT      O 3544   7.463   7.193   3.682
 1101WAT     H1 3545   7.420   7.232   3.600
 1101WAT     H2 3546   7.428   7.100   3.696
 1102WAT      O 3547   4.189   9.302   4.419
 1102WAT     H1 3548   4.119   9.237   4.451
 1102WAT     H2 3549   4.235   9.343   4.497
 1103WAT      O 3550   2.332   8.417   2.014
 1103WAT     H1 3551   2.324   8.438   1.917
 1103WAT     H2 3552   2.428   8.402   2.037
 1104WAT      O 3553   4.309   0.867   6.883
 1104WAT     H1 3554   4.229   0.811   6.905
 1104WAT     H2 3555   4.387   0.808   6.864
 1105WAT      O 3556   8.137   1.521   4.959
 1105WAT     H1 3557   8.147   1.429   4.919
 1105WAT     H2 3558   8.046   1.556   4.937
 1106WAT      O 3559   2.221   3.317   8.570
 1106WAT     H1 3560   2.310   3.307   8.613
 1106WAT     H2 3561   2.182   3.226   8.552
 1107WAT      O 3562   7.514   9.649   7.474
 1107WAT     H1 3563   7.522   9.552   7.494
 1107WAT     H2 3564   7.506   9.662   7.375
 1108WAT      O 3565   4.026   0.553   4.558
 1108WAT     H1 3566   3.994   0.639   4.596
 1108WAT     H2 3567   4.069   0.569   4.469
 1109WAT      O 3568   2.400   3.753   5.436
 1109WAT     H1 3569   2.461   3.674   5.446
 1109WAT     H2 3570   2.441   3.833   5.482
 1110WAT      O 3571   7.616   8.832   4.919
 1110WAT     H1 3572   7.538   8.824   4.981
 1110WAT     H2 3573   7.621   8.925   4.882
 1111WAT      O 3574   1.336   6.780   3.213
 1111WAT     H1 3575   1.306   6.836   3.137
 1111WAT     H2 3576   1.309   6.685   3.197
 1112WAT      O 3577   5.435   2.598   3.191
 1112WAT     H1 3578   5.395   2.644   3.112
 1112WAT     H2 3579   5.533   2.585   3.177
 1113WAT      O 3580   4.167   9.318   7.365
 1113WAT     H1 3581   4.078   9.352   7.335
 1113WAT     H2 3582   4.165   9.219   7.372
 1114WAT      O 3583   3.975   1.561   0.934
 1114WAT     H1 3584   4.043   1.603   0.874
 1114WAT     H2 3585   4.022   1.505   1.002
 1115WAT      O 3586   2.028   8.880   9.645
 1115WAT     H1 3587   2.033   8.787   9.683
 1115WAT     H2 3588   2.052   8.946   9.717
 1116WAT      O 3589   5.970   4.347   9.426
 1116WAT     H1 3590   6.006   4.326   9.335
 1116WAT     H2 3591   5.994   4.274   9.489
 1117WAT      O 3592   0.752   0.508   7.331
 1117WAT     H1 3593   0.719   0.581   7.390
 1117WAT     H2 3594   0.675   0.470   7.279
 1118WAT      O 3595   6.630   8.944   4.840
 1118WAT     H1 3596   6.556   8.910   4.781
 1118WAT     H2 3597   6.593   9.007   4.908
 1119WAT      O 3598   9.857   8.619   7.587
 1119WAT     H1 3599   9.888   8.660   7.673
 1119WAT     H2 3600   9.915   8.651   7.513
 1120WAT      O 3601   9.707   0.164   7.479
 1120WAT     H1 3602   9.636   0.231   7.501
 1120WAT     H2 3603   9.783   0.173   7.544
 1121WAT      O 3604   5.936   9.469   5.095
 1121WAT     H1 3605   5.838   9.485   5.097
 1121WAT     H2 3606   5.958   9.400   5.026
 1122WAT      O 3607   0.485   4.278   1.217
 1122WAT     H1 3608   0.546   4.332   1.159
 1122WAT     H2 3609   0.392   4.313   1.209
 1123WAT      O 3610   2.428   5.172   7.391
 1123WAT     H1 3611   2.342   5.169   7.340
 1123WAT     H2 3612   2.485   5.246   7.355
 1124WAT      O 3613   5.742   5.585   0.705
 1124WAT     H1 3614   5.676   5.630   0.644
 1124WAT     H2 3615   5.714   5.601   0.800
 1125WAT      O 3616   3.553   7.555   8.991
 1125WAT     H1 3617   3.557   7.602   9.079
 1125WAT     H2 3618   3.636   7.576   8.939
 1126WAT      O 3619   2.196   4.197   8.667
 1126WAT     H1 3620   2.254   4.169   8.590
 1126WAT     H2 3621   2.104   4.216   8.634
 1127WAT      O 3622   6.746   4.164   4.826
 1127WAT     H1 3623   6.776   4.111   4.747
 1127WAT     H2 3624   6.664   4.122   4.866
 1128WAT      O 3625   4.907   0.243   9.317
 1128WAT     H1 3626   5.004   0.222   9.330
 1128WAT     H2 3627   4.897   0.313   9.246
 1129WAT      O 3628   1.393   0.092   9.400
 1129WAT     H1 3629   1.352   0.178   9.370
 1129WAT     H2 3630   1.430   0.043   9.321
 1130WAT      O 3631   1.002   5.864   4.978
 1130WAT     H1 3632   0.920   5.920   4.965
 1130WAT     H2 3633   1.010   5.841   5.075
 1131WAT      O 3634   6.016   3.722   0.112
 1131WAT     H1 3635   6.063   3.638   0.083
 1131WAT     H2 3636   6.079   3.781   0.161
 1132WAT      O 3637   3.226   6.676   5.097
 1132WAT     H1 3638   3.219   6.767   5.056
 1132WAT     H2 3639   3.286   6.681   5.177
 1133WAT      O 3640   9.146   3.476   5.176
 1133WAT     H1 3641   9.156   3.445   5.081
 1133WAT     H2 3642   9.200   3.417   5.236
 1134WAT      O 3643   5.073   2.097   4.605
 1134WAT     H1 3644   5.048   2.086   4.701
 1134WAT     H2 3645   5.045   2.187   4.573
 1135WAT      O 3646   9.449   0.799   5.948
 1135WAT     H1 3647   9.473   0.725   6.011
 1135WAT     H2 3648   9.458   0.887   5.995
 1136WAT      O 3649   2.253   0.490   2.539
 1136WAT     H1 3650   2.317   0.550   2.491
 1136WAT     H2 3651   2.165   0.491   2.492
 1137WAT      O 3652   1.073   3.315   7.845
 1137WAT     H1 3653   1.101   3.408   7.822
 1137WAT     H2 3654   1.150   3.266   7.885
 1138WAT      O 3655   5.990   3.953   1.122
 1138WAT     H1 3656   5.896   3.922   1.106
 1138WAT     H2 3657   6.034   3.974   1.035
 1139WAT      O 3658   1.566   5.996   5.205
 1139WAT     H1 3659   1.534   5.937   5.280
 1139WAT     H2 3660   1.493   6.004   5.137
 1140WAT      O 3661   6.821   2.182   5.581
 1140WAT     H1 3662   6.814   2.192   5.680
 1140WAT     H2 3663   6.815   2.085   5.557
 1141WAT      O 3664   7.020   8.025   3.903
 1141WAT     H1 3665   6.948   8.055   3.841
 1141WAT     H2 3666   6.993   7.938   3.944
 1142WAT      O 3667   2.173   6.832   2.044
 1142WAT     H1 3668   2.127   6.791   1.966
 1142WAT     H2 3669   2.152   6.780   2.127
 1143WAT      O 3670   9.848   0.259   3.238
 1143WAT     H1 3671   9.839   0.177   3.295
 1143WAT     H2 3672   9.895   0.236   3.153
 1144WAT      O 3673   5.953   7.090   2.379
 1144WAT     H1 3674   5.969   7.011   2.319
 1144WAT     H2 3675   6.013   7.165   2.352
 1145WAT      O 3676   7.523   8.257   7.292
 1145WAT     H1 3677   7.435   8.304   7.286
 1145WAT     H2 3678   7.536   8.200   7.210
 1146WAT      O 3679   2.226   3.598   2.495
 1146WAT     H1 3680   2.250   3.577   2.400
 1146WAT     H2 3681   2.243   3.519   2.553
 1147WAT      O 3682   9.079   5.009   6.018
 1147WAT     H1 3683   9.032   5.007   6.106
 1147WAT     H2 3684   9.174   4.980   6.030
 1148WAT      O 3685   5.856   9.837   7.848
 1148WAT     H1 3686   5.930   9.875   7.903
 1148WAT     H2 3687   5.860   9.737   7.852
 1149WAT      O 3688   9.575   2.127   9.308
 1149WAT     H1 3689   9.524   2.082   9.381
 1149WAT     H2 3690   9.539   2.219   9.293
 1150WAT      O 3691   0.946   2.525   7.369
 1150WAT     H1 3692   0.937   2.604   7.308
 1150WAT     H2 3693   1.007   2.457   7.327
 1151WAT      O 3694   1.229   3.696   4.416
 1151WAT     H1 3695   1.268   3.631   4.482
 1151WAT     H2 3696   1.207   3.781   4.462
 1152WAT      O 3697   2.292   5.317   2.834
 1152WAT     H1 3698   2.360   5.372   2.883
 1152WAT     H2 3699   2.329   5.288   2.747
 1153WAT      O 3700   2.393   9.672   9.394
 1153WAT     H1 3701   2.331   9.746   9.420
 1153WAT     H2 3702   2.356   9.623   9.315
 1154WAT      O 3703   6.195   1.764   7.068
 1154WAT     H1 3704   6.279   1.743   7.118
 1154WAT     H2 3705   6.117   1.755   7.129
 1155WAT      O 3706   6.940   7.705   7.680
 1155WAT     H1 3707   7.024   7.742   7.719
 1155WAT     H2 3708   6.874   7.687   7.753
 1156WAT      O 3709   8.130   6.518   5.733
 1156WAT     H1 3710   8.077   6.550   5.812
 1156WAT     H2 3711   8.068   6.472   5.669
 1157WAT      O 3712   0.985   0.131   9.035
 1157WAT     H1 3713   0.907   0.106   8.978
 1157WAT     H2 3714   0.983   0.081   9.121
 1158WAT      O 3715   8.812   4.187   0.180
 1158WAT     H1 3716   8.761   4.115   0.226
 1158WAT     H2 3717   8.899   4.151   0.145
 1159WAT      O 3718   5.228   9.664   3.942
 1159WAT     H1 3719   5.327   9.665   3.957
 1159WAT     H2 3720   5.202   9.580   3.894
 1160WAT      O 3721   2.850   8.638   3.721
 1160WAT     H1 3722   2.900   8.590   3.792
 1160WAT     H2 3723   2.912   8.664   3.647
 1161WAT      O 3724   6.526   2.714   5.300
 1161WAT     H1 3725   6.576   2.792   5.337
 1161WAT     H2 3726   6.467   2.745   5.225
 1162WAT      O 3727   4.115   0.092   8.397
 1162WAT     H1 3728   4.128   0.138   8.484
 1162WAT     H2 3729   4.106   0.160   8.324
 1163WAT      O 3730   5.566   5.737   4.770
 1163WAT     H1 3731   5.625   5.813   4.798
 1163WAT     H2 3732   5.623   5.657   4.749
 1164WAT      O 3733   7.887   8.570   4.716
 1164WAT     H1 3734   7.938   8.486   4.732
 1164WAT     H2 3735   7.814   8.552   4.649
 1165WAT      O 3736   5.223   5.396   0.730
 1165WAT     H1 3737   5.263   5.373   0.641
 1165WAT     H2 3738   5.125   5.377   0.729
 1166WAT      O 3739   0.036   7.323   7.368
 1166WAT     H1 3740  -0.036   7.254   7.363
 1166WAT     H2 3741  -0.005   7.415   7.365
 1167WAT      O 3742   1.365   7.959   3.585
 1167WAT     H1 3743   1.371   7.961   3.685
 1167WAT     H2 3744   1.269   7.948   3.558
 1168WAT      O 3745   6.600   8.641   4.273
 1168WAT     H1 3746   6.504   8.637   4.298
 1168WAT     H2 3747   6.640   8.549   4.276
 1169WAT      O 3748   3.814   0.691   6.487
 1169WAT     H1 3749   3.824   0.607   6.434
 1169WAT     H2 3750   3.892   0.701   6.549
 1170WAT      O 3751   1.184   5.471   6.416
 1170WAT     H1 3752   1.192   5.372   6.417
 1170WAT     H2 3753   1.108   5.499   6.474
 1171WAT      O 3754   3.096   5.170   6.419
 1171WAT     H1 3755   3.008   5.178   6.467
 1171WAT     H2 3756   3.169   5.194   6.482
 1172WAT      O 3757   8.702   3.336   2.808
 1172WAT     H1 3758   8.625   3.399   2.818
 1172WAT     H2 3759   8.696   3.264   2.877
 1173WAT      O 3760   8.150   7.138   2.443
 1173WAT     H1 3761   8.134   7.061   2.505
 1173WAT     H2 3762   8.130   7.224   2.490
 1174WAT      O 3763   0.687   1.587   0.368
 1174WAT     H1 3764   0.637   1.674   0.371
 1174WAT     H2 3765   0.667   1.535   0.450
 1175WAT      O 3766   7.339   2.546   5.990
 1175WAT     H1 3767   7.335   2.473   6.059
 1175WAT     H2 3768   7.342   2.504   5.899
 1176WAT      O 3769   8.931   2.235   8.093
 1176WAT     H1 3770   8.939   2.219   8.191
 1176WAT     H2 3771   8.861   2.304   8.076
 1177WAT      O 3772   8.810   3.879   4.725
 1177WAT     H1 3773   8.802   3.943   4.648
 1177WAT     H2 3774   8.763   3.918   4.804
 1178WAT      O 3775   1.947   2.060   1.647
 1178WAT     H1 3776   1.960   2.030   1.553
 1178WAT     H2 3777   1.864   2.017   1.684
 1179WAT      O 3778   7.030   7.381   0.298
 1179WAT     H1 3779   7.093   7.379   0.220
 1179WAT     H2 3780   7.072   7.333   0.375
 1180WAT      O 3781   8.038   1.264   1.813
 1180WAT     H1 3782   8.044   1.224   1.905
 1180WAT     H2 3783   7.942   1.268   1.785
 1181WAT      O 3784   2.521   3.922   1.918
 1181WAT     H1 3785   2.495   4.012   1.882
 1181WAT     H2 3786   2.621   3.915   1.919
 1182WAT      O 3787   1.925   7.770   7.590
 1182WAT     H1 3788   1.948   7.807   7.680
 1182WAT     H2 3789   2.008   7.763   7.534
 1183WAT      O 3790   5.522   1.812   3.942
 1183WAT     H1 3791   5.496   1.907   3.922
 1183WAT     H2 3792   5.456   1.772   4.006
 1184WAT      O 3793   2.914   8.795   5.621
 1184WAT     H1 3794   2.833   8.849   5.645
 1184WAT     H2 3795   2.893   8.697   5.628
 1185WAT      O 3796   8.275   3.552   5.633
 1185WAT     H1 3797   8.208   3.503   5.577
 1185WAT     H2 3798   8.268   3.521   5.728
 1186WAT      O 3799   6.639   4.109   1.910
 1186WAT     H1 3800   6.662   4.018   1.877
 1186WAT     H2 3801   6.615   4.167   1.832
 1187WAT      O 3802   2.232   3.931   0.726
 1187WAT     H1 3803   2.270   3.970   0.642
 1187WAT     H2 3804   2.236   3.999   0.799
 1188WAT      O 3805   5.012   3.453   4.910
 1188WAT     H1 3806   5.082   3.460   4.839
 1188WAT     H2 3807   4.922   3.447   4.869
 1189WAT      O 3808   8.229   1.460   1.741
 1189WAT     H1 3809   8.312   1.404   1.751
 1189WAT     H2 3810   8.149   1.401   1.739
 1190WAT      O 3811   2.065   0.997   2.588
 1190WAT     H1 3812   2.021   1.037   2.508
 1190WAT     H2 3813   2.164   1.008   2.581
 1191WAT      O 3814   8.428   5.210   5.978
 1191WAT     H1 3815   8.333   5.232   5.955
 1191WAT     H2 3816   8.442   5.111   5.970
 1192WAT      O 3817   5.819   1.209   3.254
 1192WAT     H1 3818   5.849   1.231   3.346
 1192WAT     H2 3819   5.741   1.147   3.258
 1193WAT      O 3820   3.056   4.429   0.202
 1193WAT     H1 3821   2.990   4.496   0.238
 1193WAT     H2 3822   3.051   4.345   0.255
 1194WAT      O 3823   3.764   8.102   8.285
 1194WAT     H1 3824   3.704   8.131   8.359
 1194WAT     H2 3825   3.847   8.157   8.286
 1195WAT      O 3826   3.425   4.533   9.261
 1195WAT     H1 3827   3.383   4.455   9.214
 1195WAT     H2 3828   3.515   4.507   9.295
 1196WAT      O 3829   9.277   0.301   4.050
 1196WAT     H1 3830   9.258   0.333   3.958
 1196WAT     H2 3831   9.376   0.287   4.061
 1197WAT      O 3832   5.965   1.232   9.776
 1197WAT     H1 3833   6.028   1.262   9.704
 1197WAT     H2 3834   5.894   1.175   9.735
 1198WAT      O 3835   6.410   4.160   5.210
 1198WAT     H1 3836   6.389   4.257   5.213
 1198WAT     H2 3837   6.342   4.110   5.264
 1199WAT      O 3838   8.384   3.270   5.866
 1199WAT     H1 3839   8.398   3.368   5.876
 1199WAT     H2 3840   8.450   3.221   5.923
 1200WAT      O 3841   3.995   0.683   2.752
 1200WAT     H1 3842   4.019   0.659   2.846
 1200WAT     H2 3843   3.928   0.757   2.753
 1201WAT      O 3844   2.115   4.297   4.351
 1201WAT     H1 3845   2.132   4.396   4.353
 1201WAT     H2 3846   2.196   4.248   4.381
 1202WAT      O 3847   6.047   5.723   2.873
 1202WAT     H1 3848   5.982   5.799   2.871
 1202WAT     H2 3849   6.131   5.753   2.917
 1203WAT      O 3850   1.253   1.487   9.861
 1203WAT     H1 3851   1.292   1.484   9.952
 1203WAT     H2 3852   1.173   1.426   9.856
 1204WAT      O 3853   2.354   1.360   4.068
 1204WAT     H1 3854   2.273   1.366   4.009
 1204WAT     H2 3855   2.384   1.452   4.093
 1205WAT      O 3856   9.554   4.581   8.292
 1205WAT     H1 3857   9.574   4.492   8.332
 1205WAT     H2 3858   9.594   4.653   8.350
 1206WAT      O 3859   6.842   8.303   6.995
 1206WAT     H1 3860   6.817   8.287   7.091
 1206WAT     H2 3861   6.860   8.215   6.951
 1207WAT      O 3862   7.517   4.347   9.078
 1207WAT     H1 3863   7.437   4.305   9.035
 1207WAT     H2 3864   7.498   4.443   9.098
 1208WAT      O 3865   6.319   1.362   7.589
 1208WAT     H1 3866   6.270   1.280   7.558
 1208WAT     H2 3867   6.338   1.421   7.511
 1209WAT      O 3868   8.465   1.709   1.092
 1209WAT     H1 3869   8.512   1.700   1.180
 1209WAT     H2 3870   8.378   1.755   1.106
 1210WAT      O 3871   3.253   3.964   0.461
 1210WAT     H1 3872   3.343   3.991   0.496
 1210WAT     H2 3873   3.261   3.875   0.415
 1211WAT      O 3874   5.507   8.269   1.859
 1211WAT     H1 3875   5.536   8.244   1.951
 1211WAT     H2 3876   5.587   8.299   1.806
 1212WAT      O 3877   5.295   7.518   4.428
 1212WAT     H1 3878   5.209   7.522   4.480
 1212WAT     H2 3879   5.368   7.563   4.480
 1213WAT      O 3880   9.865   7.133   0.118
 1213WAT     H1 3881   9.931   7.096   0.183
 1213WAT     H2 3882   9.772   7.106   0.145
 1214WAT      O 3883   7.636   4.852   0.049
 1214WAT     H1 3884   7.543   4.880   0.029
 1214WAT     H2 3885   7.666   4.783  -0.017
 1215WAT      O 3886   5.332   8.759   6.938
 1215WAT     H1 3887   5.289   8.712   7.014
 1215WAT     H2 3888   5.265   8.816   6.891
 1216WAT      O 3889   2.607   1.313   6.153
 1216WAT     H1 3890   2.528   1.273   6.199
 1216WAT     H2 3891   2.626   1.404   6.191
 1217WAT      O 3892   4.098   1.964   3.414
 1217WAT     H1 3893   4.162   1.940   3.341
 1217WAT     H2 3894   4.112   1.902   3.491
 1218WAT      O 3895   3.558   0.715   0.692
 1218WAT     H1 3896   3.640   0.763   0.723
 1218WAT     H2 3897   3.584   0.638   0.635
 1219WAT      O 3898   5.726   0.763   2.531
 1219WAT     H1 3899   5.660   0.716   2.589
 1219WAT     H2 3900   5.814   0.767   2.577
 1220WAT      O 3901   3.260   6.775   1.292
 1220WAT     H1 3902   3.255   6.873   1.309
 1220WAT     H2 3903   3.305   6.730   1.369
 1221WAT      O 3904   0.660   5.273   8.116
 1221WAT     H1 3905   0.578   5.304   8.069
 1221WAT     H2 3906   0.645   5.276   8.215
 1222WAT      O 3907   1.802   6.032   1.389
 1222WAT     H1 3908   1.816   5.939   1.354
 1222WAT     H2 3909   1.836   6.038   1.483
 1223WAT      O 3910   8.359   4.230   4.703
 1223WAT     H1 3911   8.452   4.265   4.708
 1223WAT     H2 3912   8.339   4.201   4.609
 1224WAT      O 3913   5.312   7.941   6.518
 1224WAT     H1 3914   5.235   7.942   6.454
 1224WAT     H2 3915   5.390   7.989   6.477
 1225WAT      O 3916   6.954   4.906   5.599
 1225WAT     H1 3917   6.921   4.811   5.602
 1225WAT     H2 3918   7.008   4.925   5.681
 1226WAT      O 3919   9.013   0.030   3.959
 1226WAT     H1 3920   8.989   0.117   4.003
 1226WAT     H2 3921   9.085   0.045   3.891
 1227WAT      O 3922   1.214   8.642   0.276
 1227WAT     H1 3923   1.197   8.568   0.340
 1227WAT     H2 3924   1.128   8.677   0.240
 1228WAT      O 3925   3.081   6.684   2.578
 1228WAT     H1 3926   3.141   6.611   2.547
 1228WAT     H2 3927   2.986   6.654   2.568
 1229WAT      O 3928   8.426   2.597   2.278
 1229WAT     H1 3929   8.422   2.695   2.297
 1229WAT     H2 3930   8.521   2.566   2.283
 1230WAT      O 3931   1.965   3.643   2.834
 1230WAT     H1 3932   1.906   3.564   2.818
 1230WAT     H2 3933   2.043   3.615   2.891
 1231WAT      O 3934   8.426   2.680   7.923
 1231WAT     H1 3935   8.334   2.674   7.961
 1231WAT     H2 3936   8.494   2.671   7.996
 1232WAT      O 3937   2.596   4.810   5.149
 1232WAT     H1 3938   2.642   4.871   5.214
 1232WAT     H2 3939   2.663   4.770   5.087
 1233WAT      O 3940   7.090   8.807   2.454
 1233WAT     H1 3941   7.011   8.838   2.401
 1233WAT     H2 3942   7.075   8.827   2.551
 1234WAT      O 3943   2.960   1.534   1.859
 1234WAT     H1 3944   2.938   1.447   1.814
 1234WAT     H2 3945   2.930   1.530   1.954
 1235WAT      O 3946   4.237   5.785   0.514
 1235WAT     H1 3947   4.278   5.842   0.442
 1235WAT     H2 3948   4.258   5.689   0.496
 1236WAT      O 3949   6.756   9.674   6.542
 1236WAT     H1 3950   6.836   9.654   6.485
 1236WAT     H2 3951   6.749   9.773   6.555
 1237WAT      O 3952   5.027   2.224   0.067
 1237WAT     H1 3953   4.956   2.198   0.001
 1237WAT     H2 3954   5.032   2.324   0.073
 1238WAT      O 3955   0.662   9.834   9.634
 1238WAT     H1 3956   0.695   9.830   9.728
 1238WAT     H2 3957   0.582   9.895   9.629
 1239WAT      O 3958   9.696   3.930   5.729
 1239WAT     H1 3959   9.681   4.021   5.768
 1239WAT     H2 3960   9.634   3.916   5.652
 1240WAT      O 3961   1.242   7.591   7.251
 1240WAT     H1 3962   1.215   7.495   7.253
 1240WAT     H2 3963   1.169   7.647   7.290
 1241WAT      O 3964   0.500   5.741   6.770
 1241WAT     H1 3965   0.555   5.732   6.686
 1241WAT     H2 3966   0.548   5.696   6.845
 1242WAT      O 3967   5.806   5.471   6.391
 1242WAT     H1 3968   5.848   5.556   6.361
 1242WAT     H2 3969   5.732   5.446   6.328
 1243WAT      O 3970   1.552   2.798   3.556
 1243WAT     H1 3971   1.461   2.791   3.517
 1243WAT     H2 3972   1.548   2.785   3.655
 1244WAT      O 3973   3.102   2.030   6.479
 1244WAT     H1 3974   3.114   1.931   6.488
 1244WAT     H2 3975   3.007   2.049   6.454
 1245WAT      O 3976   0.368   3.105   6.917
 1245WAT     H1 3977   0.287   3.117   6.859
 1245WAT     H2 3978   0.354   3.156   7.002
 1246WAT      O 3979   1.598   1.789   0.488
 1246WAT     H1 3980   1.680   1.742   0.457
 1246WAT     H2 3981   1.520   1.762   0.432
 1247WAT      O 3982   5.945   0.533   8.089
 1247WAT     H1 3983   5.875   0.569   8.151
 1247WAT     H2 3984   5.911   0.449   8.046
 1248WAT      O 3985   0.392   4.899   1.932
 1248WAT     H1 3986   0.467   4.963   1.950
 1248WAT     H2 3987   0.422   4.806   1.949
 1249WAT      O 3988   9.558   6.468   0.630
 1249WAT     H1 3989   9.520   6.557   0.608
 1249WAT     H2 3990   9.645   6.480   0.678
 1250WAT      O 3991   3.397   1.669   5.909
 1250WAT     H1 3992   3.440   1.614   5.981
 1250WAT     H2 3993   3.419   1.631   5.820
 1251WAT      O 3994   0.328   8.096   2.554
 1251WAT     H1 3995   0.386   8.130   2.628
 1251WAT     H2 3996   0.345   8.149   2.471
 1252WAT      O 3997   6.174   3.622   5.734
 1252WAT     H1 3998   6.095   3.585   5.784
 1252WAT     H2 3999   6.240   3.659   5.798
 1253WAT      O 4000   3.194   4.138   8.554
 1253WAT     H1 4001   3.132   4.145   8.476
 1253WAT     H2 4002   3.195   4.043   8.588
 1254WAT      O 4003   3.590   6.302   2.488
 1254WAT     H1 4004   3.592   6.384   2.545
 1254WAT     H2 4005   3.621   6.224   2.542
 1255WAT      O 4006   5.107   8.051   9.036
 1255WAT     H1 4007   5.024   8.007   9.000
 1255WAT     H2 4008   5.098   8.063   9.135
 1256WAT      O 4009   1.702   6.728   1.885
 1256WAT     H1 4010   1.726   6.803   1.824
 1256WAT     H2 4011   1.602   6.723   1.895
 1257WAT      O 4012   1.422   8.119   3.260
 1257WAT     H1 4013   1.516   8.155   3.262
 1257WAT     H2 4014   1.362   8.187   3.218
 1258WAT      O 4015   3.932   6.284   2.335
 1258WAT     H1 4016   3.946   6.202   2.391
 1258WAT     H2 4017   3.989   6.358   2.371
 1259WAT      O 4018   0.945   1.413   5.795
 1259WAT     H1 4019   0.862   1.357   5.792
 1259WAT     H2 4020   1.013   1.376   5.731
 1260WAT      O 4021   5.764   4.319   0.870
 1260WAT     H1 4022   5.835   4.302   0.938
 1260WAT     H2 4023   5.793   4.281   0.782
 1261WAT      O 4024   3.657   9.803   2.881
 1261WAT     H1 4025   3.757   9.796   2.885
 1261WAT     H2 4026   3.628   9.808   2.785
 1262WAT      O 4027   5.341   1.350   3.783
 1262WAT     H1 4028   5.269   1.347   3.852
 1262WAT     H2 4029   5.397   1.432   3.798
 1263WAT      O 4030   8.040   7.889   4.952
 1263WAT     H1 4031   7.986   7.869   5.033
 1263WAT     H2 4032   8.117   7.825   4.946
 1264WAT      O 4033   4.793   9.052   8.510
 1264WAT     H1 4034   4.721   9.086   8.450
 1264WAT     H2 4035   4.855   8.993   8.458
 1265WAT      O 4036   8.773   9.009   8.368
 1265WAT     H1 4037   8.752   9.040   8.461
 1265WAT     H2 4038   8.844   8.939   8.372
 1266WAT      O 4039   8.808   4.276   7.555
 1266WAT     H1 4040   8.906   4.285   7.537
 1266WAT     H2 4041   8.762   4.248   7.471
 1267WAT      O 4042   3.387   7.422   2.434
 1267WAT     H1 4043   3.306   7.364   2.439
 1267WAT     H2 4044   3.386   7.486   2.511
 1268WAT      O 4045   0.416   4.847   1.251
 1268WAT     H1 4046   0.386   4.870   1.158
 1268WAT     H2 4047   0.474   4.766   1.248
 1269WAT      O 4048   9.335   7.602   2.759
 1269WAT     H1 4049   9.402   7.545   2.712
 1269WAT     H2 4050   9.378   7.644   2.839
 1270WAT      O 4051   7.678   4.931   1.222
 1270WAT     H1 4052   7.771   4.938   1.188
 1270WAT     H2 4053   7.679   4.924   1.322
 1271WAT      O 4054   4.082   6.753   0.498
 1271WAT     H1 4055   4.062   6.831   0.559
 1271WAT     H2 4056   4.028   6.674   0.527
 1272WAT      O 4057   3.450   3.078   3.211
 1272WAT     H1 4058   3.476   2.983   3.190
 1272WAT     H2 4059   3.387   3.078   3.289
 1273WAT      O 4060   2.553   1.757   8.307
 1273WAT     H1 4061   2.524   1.780   8.400
 1273WAT     H2 4062   2.601   1.670   8.307
 1274WAT      O 4063   9.691   9.359   4.516
 1274WAT     H1 4064   9.760   9.334   4.448
 1274WAT     H2 4065   9.677   9.282   4.579
 1275WAT      O 4066   2.140   5.897   7.651
 1275WAT     H1 4067   2.113   5.810   7.693
 1275WAT     H2 4068   2.069   5.926   7.587
 1276WAT      O 4069   4.651   1.542   3.565
 1276WAT     H1 4070   4.638   1.583   3.655
 1276WAT     H2 4071   4.749   1.531   3.547
 1277WAT      O 4072   6.837   5.103   1.532
 1277WAT     H1 4073   6.791   5.087   1.445
 1277WAT     H2 4074   6.773   5.089   1.608
 1278WAT      O 4075   3.680   6.268   2.248
 1278WAT     H1 4076   3.777   6.258   2.268
 1278WAT     H2 4077   3.629   6.278   2.334
 1279WAT      O 4078   2.517   2.222   8.636
 1279WAT     H1 4079   2.511   2.212   8.735
 1279WAT     H2 4080   2.488   2.137   8.592
 1280WAT      O 4081   4.794   1.055   9.663
 1280WAT     H1 4082   4.879   1.108   9.672
 1280WAT     H2 4083   4.719   1.116   9.641
 1281WAT      O 4084   5.630   0.187   5.364
 1281WAT     H1 4085   5.617   0.095   5.400
 1281WAT     H2 4086   5.689   0.184   5.283
 1282WAT      O 4087   0.779   8.621   8.547
 1282WAT     H1 4088   0.700   8.644   8.604
 1282WAT     H2 4089   0.748   8.596   8.455
 1283WAT      O 4090   9.596   3.104   3.268
 1283WAT     H1 4091   9.548   3.148   3.192
 1283WAT     H2 4092   9.691   3.133   3.270
 1284WAT      O 4093   7.937   3.566   9.742
 1284WAT     H1 4094   7.940   3.643   9.678
 1284WAT     H2 4095   7.929   3.600   9.835
 1285WAT      O 4096   9.766   8.581   3.624
 1285WAT     H1 4097   9.793   8.589   3.528
 1285WAT     H2 4098   9.839   8.535   3.675
 1286WAT      O 4099   6.365   2.484   5.961
 1286WAT     H1 4100   6.299   2.413   5.983
 1286WAT     H2 4101   6.317   2.561   5.917
 1287WAT      O 4102   4.425   3.473   5.795
 1287WAT     H1 4103   4.434   3.484   5.894
 1287WAT     H2 4104   4.334   3.438   5.773
 1288WAT      O 4105   6.859   9.344   4.835
 1288WAT     H1 4106   6.888   9.292   4.915
 1288WAT     H2 4107   6.851   9.441   4.858
 1289WAT      O 4108   0.141   9.696   3.908
 1289WAT     H1 4109   0.188   9.784   3.914
 1289WAT     H2 4110   0.122   9.675   3.812
 1290WAT      O 4111   9.082   0.273   2.042
 1290WAT     H1 4112   9.108   0.281   1.945
 1290WAT     H2 4113   9.158   0.303   2.099
 1291WAT      O 4114   7.181   7.745   1.622
 1291WAT     H1 4115   7.150   7.759   1.716
 1291WAT     H2 4116   7.107   7.771   1.559
 1292WAT      O 4117   5.464   6.766   2.505
 1292WAT     H1 4118   5.561   6.759   2.529
 1292WAT     H2 4119   5.409   6.777   2.588
 1293WAT      O 4120   5.844   2.075   5.825
 1293WAT     H1 4121   5.798   2.159   5.798
 1293WAT     H2 4122   5.888   2.034   5.746
 1294WAT      O 4123   1.617   0.157   4.701
 1294WAT     H1 4124   1.626   0.237   4.760
 1294WAT     H2 4125   1.639   0.182   4.607
 1295WAT      O 4126   9.865   5.258   3.039
 1295WAT     H1 4127   9.918   5.173   3.044
 1295WAT     H2 4128   9.797   5.259   3.113
 1296WAT      O 4129   6.699   7.404   4.065
 1296WAT     H1 4130   6.702   7.467   3.987
 1296WAT     H2 4131   6.609   7.363   4.071
 1297WAT      O 4132   2.320   4.299   8.072
 1297WAT     H1 4133   2.296   4.389   8.110
 1297WAT     H2 4134   2.260   4.279   7.994
 1298WAT      O 4135   6.561   7.838   8.115
 1298WAT     H1 4136   6.643   7.891   8.093
 1298WAT     H2 4137   6.488   7.863   8.052
 1299WAT      O 4138   3.895   2.872   1.604
 1299WAT     H1 4139   3.905   2.970   1.583
 1299WAT     H2 4140   3.901   2.820   1.519
 1300WAT      O 4141   4.223   6.559   9.330
 1300WAT     H1 4142   4.137   6.608   9.316
 1300WAT     H2 4143   4.250   6.568   9.426
 1301WAT      O 4144   4.819   7.439   7.512
 1301WAT     H1 4145   4.910   7.398   7.521
 1301WAT     H2 4146   4.781   7.415   7.423
 1302WAT      O 4147   4.681   5.321   5.114
 1302WAT     H1 4148   4.626   5.349   5.035
 1302WAT     H2 4149   4.690   5.397   5.177
 1303WAT      O 4150   4.839   4.594   3.700
 1303WAT     H1 4151   4.746   4.597   3.736
 1303WAT     H2 4152   4.855   4.674   3.642
 1304WAT      O 4153   3.847   8.672   6.133
 1304WAT     H1 4154   3.907   8.672   6.053
 1304WAT     H2 4155   3.842   8.765   6.170
 1305WAT      O 4156   9.656   1.780   2.969
 1305WAT     H1 4157   9.662   1.869   2.924
 1305WAT     H2 4158   9.560   1.759   2.986
 1306WAT      O 4159   1.557   3.395   8.667
 1306WAT     H1 4160   1.488   3.437   8.608
 1306WAT     H2 4161   1.521   3.310   8.705
 1307WAT      O 4162   9.079   0.718   0.176
 1307WAT     H1 4163   9.007   0.787   0.187
 1307WAT     H2 4164   9.114   0.691   0.265
 1308WAT      O 4165   7.056   5.294   5.694
 1308WAT     H1 4166   6.966   5.270   5.731
 1308WAT     H2 4167   7.050   5.304   5.595
 1309WAT      O 4168   7.063   5.644   5.972
 1309WAT     H1 4169   7.113   5.560   5.956
 1309WAT     H2 4170   7.112   5.721   5.930
 1310WAT      O 4171   7.646   8.311   5.108
 1310WAT     H1 4172   7.680   8.313   5.013
 1310WAT     H2 4173   7.554   8.272   5.110
 1311WAT      O 4174   8.678   7.843   0.535
 1311WAT     H1 4175   8.775   7.864   0.545
 1311WAT     H2 4176   8.637   7.832   0.626
 1312WAT      O 4177   2.684   3.250   9.538
 1312WAT     H1 4178   2.643   3.182   9.599
 1312WAT     H2 4179   2.738   3.315   9.592
 1313WAT      O 4180   9.402   1.552   5.905
 1313WAT     H1 4181   9.339   1.621   5.940
 1313WAT     H2 4182   9.361   1.461   5.913
 1314WAT      O 4183   5.719   0.634   5.026
 1314WAT     H1 4184   5.810   0.600   5.001
 1314WAT     H2 4185   5.684   0.581   5.104
 1315WAT      O 4186   0.271   8.982   5.619
 1315WAT     H1 4187   0.246   9.009   5.712
 1315WAT     H2 4188   0.250   8.884   5.606
 1316WAT      O 4189   3.150   1.215   2.283
 1316WAT     H1 4190   3.241   1.255   2.285
 1316WAT     H2 4191   3.137   1.163   2.198
 1317WAT      O 4192   9.248   0.268   0.870
 1317WAT     H1 4193   9.258   0.184   0.924
 1317WAT     H2 4194   9.331   0.324   0.880
 1318WAT      O 4195   2.693   6.487   8.722
 1318WAT     H1 4196   2.634   6.437   8.784
 1318WAT     H2 4197   2.782   6.442   8.716
 1319WAT      O 4198   4.551   6.282   1.485
 1319WAT     H1 4199   4.609   6.338   1.427
 1319WAT     H2 4200   4.597   6.263   1.572
 1320WAT      O 4201   0.766   8.172   0.176
 1320WAT     H1 4202   0.703   8.099   0.151
 1320WAT     H2 4203   0.767   8.242   0.104
 1321WAT      O 4204   3.213   2.709   2.391
 1321WAT     H1 4205   3.114   2.697   2.398
 1321WAT     H2 4206   3.235   2.748   2.302
 1322WAT      O 4207   5.210   4.491   6.270
 1322WAT     H1 4208   5.239   4.585   6.254
 1322WAT     H2 4209   5.151   4.461   6.195
 1323WAT      O 4210   3.714   3.062   2.860
 1323WAT     H1 4211   3.628   3.016   2.880
 1323WAT     H2 4212   3.697   3.142   2.803
 1324WAT      O 4213   2.905   6.083   1.372
 1324WAT     H1 4214   2.842   6.020   1.327
 1324WAT     H2 4215   2.996   6.076   1.330
 1325WAT      O 4216   0.182   7.622   1.771
 1325WAT     H1 4217   0.109   7.668   1.820
 1325WAT     H2 4218   0.159   7.619   1.673
 1326WAT      O 4219   1.137   7.912   2.458
 1326WAT     H1 4220   1.212   7.956   2.407
 1326WAT     H2 4221   1.176   7.852   2.528
 1327WAT      O 4222   5.882   9.391   5.864
 1327WAT     H1 4223   5.971   9.365   5.826
 1327WAT     H2 4224   5.889   9.401   5.963
 1328WAT      O 4225   6.657   7.225   7.559
 1328WAT     H1 4226   6.626   7.130   7.553
 1328WAT     H2 4227   6.673   7.261   7.467
 1329WAT      O 4228   8.762   0.080   8.114
 1329WAT     H1 4229   8.743  -0.015   8.092
 1329WAT     H2 4230   8.842   0.086   8.173
 1330WAT      O 4231   6.601   0.055   1.071
 1330WAT     H1 4232   6.555   0.143   1.075
 1330WAT     H2 4233   6.603   0.022   0.977
 1331WAT      O 4234   7.207   4.891   8.289
 1331WAT     H1 4235   7.272   4.952   8.243
 1331WAT     H2 4236   7.250   4.854   8.372
 1332WAT      O 4237   3.755   8.856   9.525
 1332WAT     H1 4238   3.770   8.955   9.530
 1332WAT     H2 4239   3.843   8.809   9.532
 1333WAT      O 4240   3.446   2.641   1.176
 1333WAT     H1 4241   3.412   2.547   1.182
 1333WAT     H2 4242   3.372   2.705   1.195
 1334WAT      O 4243   2.696   6.036   6.684
 1334WAT     H1 4244   2.713   6.129   6.715
 1334WAT     H2 4245   2.776   5.979   6.706
 1335WAT      O 4246   0.967   5.005   3.304
 1335WAT     H1 4247   0.942   5.050   3.389
 1335WAT     H2 4248   0.904   4.929   3.287
 1336WAT      O 4249   7.731   1.461   4.552
 1336WAT     H1 4250   7.734   1.560   4.536
 1336WAT     H2 4251   7.812   1.433   4.605
 1337WAT      O 4252   8.470   4.058   5.633
 1337WAT     H1 4253   8.379   4.048   5.674
 1337WAT     H2 4254   8.495   3.974   5.586
 1338WAT      O 4255   7.734   7.496   0.009
 1338WAT     H1 4256   7.661   7.465   0.069
 1338WAT     H2 4257   7.821   7.499   0.059
 1339WAT      O 4258   3.359   7.958   9.001
 1339WAT     H1 4259   3.395   7.871   8.967
 1339WAT     H2 4260   3.431   8.027   8.998
 1340WAT      O 4261   4.073   3.825   6.166
 1340WAT     H1 4262   3.976   3.817   6.189
 1340WAT     H2 4263   4.082   3.835   6.067
 1341WAT      O 4264   4.570   1.994   5.421
 1341WAT     H1 4265   4.603   2.009   5.514
 1341WAT     H2 4266   4.620   1.917   5.380
 1342WAT      O 4267   8.057   1.440   0.780
 1342WAT     H1 4268   8.058   1.501   0.701
 1342WAT     H2 4269   7.979   1.378   0.774
 1343WAT      O 4270   3.212   3.946   1.800
 1343WAT     H1 4271   3.219   4.042   1.827
 1343WAT     H2 4272   3.292   3.896   1.833
 1344WAT      O 4273   8.572   5.074   9.490
 1344WAT     H1 4274   8.498   5.083   9.557
 1344WAT     H2 4275   8.630   4.997   9.515
 1345WAT      O 4276   8.910   3.632   8.046
 1345WAT     H1 4277   8.840   3.567   8.015
 1345WAT     H2 4278   8.866   3.705   8.098
 1346WAT      O 4279   1.537   5.508   5.601
 1346WAT     H1 4280   1.559   5.581   5.536
 1346WAT     H2 4281   1.484   5.437   5.554
 1347WAT      O 4282   2.183   8.434   5.149
 1347WAT     H1 4283   2.143   8.348   5.116
 1347WAT     H2 4284   2.133   8.466   5.229
 1348WAT      O 4285   0.272   5.599   9.283
 1348WAT     H1 4286   0.372   5.602   9.289
 1348WAT     H2 4287   0.242   5.504   9.269
 1349WAT      O 4288   5.208  -0.000   4.285
 1349WAT     H1 4289   5.137  -0.064   4.255
 1349WAT     H2 4290   5.175   0.094   4.275
 1350WAT      O 4291   6.359   0.309   5.851
 1350WAT     H1 4292   6.326   0.336   5.941
 1350WAT     H2 4293   6.455   0.334   5.841
 1351WAT      O 4294   7.250   2.985   2.458
 1351WAT     H1 4295   7.276   3.010   2.365
 1351WAT     H2 4296   7.276   3.058   2.522
 1352WAT      O 4297   5.429   4.430   3.700
 1352WAT     H1 4298   5.489   4.351   3.689
 1352WAT     H2 4299   5.484   4.514   3.706
 1353WAT      O 4300   4.636   0.670   1.415
 1353WAT     H1 4301   4.700   0.747   1.415
 1353WAT     H2 4302   4.559   0.691   1.355
 1354WAT      O 4303   7.434   6.781   6.985
 1354WAT     H1 4304   7.465   6.782   7.080
 1354WAT     H2 4305   7.409   6.688   6.960
 1355WAT      O 4306   1.300   5.339   4.124
 1355WAT     H1 4307   1.334   5.249   4.100
 1355WAT     H2 4308   1.344   5.371   4.208
 1356WAT      O 4309   8.789   9.737   4.778
 1356WAT     H1 4310   8.858   9.674   4.812
 1356WAT     H2 4311   8.730   9.768   4.853
 1357WAT      O 4312   3.114   9.796   4.249
 1357WAT     H1 4313   3.190   9.846   4.209
 1357WAT     H2 4314   3.029   9.819   4.201
 1358WAT      O 4315   0.346   5.142   8.261
 1358WAT     H1 4316   0.431   5.192   8.242
 1358WAT     H2 4317   0.368   5.055   8.304
 1359WAT      O 4318   1.284   8.843   1.805
 1359WAT     H1 4319   1.188   8.816   1.811
 1359WAT     H2 4320   1.328   8.833   1.894
 1360WAT      O 4321   5.762   7.215   7.011
 1360WAT     H1 4322   5.721   7.124   7.002
 1360WAT     H2 4323   5.730   7.274   6.937
 1361WAT      O 4324   1.483   6.539   5.965
 1361WAT     H1 4325   1.460   6.570   6.057
 1361WAT     H2 4326   1.515   6.617   5.911
 1362WAT      O 4327   8.573   5.459   6.011
 1362WAT     H1 4328   8.645   5.440   6.078
 1362WAT     H2 4329   8.524   5.375   5.990
 1363WAT      O 4330   9.721   1.255   2.197
 1363WAT     H1 4331   9.718   1.293   2.104
 1363WAT     H2 4332   9.639   1.201   2.213
 1364WAT      O 4333   2.357   2.627   5.891
 1364WAT     H1 4334   2.436   2.590   5.939
 1364WAT     H2 4335   2.382   2.713   5.847
 1365WAT      O 4336   1.571   7.150   7.749
 1365WAT     H1 4337   1.649   7.188   7.798
 1365WAT     H2 4338   1.567   7.051   7.765
 1366WAT      O 4339   7.045   2.342   5.880
 1366WAT     H1 4340   6.990   2.262   5.853
 1366WAT     H2 4341   7.010   2.423   5.833
 1367WAT      O 4342   7.315   2.523   4.209
 1367WAT     H1 4343   7.414   2.510   4.205
 1367WAT     H2 4344   7.287   2.591   4.141
 1368WAT      O 4345   5.423   6.813   4.831
 1368WAT     H1 4346   5.393   6.717   4.825
 1368WAT     H2 4347   5.364   6.869   4.774
 1369WAT      O 4348   6.404   7.612   1.019
 1369WAT     H1 4349   6.355   7.545   0.964
 1369WAT     H2 4350   6.490   7.573   1.050
 1370WAT      O 4351   0.771   0.107   5.085
 1370WAT     H1 4352   0.762   0.186   5.025
 1370WAT     H2 4353   0.854   0.114   5.139
 1371WAT      O 4354   3.640   4.072   0.954
 1371WAT     H1 4355   3.614   4.162   0.917
 1371WAT     H2 4356   3.649   4.007   0.879
 1372WAT      O 4357   7.841   2.739   9.591
 1372WAT     H1 4358   7.932   2.729   9.551
 1372WAT     H2 4359   7.849   2.768   9.686
 1373WAT      O 4360   6.482   0.134   4.462
 1373WAT     H1 4361   6.497   0.039   4.487
 1373WAT     H2 4362   6.447   0.138   4.368
 1374WAT      O 4363   4.726   7.118   2.218
 1374WAT     H1 4364   4.766   7.039   2.264
 1374WAT     H2 4365   4.668   7.087   2.143
 1375WAT      O 4366   4.023   2.885   4.556
 1375WAT     H1 4367   4.056   2.790   4.558
 1375WAT     H2 4368   3.955   2.894   4.483
 1376WAT      O 4369   7.162   0.147   0.913
 1376WAT     H1 4370   7.232   0.215   0.936
 1376WAT     H2 4371   7.132   0.101   0.996
 1377WAT      O 4372   8.774   0.386   8.126
 1377WAT     H1 4373   8.776   0.287   8.111
 1377WAT     H2 4374   8.753   0.433   8.040
 1378WAT      O 4375   4.918   3.468   3.131
 1378WAT     H1 4376   4.835   3.440   3.085
 1378WAT     H2 4377   4.962   3.541   3.079
 1379WAT      O 4378   1.996   7.002   7.910
 1379WAT     H1 4379   1.942   7.054   7.976
 1379WAT     H2 4380   2.034   7.064   7.842
 1380WAT      O 4381   4.175   4.398   7.875
 1380WAT     H1 4382   4.249   4.381   7.810
 1380WAT     H2 4383   4.185   4.490   7.913
 1381WAT      O 4384   3.394   8.612   7.414
 1381WAT     H1 4385   3.356   8.595   7.323
 1381WAT     H2 4386   3.493   8.597   7.412
 1382WAT      O 4387   1.976   3.202   7.794
 1382WAT     H1 4388   1.928   3.192   7.707
 1382WAT     H2 4389   1.922   3.161   7.867
 1383WAT      O 4390   8.320   2.217   2.111
 1383WAT     H1 4391   8.292   2.286   2.177
 1383WAT     H2 4392   8.402   2.170   2.144
 1384WAT      O 4393   8.349   9.738   7.807
 1384WAT     H1 4394   8.260   9.714   7.847
 1384WAT     H2 4395   8.376   9.829   7.838
 1385WAT      O 4396   5.017   0.391   8.664
 1385WAT     H1 4397   5.086   0.381   8.593
 1385WAT     H2 4398   5.054   0.445   8.740
 1386WAT      O 4399   1.982   9.715   6.100
 1386WAT     H1 4400   1.973   9.616   6.101
 1386WAT     H2 4401   2.056   9.742   6.038
 1387WAT      O 4402   5.559   7.125   5.921
 1387WAT     H1 4403   5.558   7.040   5.868
 1387WAT     H2 4404   5.653   7.160   5.926
 1388WAT      O 4405   5.265   9.094   9.417
 1388WAT     H1 4406   5.280   9.113   9.514
 1388WAT     H2 4407   5.168   9.080   9.400
 1389WAT      O 4408   6.958   1.631   5.919
 1389WAT     H1 4409   6.960   1.617   5.820
 1389WAT     H2 4410   7.026   1.571   5.962
 1390WAT      O 4411   1.090   6.603   5.870
 1390WAT     H1 4412   1.179   6.559   5.855
 1390WAT     H2 4413   1.044   6.614   5.783
 1391WAT      O 4414   9.288   9.838   0.725
 1391WAT     H1 4415   9.190   9.855   0.730
 1391WAT     H2 4416   9.332   9.913   0.674
 1392WAT      O 4417   5.138   2.582   9.279
 1392WAT     H1 4418   5.094   2.641   9.211
 1392WAT     H2 4419   5.206   2.634   9.330
 1393WAT      O 4420   6.287   4.819   0.013
 1393WAT     H1 4421   6.309   4.730  -0.027
 1393WAT     H2 4422   6.188   4.834   0.006
 1394WAT      O 4423   4.920   4.871   0.116
 1394WAT     H1 4424   4.824   4.897   0.128
 1394WAT     H2 4425   4.926   4.776   0.087
 1395WAT      O 4426   5.057   1.793   2.871
 1395WAT     H1 4427   5.055   1.726   2.946
 1395WAT     H2 4428   5.024   1.881   2.904
 1396WAT      O 4429   2.975   6.129   0.778
 1396WAT     H1 4430   3.069   6.159   0.793
 1396WAT     H2 4431   2.975   6.044   0.725
 1397WAT      O 4432   1.775   4.844   5.452
 1397WAT     H1 4433   1.753   4.912   5.383
 1397WAT     H2 4434   1.793   4.889   5.540
 1398WAT      O 4435   8.753   4.884   7.696
 1398WAT     H1 4436   8.663   4.876   7.738
 1398WAT     H2 4437   8.766   4.809   7.631
 1399WAT      O 4438   0.165   5.721   7.145
 1399WAT     H1 4439   0.200   5.777   7.069
 1399WAT     H2 4440   0.100   5.775   7.199
 1400WAT      O 4441   8.347   7.616   6.156
 1400WAT     H1 4442   8.445   7.601   6.145
 1400WAT     H2 4443   8.324   7.708   6.126
 1401WAT      O 4444   0.090   1.189   0.495
 1401WAT     H1 4445   0.146   1.107   0.489
 1401WAT     H2 4446   0.149   1.268   0.516
 1402WAT      O 4447   8.539   4.751   5.661
 1402WAT     H1 4448   8.589   4.736   5.747
 1402WAT     H2 4449   8.454   4.699   5.663
 1403WAT      O 4450   5.669   1.261   0.630
 1403WAT     H1 4451   5.738   1.199   0.593
 1403WAT     H2 4452   5.661   1.247   0.728
 1404WAT      O 4453   1.657   8.524   7.191
 1404WAT     H1 4454   1.654   8.608   7.138
 1404WAT     H2 4455   1.622   8.448   7.136
 1405WAT      O 4456   6.937   0.396   7.043
 1405WAT     H1 4457   6.977   0.438   6.961
 1405WAT     H2 4458   6.852   0.443   7.067
 1406WAT      O 4459   6.473   8.484   3.959
 1406WAT     H1 4460   6.405   8.553   3.982
 1406WAT     H2 4461   6.432   8.413   3.902
 1407WAT      O 4462   6.319   6.217   0.493
 1407WAT     H1 4463   6.407   6.265   0.499
 1407WAT     H2 4464   6.293   6.184   0.584
 1408WAT      O 4465   1.076   1.269   4.040
 1408WAT     H1 4466   1.146   1.279   4.111
 1408WAT     H2 4467   1.093   1.335   3.967
 1409WAT      O 4468   1.257   7.639   1.785
 1409WAT     H1 4469   1.319   7.585   1.842
 1409WAT     H2 4470   1.195   7.691   1.845
 1410WAT      O 4471   3.348   0.817   7.797
 1410WAT     H1 4472   3.306   0.906   7.817
 1410WAT     H2 4473   3.447   0.824   7.810
 1411WAT      O 4474   3.183   0.981   0.527
 1411WAT     H1 4475   3.104   0.922   0.514
 1411WAT     H2 4476   3.238   0.948   0.604
 1412WAT      O 4477   5.838   5.817   3.662
 1412WAT     H1 4478   5.739   5.799   3.662
 1412WAT     H2 4479   5.873   5.808   3.755
 1413WAT      O 4480   8.062   3.597   0.297
 1413WAT     H1 4481   8.123   3.558   0.366
 1413WAT     H2 4482   8.097   3.687   0.269
 1414WAT      O 4483   2.137   3.576   8.465
 1414WAT     H1 4484   2.154   3.479   8.485
 1414WAT     H2 4485   2.041   3.589   8.442
 1415WAT      O 4486   5.326   5.967   8.790
 1415WAT     H1 4487   5.343   5.969   8.888
 1415WAT     H2 4488   5.294   6.057   8.760
 1416WAT      O 4489   6.406   2.948   9.092
 1416WAT     H1 4490   6.362   3.023   9.141
 1416WAT     H2 4491   6.477   2.984   9.031
 1417WAT      O 4492   7.796   1.035   2.431
 1417WAT     H1 4493   7.845   1.085   2.359
 1417WAT     H2 4494   7.700   1.025   2.406
 1418WAT      O 4495   0.532   2.058   3.333
 1418WAT     H1 4496   0.569   2.116   3.260
 1418WAT     H2 4497   0.448   2.100   3.368
 1419WAT      O 4498   6.459   3.530   8.716
 1419WAT     H1 4499   6.551   3.568   8.708
 1419WAT     H2 4500   6.394   3.591   8.671
 1420WAT      O 4501   3.143   3.124   7.217
 1420WAT     H1 4502   3.089   3.089   7.294
 1420WAT     H2 4503   3.218   3.062   7.197
 1421WAT      O 4504   9.107   5.273   8.370
 1421WAT     H1 4505   9.043   5.254   8.295
 1421WAT     H2 4506   9.082   5.359   8.414
 1422WAT      O 4507   2.753   8.910   8.006
 1422WAT     H1 4508   2.761   8.938   7.910
 1422WAT     H2 4509   2.731   8.990   8.062
 1423WAT      O 4510   7.224   7.901   2.056
 1423WAT     H1 4511   7.199   7.891   2.152
 1423WAT     H2 4512   7.319   7.874   2.044
 1424WAT      O 4513   8.994   1.407   8.928
 1424WAT     H1 4514   8.992   1.334   8.996
 1424WAT     H2 4515   9.004   1.367   8.837
 1425WAT      O 4516   5.263   4.077   5.461
 1425WAT     H1 4517   5.333   4.032   5.406
 1425WAT     H2 4518   5.250   4.028   5.547
 1426WAT      O 4519   6.874   1.497   4.442
 1426WAT     H1 4520   6.919   1.533   4.523
 1426WAT     H2 4521   6.801   1.559   4.414
 1427WAT      O 4522   8.827   0.136   0.874
 1427WAT     H1 4523   8.785   0.223   0.899
 1427WAT     H2 4524   8.755   0.067   0.861
 1428WAT      O 4525   7.708   0.931   1.261
 1428WAT     H1 4526   7.792   0.940   1.207
 1428WAT     H2 4527   7.680   1.020   1.295
 1429WAT      O 4528   4.366   7.728   9.253
 1429WAT     H1 4529   4.267   7.716   9.245
 1429WAT     H2 4530   4.410   7.638   9.261
 1430WAT      O 4531   3.020   2.660   0.390
 1430WAT     H1 4532   2.943   2.607   0.355
 1430WAT     H2 4533   3.039   2.736   0.328
 1431WAT      O 4534   0.644   5.319   0.874
 1431WAT     H1 4535   0.581   5.265   0.930
 1431WAT     H2 4536   0.591   5.371   0.806
 1432WAT      O 4537   0.406   8.658   1.036
 1432WAT     H1 4538   0.320   8.610   1.019
 1432WAT     H2 4539   0.437   8.638   1.129
 1433WAT      O 4540   8.279   2.653   0.693
 1433WAT     H1 4541   8.337   2.601   0.755
 1433WAT     H2 4542   8.253   2.739   0.736
 1434WAT      O 4543   0.607   8.761   4.423
 1434WAT     H1 4544   0.610   8.666   4.453
 1434WAT     H2 4545   0.515   8.797   4.436
 1435WAT      O 4546   9.308   1.364   9.129
 1435WAT     H1 4547   9.324   1.392   9.035
 1435WAT     H2 4548   9.396   1.358   9.178
 1436WAT      O 4549   3.564   9.733   1.956
 1436WAT     H1 4550   3.598   9.680   2.033
 1436WAT     H2 4551   3.621   9.814   1.943
 1437WAT      O 4552   6.905   8.790   8.206
 1437WAT     H1 4553   6.894   8.717   8.138
 1437WAT     H2 4554   6.974   8.855   8.174
 1438WAT      O 4555   1.016   8.825   1.564
 1438WAT     H1 4556   1.023   8.868   1.654
 1438WAT     H2 4557   1.013   8.725   1.575
 1439WAT      O 4558   2.814   3.733   2.152
 1439WAT     H1 4559   2.779   3.640   2.143
 1439WAT     H2 4560   2.769   3.778   2.229
 1440WAT      O 4561   5.395   1.850   5.358
 1440WAT     H1 4562   5.456   1.894   5.424
 1440WAT     H2 4563   5.301   1.861   5.388
 1441WAT      O 4564   7.326   7.090   4.073
 1441WAT     H1 4565   7.374   7.002   4.070
 1441WAT     H2 4566   7.229   7.074   4.088
 1442WAT      O 4567   7.614   6.703   0.061
 1442WAT     H1 4568   7.684   6.758   0.108
 1442WAT     H2 4569   7.600   6.740  -0.031
 1443WAT      O 4570   2.233   8.395   8.951
 1443WAT     H1 4571   2.316   8.379   8.898
 1443WAT     H2 4572   2.215   8.494   8.955
 1444WAT      O 4573   0.700   6.377   0.949
 1444WAT     H1 4574   0.697   6.305   0.879
 1444WAT     H2 4575   0.740   6.340   1.033
 1445WAT      O 4576   4.338   1.870   5.388
 1445WAT     H1 4577   4.356   1.808   5.312
 1445WAT     H2 4578   4.424   1.909   5.421
 1446WAT      O 4579   9.314   2.547   7.012
 1446WAT     H1 4580   9.320   2.632   7.065
 1446WAT     H2 4581   9.372   2.555   6.930
 1447WAT      O 4582   4.819   2.870   9.127
 1447WAT     H1 4583   4.761   2.873   9.045
 1447WAT     H2 4584   4.780   2.806   9.193
 1448WAT      O 4585   5.202   3.740   3.800
 1448WAT     H1 4586   5.187   3.764   3.704
 1448WAT     H2 4587   5.122   3.765   3.854
 1449WAT      O 4588   0.912   0.186   4.515
 1449WAT     H1 4589   0.953   0.146   4.597
 1449WAT     H2 4590   0.849   0.259   4.542
 1450WAT      O 4591   9.823   6.591   9.041
 1450WAT     H1 4592   9.874   6.524   9.095
 1450WAT     H2 4593   9.771   6.650   9.102
 1451WAT      O 4594   1.841   6.593   3.093
 1451WAT     H1 4595   1.880   6.657   3.159
 1451WAT     H2 4596   1.840   6.636   3.003
 1452WAT      O 4597   8.375   7.926   6.867
 1452WAT     H1 4598   8.317   7.962   6.940
 1452WAT     H2 4599   8.411   7.836   6.893
 1453WAT      O 4600   2.969   4.835   0.981
 1453WAT     H1 4601   2.882   4.882   0.998
 1453WAT     H2 4602   2.953   4.737   0.972
 1454WAT      O 4603   9.552   1.015   7.183
 1454WAT     H1 4604   9.570   1.050   7.091
 1454WAT     H2 4605   9.462   0.973   7.186
 1455WAT      O 4606   2.548   1.667   3.024
 1455WAT     H1 4607   2.602   1.583   3.030
 1455WAT     H2 4608   2.547   1.712   3.114
 1456WAT      O 4609   8.935   1.054   5.338
 1456WAT     H1 4610   8.876   0.978   5.366
 1456WAT     H2 4611   9.010   1.019   5.283
 1457WAT      O 4612   1.500   7.051   6.859
 1457WAT     H1 4613   1.533   6.979   6.799
 1457WAT     H2 4614   1.578   7.099   6.899
 1458WAT      O 4615   5.260   7.584   6.889
 1458WAT     H1 4616   5.234   7.589   6.793
 1458WAT     H2 4617   5.329   7.513   6.902
 1459WAT      O 4618   3.988   6.591   1.798
 1459WAT     H1 4619   4.071   6.599   1.743
 1459WAT     H2 4620   3.939   6.508   1.772
 1460WAT      O 4621   6.317   0.846   4.362
 1460WAT     H1 4622   6.258   0.880   4.436
 1460WAT     H2 4623   6.318   0.912   4.287
 1461WAT      O 4624   3.598   8.001   7.660
 1461WAT     H1 4625   3.677   7.946   7.634
 1461WAT     H2 4626   3.629   8.082   7.711
 1462WAT      O 4627   6.983   2.248   4.819
 1462WAT     H1 4628   7.067   2.195   4.830
 1462WAT     H2 4629   6.957   2.249   4.722
 1463WAT      O 4630   0.391   1.502   2.203
 1463WAT     H1 4631   0.338   1.454   2.272
 1463WAT     H2 4632   0.488   1.476   2.210
 1464WAT      O 4633   6.471   0.090   8.073
 1464WAT     H1 4634   6.510   0.025   8.008
 1464WAT     H2 4635   6.371   0.082   8.072
 1465WAT      O 4636   1.256   4.616   4.345
 1465WAT     H1 4637   1.234   4.713   4.333
 1465WAT     H2 4638   1.216   4.563   4.270
 1466WAT      O 4639   0.299   7.046   1.457
 1466WAT     H1 4640   0.250   7.133   1.455
 1466WAT     H2 4641   0.245   6.979   1.508
 1467WAT      O 4642   1.929   1.912   1.904
 1467WAT     H1 4643   1.884   1.855   1.835
 1467WAT     H2 4644   1.970   1.853   1.974
 1468WAT      O 4645   3.499   0.614   8.537
 1468WAT     H1 4646   3.574   0.681   8.529
 1468WAT     H2 4647   3.536   0.527   8.568
 1469WAT      O 4648   0.254   0.440   0.759
 1469WAT     H1 4649   0.346   0.419   0.727
 1469WAT     H2 4650   0.205   0.490   0.688
 1470WAT      O 4651   2.412   8.811   8.628
 1470WAT     H1 4652   2.428   8.750   8.706
 1470WAT     H2 4653   2.371   8.759   8.553
 1471WAT      O 4654   0.760   4.990   9.251
 1471WAT     H1 4655   0.826   4.922   9.218
 1471WAT     H2 4656   0.793   5.082   9.231
 1472WAT      O 4657   9.586   6.512   0.258
 1472WAT     H1 4658   9.564   6.536   0.353
 1472WAT     H2 4659   9.678   6.475   0.254
 1473WAT      O 4660   1.486   0.727   5.237
 1473WAT     H1 4661   1.479   0.658   5.165
 1473WAT     H2 4662   1.394   0.760   5.260
 1474WAT      O 4663   9.455   6.814   4.580
 1474WAT     H1 4664   9.395   6.886   4.547
 1474WAT     H2 4665   9.402   6.733   4.604
 1475WAT      O 4666   4.597   8.272   2.532
 1475WAT     H1 4667   4.614   8.175   2.513
 1475WAT     H2 4668   4.634   8.327   2.457
 1476WAT      O 4669   8.742   9.349   3.657
 1476WAT     H1 4670   8.692   9.264   3.673
 1476WAT     H2 4671   8.688   9.427   3.690
 1477WAT      O 4672   1.632   3.322   1.830
 1477WAT     H1 4673   1.657   3.298   1.924
 1477WAT     H2 4674   1.610   3.419   1.825
 1478WAT      O 4675   0.684   8.539   8.952
 1478WAT     H1 4676   0.706   8.519   8.857
 1478WAT     H2 4677   0.762   8.514   9.010
 1479WAT      O 4678   5.998   4.582   4.161
 1479WAT     H1 4679   5.988   4.633   4.076
 1479WAT     H2 4680   5.995   4.484   4.141
 1480WAT      O 4681   0.610   3.228   6.634
 1480WAT     H1 4682   0.611   3.184   6.724
 1480WAT     H2 4683   0.526   3.202   6.586
 1481WAT      O 4684   0.155   6.800   0.557
 1481WAT     H1 4685   0.245   6.783   0.595
 1481WAT     H2 4686   0.087   6.805   0.631
 1482WAT      O 4687   8.157   7.034   5.393
 1482WAT     H1 4688   8.224   7.057   5.463
 1482WAT     H2 4689   8.088   7.106   5.388
 1483WAT      O 4690   1.421   6.841   4.521
 1483WAT     H1 4691   1.510   6.795   4.519
 1483WAT     H2 4692   1.361   6.796   4.587
 1484WAT      O 4693   0.909   2.221   6.440
 1484WAT     H1 4694   0.961   2.169   6.371
 1484WAT     H2 4695   0.825   2.172   6.462
 1485WAT      O 4696   1.499   5.704   5.812
 1485WAT     H1 4697   1.581   5.760   5.825
 1485WAT     H2 4698   1.513   5.643   5.735
 1486WAT      O 4699   3.137   8.387   5.441
 1486WAT     H1 4700   3.154   8.292   5.416
 1486WAT     H2 4701   3.222   8.427   5.477
 1487WAT      O 4702   9.281   7.319   1.834
 1487WAT     H1 4703   9.295   7.268   1.749
 1487WAT     H2 4704   9.184   7.337   1.847
 1488WAT      O 4705   0.832   1.541   0.103
 1488WAT     H1 4706   0.928   1.531   0.127
 1488WAT     H2 4707   0.779   1.562   0.186
 1489WAT      O 4708   6.637   8.990   5.446
 1489WAT     H1 4709   6.607   8.907   5.493
 1489WAT     H2 4710   6.727   8.976   5.406
 1490WAT      O 4711   2.643   3.586   8.090
 1490WAT     H1 4712   2.700   3.609   8.169
 1490WAT     H2 4713   2.555   3.633   8.099
 1491WAT      O 4714   6.712   1.231   6.101
 1491WAT     H1 4715   6.667   1.192   6.181
 1491WAT     H2 4716   6.675   1.322   6.082
 1492WAT      O 4717   9.118   3.600   2.878
 1492WAT     H1 4718   9.177   3.534   2.926
 1492WAT     H2 4719   9.027   3.597   2.918
 1493WAT      O 4720   6.883   5.125   0.159
 1493WAT     H1 4721   6.893   5.218   0.125
 1493WAT     H2 4722   6.793   5.114   0.201
 1494WAT      O 4723   5.458   7.879   0.481
 1494WAT     H1 4724   5.472   7.931   0.566
 1494WAT     H2 4725   5.498   7.929   0.405
 1495WAT      O 4726   4.808   4.561   6.921
 1495WAT     H1 4727   4.787   4.655   6.894
 1495WAT     H2 4728   4.794   4.500   6.842
 1496WAT      O 4729   4.601   1.287   8.040
 1496WAT     H1 4730   4.511   1.316   8.072
 1496WAT     H2 4731   4.638   1.357   7.978
 1497WAT      O 4732   4.111   7.321   3.564
 1497WAT     H1 4733   4.160   7.261   3.627
 1497WAT     H2 4734   4.176   7.377   3.513
 1498WAT      O 4735   3.092   7.446   7.481
 1498WAT     H1 4736   3.003   7.458   7.439
 1498WAT     H2 4737   3.131   7.358   7.454
 1499WAT      O 4738   6.956   1.120   0.367
 1499WAT     H1 4739   6.948   1.138   0.269
 1499WAT     H2 4740   6.911   1.193   0.419
 1500WAT      O 4741   1.417   1.308   8.199
 1500WAT     H1 4742   1.349   1.263   8.257
 1500WAT     H2 4743   1.394   1.406   8.192
 1501WAT      O 4744   8.381   0.091   0.818
 1501WAT     H1 4745   8.459   0.033   0.794
 1501WAT     H2 4746   8.329   0.112   0.735
 1502WAT      O 4747   8.888   1.014   2.310
 1502WAT     H1 4748   8.944   1.083   2.266
 1502WAT     H2 4749   8.938   0.975   2.388
 1503WAT      O 4750   7.160   6.608   1.998
 1503WAT     H1 4751   7.131   6.518   2.031
 1503WAT     H2 4752   7.108   6.632   1.916
 1504WAT      O 4753   3.711   6.801   8.755
 1504WAT     H1 4754   3.671   6.726   8.808
 1504WAT     H2 4755   3.716   6.883   8.812
 1505WAT      O 4756   3.025   5.603   4.109
 1505WAT     H1 4757   2.944   5.620   4.053
 1505WAT     H2 4758   3.031   5.506   4.133
 1506WAT      O 4759   3.998   5.817   2.484
 1506WAT     H1 4760   4.021   5.908   2.449
 1506WAT     H2 4761   4.040   5.804   2.574
 1507WAT      O 4762   1.450   2.309   8.140
 1507WAT     H1 4763   1.501   2.276   8.219
 1507WAT     H2 4764   1.379   2.372   8.170
 1508WAT      O 4765   9.110   9.149   2.789
 1508WAT     H1 4766   9.170   9.078   2.828
 1508WAT     H2 4767   9.069   9.115   2.704
 1509WAT      O 4768   6.480   3.029   5.687
 1509WAT     H1 4769   6.492   2.933   5.664
 1509WAT     H2 4770   6.502   3.043   5.784
 1510WAT      O 4771   9.858   9.144   2.490
 1510WAT     H1 4772   9.871   9.133   2.391
 1510WAT     H2 4773   9.847   9.241   2.511
 1511WAT      O 4774   3.284   2.205   8.794
 1511WAT     H1 4775   3.359   2.270   8.781
 1511WAT     H2 4776   3.237   2.191   8.707
 1512WAT      O 4777   9.766   3.917   9.044
 1512WAT     H1 4778   9.820   3.834   9.050
 1512WAT     H2 4779   9.732   3.942   9.134
 1513WAT      O 4780   2.126   0.559   3.050
 1513WAT     H1 4781   2.048   0.537   3.110
 1513WAT     H2 4782   2.095   0.563   2.955
 1514WAT      O 4783   6.605   5.420   9.832
 1514WAT     H1 4784   6.566   5.422   9.740
 1514WAT     H2 4785   6.700   5.450   9.828
 1515WAT      O 4786   9.530   5.565   5.724
 1515WAT     H1 4787   9.559   5.477   5.759
 1515WAT     H2 4788   9.582   5.638   5.768
 1516WAT      O 4789   5.484   1.505   2.895
 1516WAT     H1 4790   5.572   1.549   2.879
 1516WAT     H2 4791   5.423   1.524   2.818
 1517WAT      O 4792   6.756   7.046   3.125
 1517WAT     H1 4793   6.693   7.104   3.177
 1517WAT     H2 4794   6.733   6.950   3.139
 1518WAT      O 4795   7.043   5.856   2.005
 1518WAT     H1 4796   6.955   5.825   1.968
 1518WAT     H2 4797   7.089   5.914   1.938
 1519WAT      O 4798   1.724   7.014   6.455
 1519WAT     H1 4799   1.651   7.015   6.523
 1519WAT     H2 4800   1.727   7.103   6.409
 1520WAT      O 4801   4.171   6.542   9.837
 1520WAT     H1 4802   4.093   6.544   9.774
 1520WAT     H2 4803   4.186   6.634   9.874
 1521WAT      O 4804   4.528   6.450   6.163
 1521WAT     H1 4805   4.548   6.469   6.259
 1521WAT     H2 4806   4.522   6.537   6.113
 1522WAT      O 4807   2.626   4.796   6.236
 1522WAT     H1 4808   2.642   4.857   6.159
 1522WAT     H2 4809   2.556   4.835   6.296
 1523WAT      O 4810   7.692   4.750   3.404
 1523WAT     H1 4811   7.699   4.840   3.447
 1523WAT     H2 4812   7.669   4.761   3.307
 1524WAT      O 4813   6.895   8.670   6.001
 1524WAT     H1 4814   6.797   8.652   5.995
 1524WAT     H2 4815   6.912   8.739   6.071
 1525WAT      O 4816   4.738   8.279   9.531
 1525WAT     H1 4817   4.667   8.278   9.601
 1525WAT     H2 4818   4.810   8.343   9.557
 1526WAT      O 4819   0.134   8.738   7.812
 1526WAT     H1 4820   0.225   8.709   7.781
 1526WAT     H2 4821   0.078   8.657   7.829
 1527WAT      O 4822   1.545   7.205   2.754
 1527WAT     H1 4823   1.580   7.132   2.812
 1527WAT     H2 4824   1.490   7.268   2.809
 1528WAT      O 4825   0.741   6.873   8.125
 1528WAT     H1 4826   0.815   6.906   8.066
 1528WAT     H2 4827   0.780   6.822   8.202
 1529WAT      O 4828   4.694   3.267   2.678
 1529WAT     H1 4829   4.656   3.359   2.689
 1529WAT     H2 4830   4.747   3.242   2.758
 1530WAT      O 4831   9.129   6.749   6.547
 1530WAT     H1 4832   9.219   6.792   6.551
 1530WAT     H2 4833   9.065   6.810   6.499
 1531WAT      O 4834   3.413   6.876   2.862
 1531WAT     H1 4835   3.422   6.788   2.908
 1531WAT     H2 4836   3.503   6.913   2.840
 1532WAT      O 4837   0.199   3.082   5.585
 1532WAT     H1 4838   0.291   3.066   5.549
 1532WAT     H2 4839   0.138   3.008   5.555
 1533WAT      O 4840   3.423   5.038   5.042
 1533WAT     H1 4841   3.347   5.102   5.049
 1533WAT     H2 4842   3.510   5.086   5.057
 1534WAT      O 4843   1.775   2.684   1.228
 1534WAT     H1 4844   1.717   2.613   1.268
 1534WAT     H2 4845   1.751   2.696   1.132
 1535WAT      O 4846   7.165   1.975   0.133
 1535WAT     H1 4847   7.107   1.927   0.199
 1535WAT     H2 4848   7.238   2.024   0.182
 1536WAT      O 4849   8.269   8.716   7.750
 1536WAT     H1 4850   8.238   8.654   7.822
 1536WAT     H2 4851   8.225   8.693   7.664
 1537WAT      O 4852   2.291   5.243   0.118
 1537WAT     H1 4853   2.338   5.248   0.030
 1537WAT     H2 4854   2.218   5.174   0.112
 1538WAT      O 4855   0.118   2.187   2.436
 1538WAT     H1 4856   0.108   2.276   2.394
 1538WAT     H2 4857   0.130   2.198   2.535
 1539WAT      O 4858   3.011   5.237   4.715
 1539WAT     H1 4859   3.109   5.250   4.700
 1539WAT     H2 4860   2.966   5.326   4.721
 1540WAT      O 4861   3.412   4.529   8.852
 1540WAT     H1 4862   3.449   4.618   8.827
 1540WAT     H2 4863   3.468   4.456   8.813
 1541WAT      O 4864   2.945   2.635   2.369
 1541WAT     H1 4865   2.949   2.587   2.282
 1541WAT     H2 4866   2.925   2.570   2.442
 1542WAT      O 4867   6.879   9.376   9.601
 1542WAT     H1 4868   6.840   9.437   9.671
 1542WAT     H2 4869   6.880   9.423   9.513
 1543WAT      O 4870   3.878   1.173   1.427
 1543WAT     H1 4871   3.884   1.189   1.329
 1543WAT     H2 4872   3.939   1.237   1.475
 1544WAT      O 4873   1.195   0.453   7.398
 1544WAT     H1 4874   1.149   0.473   7.312
 1544WAT     H2 4875   1.179   0.528   7.463
 1545WAT      O 4876   4.073   7.024   1.307
 1545WAT     H1 4877   4.146   7.034   1.374
 1545WAT     H2 4878   3.985   7.044   1.351
 1546WAT      O 4879   6.796   0.965   0.745
 1546WAT     H1 4880   6.763   1.025   0.818
 1546WAT     H2 4881   6.767   1.001   0.656
 1547WAT      O 4882   6.152   2.209   6.475
 1547WAT     H1 4883   6.157   2.288   6.536
 1547WAT     H2 4884   6.219   2.141   6.505
 1548WAT      O 4885   8.489   7.505   3.751
 1548WAT     H1 4886   8.463   7.493   3.656
 1548WAT     H2 4887   8.583   7.474   3.764
 1549WAT      O 4888   3.136   3.096   0.593
 1549WAT     H1 4889   3.043   3.117   0.566
 1549WAT     H2 4890   3.196   3.173   0.571
 1550WAT      O 4891   4.152   4.358   9.185
 1550WAT     H1 4892   4.131   4.260   9.180
 1550WAT     H2 4893   4.212   4.383   9.109
 1551WAT      O 4894   8.396   1.531   8.877
 1551WAT     H1 4895   8.424   1.486   8.962
 1551WAT     H2 4896   8.314   1.586   8.894
 1552WAT      O 4897   8.330   0.664   3.740
 1552WAT     H1 4898   8.255   0.708   3.691
 1552WAT     H2 4899   8.386   0.613   3.676
 1553WAT      O 4900   8.090   4.639   3.046
 1553WAT     H1 4901   8.180   4.674   3.020
 1553WAT     H2 4902   8.092   4.612   3.142
 1554WAT      O 4903   2.977   7.785   8.385
 1554WAT     H1 4904   3.007   7.802   8.291
 1554WAT     H2 4905   3.043   7.825   8.449
 1555WAT      O 4906   1.346   1.511   0.246
 1555WAT     H1 4907   1.352   1.608   0.269
 1555WAT     H2 4908   1.436   1.469   0.254
 1556WAT      O 4909   8.941   9.196   6.025
 1556WAT     H1 4910   9.018   9.258   6.043
 1556WAT     H2 4911   8.966   9.103   6.053
 1557WAT      O 4912   6.857   8.072   9.586
 1557WAT     H1 4913   6.948   8.053   9.623
 1557WAT     H2 4914   6.862   8.149   9.523
 1558WAT      O 4915   9.597   0.045   2.601
 1558WAT     H1 4916   9.586  -0.032   2.537
 1558WAT     H2 4917   9.691   0.050   2.632
 1559WAT      O 4918   4.302   6.612   2.080
 1559WAT     H1 4919   4.334   6.560   2.159
 1559WAT     H2 4920   4.277   6.705   2.110
 1560WAT      O 4921   8.429   8.385   6.481
 1560WAT     H1 4922   8.330   8.374   6.467
 1560WAT     H2 4923   8.457   8.333   6.561
 1561WAT      O 4924   8.208   1.346   3.461
 1561WAT     H1 4925   8.303   1.321   3.444
 1561WAT     H2 4926   8.161   1.361   3.374
 1562WAT      O 4927   7.159   0.900   8.179
 1562WAT     H1 4928   7.160   0.997   8.199
 1562WAT     H2 4929   7.077   0.877   8.126
 1563WAT      O 4930   9.838   8.965   1.671
 1563WAT     H1 4931   9.872   8.881   1.714
 1563WAT     H2 4932   9.833   8.951   1.572
 1564WAT      O 4933   6.729   2.421   4.956
 1564WAT     H1 4934   6.711   2.327   4.928
 1564WAT     H2 4935   6.822   2.428   4.992
 1565WAT      O 4936   6.388   0.150   4.213
 1565WAT     H1 4937   6.403   0.198   4.127
 1565WAT     H2 4938   6.291   0.127   4.222
 1566WAT      O 4939   7.069   5.970   5.292
 1566WAT     H1 4940   7.074   5.883   5.342
 1566WAT     H2 4941   6.973   5.988   5.269
 1567WAT      O 4942   7.429   0.857   6.180
 1567WAT     H1 4943   7.394   0.925   6.244
 1567WAT     H2 4944   7.523   0.834   6.204
 1568WAT      O 4945   0.905   1.902   6.577
 1568WAT     H1 4946   0.866   1.993   6.568
 1568WAT     H2 4947   0.911   1.859   6.487
 1569WAT      O 4948   7.685   1.084   4.893
 1569WAT     H1 4949   7.667   1.003   4.948
 1569WAT     H2 4950   7.676   1.166   4.950
 1570WAT      O 4951   7.144   2.418   7.016
 1570WAT     H1 4952   7.155   2.477   7.096
 1570WAT     H2 4953   7.217   2.437   6.950
 1571WAT      O 4954   9.611   8.155   4.052
 1571WAT     H1 4955   9.552   8.204   3.987
 1571WAT     H2 4956   9.621   8.210   4.134
 1572WAT      O 4957   3.635   5.709   2.217
 1572WAT     H1 4958   3.591   5.620   2.227
 1572WAT     H2 4959   3.592   5.758   2.141
 1573WAT      O 4960   6.969   5.213   6.041
 1573WAT     H1 4961   6.916   5.237   5.959
 1573WAT     H2 4962   6.906   5.198   6.117
 1574WAT      O 4963   4.538   9.327   6.283
 1574WAT     H1 4964   4.510   9.304   6.189
 1574WAT     H2 4965   4.612   9.267   6.312
 1575WAT      O 4966   7.320   3.037   6.343
 1575WAT     H1 4967   7.222   3.053   6.335
 1575WAT     H2 4968   7.370   3.111   6.298
 1576WAT      O 4969   6.979   5.427   2.623
 1576WAT     H1 4970   6.920   5.415   2.543
 1576WAT     H2 4971   7.048   5.355   2.623
 1577WAT      O 4972   5.687   3.644   7.753
 1577WAT     H1 4973   5.673   3.676   7.659
 1577WAT     H2 4974   5.623   3.569   7.773
 1578WAT      O 4975   5.657   0.035   1.775
 1578WAT     H1 4976   5.731   0.006   1.835
 1578WAT     H2 4977   5.695   0.088   1.698
 1579WAT      O 4978   1.981   2.574   7.291
 1579WAT     H1 4979   2.069   2.615   7.267
 1579WAT     H2 4980   1.909   2.643   7.285
 1580WAT      O 4981   4.417   8.330   1.254
 1580WAT     H1 4982   4.396   8.263   1.182
 1580WAT     H2 4983   4.379   8.298   1.341
 1581WAT      O 4984   3.890   0.657   0.728
 1581WAT     H1 4985   3.957   0.605   0.676
 1581WAT     H2 4986   3.888   0.752   0.696
 1582WAT      O 4987   3.592   5.690   4.716
 1582WAT     H1 4988   3.515   5.733   4.763
 1582WAT     H2 4989   3.604   5.597   4.750
 1583WAT      O 4990   3.162   0.844   6.654
 1583WAT     H1 4991   3.112   0.762   6.681
 1583WAT     H2 4992   3.111   0.891   6.582
 1584WAT      O 4993   5.006   7.716   7.917
 1584WAT     H1 4994   5.032   7.807   7.883
 1584WAT     H2 4995   5.037   7.647   7.851
 1585WAT      O 4996   9.657   0.171   9.329
 1585WAT     H1 4997   9.749   0.152   9.292
 1585WAT     H2 4998   9.665   0.228   9.411
 1586WAT      O 4999   9.817   1.625   3.542
 1586WAT     H1 5000   9.786   1.720   3.545
 1586WAT     H2 5001   9.876   1.612   3.461
 1587WAT      O 5002   6.969   3.564   5.729
 1587WAT     H1 5003   6.955   3.512   5.813
 1587WAT     H2 5004   7.066   3.569   5.709
 1588WAT      O 5005   7.207   4.544   6.067
 1588WAT     H1 5006   7.202   4.536   6.166
 1588WAT     H2 5007   7.301   4.562   6.039
 1589WAT      O 5008   8.170   2.903   5.030
 1589WAT     H1 5009   8.072   2.915   5.014
 1589WAT     H2 5010   8.186   2.813   5.070
 1590WAT      O 5011   6.446   2.939   8.032
 1590WAT     H1 5012   6.370   2.947   7.967
 1590WAT     H2 5013   6.462   2.843   8.053
 1591WAT      O 5014   1.654   9.049   8.432
 1591WAT     H1 5015   1.595   9.113   8.481
 1591WAT     H2 5016   1.597   8.989   8.376
 1592WAT      O 5017   1.427   7.189   1.722
 1592WAT     H1 5018   1.410   7.248   1.802
 1592WAT     H2 5019   1.385   7.100   1.737
 1593WAT      O 5020   0.197   2.514   8.486
 1593WAT     H1 5021   0.269   2.515   8.554
 1593WAT     H2 5022   0.123   2.453   8.515
 1594WAT      O 5023   3.740   1.548   4.683
 1594WAT     H1 5024   3.705   1.503   4.766
 1594WAT     H2 5025   3.665   1.562   4.619
 1595WAT      O 5026   0.333   1.238   3.416
 1595WAT     H1 5027   0.387   1.164   3.457
 1595WAT     H2 5028   0.253   1.256   3.473
 1596WAT      O 5029   8.587   9.416   5.086
 1596WAT     H1 5030   8.620   9.333   5.131
 1596WAT     H2 5031   8.548   9.478   5.154
 1597WAT      O 5032   7.677   4.850   2.589
 1597WAT     H1 5033   7.694   4.895   2.502
 1597WAT     H2 5034   7.582   4.864   2.617
 1598WAT      O 5035   1.398   5.707   1.731
 1598WAT     H1 5036   1.405   5.746   1.823
 1598WAT     H2 5037   1.353   5.617   1.736
 1599WAT      O 5038   3.537   5.840   7.333
 1599WAT     H1 5039   3.507   5.855   7.427
 1599WAT     H2 5040   3.634   5.863   7.325
 1600WAT      O 5041   6.653   1.856   5.761
 1600WAT     H1 5042   6.674   1.810   5.847
 1600WAT     H2 5043   6.569   1.909   5.771
 1601WAT      O 5044   0.721   5.728   7.352
 1601WAT     H1 5045   0.622   5.733   7.366
 1601WAT     H2 5046   0.748   5.797   7.285
 1602WAT      O 5047   2.315   7.832   7.993
 1602WAT     H1 5048   2.412   7.818   8.011
 1602WAT     H2 5049   2.290   7.926   8.017
 1603WAT      O 5050   3.387   5.180   7.537
 1603WAT     H1 5051   3.339   5.096   7.561
 1603WAT     H2 5052   3.407   5.180   7.439
 1604WAT      O 5053   1.213   3.457   9.626
 1604WAT     H1 5054   1.178   3.545   9.659
 1604WAT     H2 5055   1.259   3.472   9.538
 1605WAT      O 5056   3.180   2.789   3.907
 1605WAT     H1 5057   3.088   2.819   3.881
 1605WAT     H2 5058   3.248   2.852   3.869
 1606WAT      O 5059   7.767   5.983   7.312
 1606WAT     H1 5060   7.778   5.962   7.409
 1606WAT     H2 5061   7.680   5.945   7.279
 1607WAT      O 5062   5.072   5.872   6.931
 1607WAT     H1 5063   4.983   5.874   6.885
 1607WAT     H2 5064   5.143   5.851   6.864
 1608WAT      O 5065   4.120   6.238   5.096
 1608WAT     H1 5066   4.186   6.176   5.053
 1608WAT     H2 5067   4.069   6.189   5.166
 1609WAT      O 5068   5.580   6.122   4.607
 1609WAT     H1 5069   5.586   6.024   4.588
 1609WAT     H2 5070   5.503   6.140   4.668
 1610WAT      O 5071   3.417   6.961   1.716
 1610WAT     H1 5072   3.350   6.888   1.728
 1610WAT     H2 5073   3.477   6.938   1.638
 1611WAT      O 5074   9.303   9.000   2.028
 1611WAT     H1 5075   9.352   8.928   1.979
 1611WAT     H2 5076   9.205   8.987   2.017
 1612WAT      O 5077   2.907   8.686   7.806
 1612WAT     H1 5078   2.910   8.681   7.906
 1612WAT     H2 5079   2.869   8.774   7.778
 1613WAT      O 5080   6.674   1.690   5.366
 1613WAT     H1 5081   6.601   1.669   5.431
 1613WAT     H2 5082   6.636   1.743   5.289
 1614WAT      O 5083   9.781   1.288   0.328
 1614WAT     H1 5084   9.841   1.241   0.392
 1614WAT     H2 5085   9.788   1.245   0.238
 1615WAT      O 5086   0.159   8.799   2.537
 1615WAT     H1 5087   0.139   8.780   2.441
 1615WAT     H2 5088   0.246   8.848   2.544
 1616WAT      O 5089   2.860   4.480   0.751
 1616WAT     H1 5090   2.828   4.526   0.668
 1616WAT     H2 5091   2.862   4.381   0.735
 1617WAT      O 5092   1.603   1.240   0.547
 1617WAT     H1 5093   1.577   1.156   0.499
 1617WAT     H2 5094   1.523   1.280   0.591
 1618WAT      O 5095   6.327   8.071   4.924
 1618WAT     H1 5096   6.410   8.108   4.965
 1618WAT     H2 5097   6.349   7.985   4.878
 1619WAT      O 5098   0.670   0.024   6.045
 1619WAT     H1 5099   0.601   0.013   6.116
 1619WAT     H2 5100   0.696   0.120   6.038
 1620WAT      O 5101   7.662   1.729   4.117
 1620WAT     H1 5102   7.686   1.799   4.049
 1620WAT     H2 5103   7.745   1.691   4.156
 1621WAT      O 5104   1.795   8.111   5.473
 1621WAT     H1 5105   1.798   8.075   5.567
 1621WAT     H2 5106   1.741   8.050   5.416
 1622WAT      O 5107   9.456   1.023   2.775
 1622WAT     H1 5108   9.549   0.998   2.800
 1622WAT     H2 5109   9.454   1.120   2.748
 1623WAT      O 5110   5.429   7.522   5.096
 1623WAT     H1 5111   5.346   7.514   5.151
 1623WAT     H2 5112   5.407   7.566   5.009
 1624WAT      O 5113   2.071   3.588   9.292
 1624WAT     H1 5114   2.073   3.682   9.258
 1624WAT     H2 5115   2.160   3.545   9.277
 1625WAT      O 5116   3.921   4.039   0.026
 1625WAT     H1 5117   3.851   4.107   0.046
 1625WAT     H2 5118   3.927   4.026  -0.073
 1626WAT      O 5119   8.757   4.886   4.927
 1626WAT     H1 5120   8.658   4.896   4.913
 1626WAT     H2 5121   8.798   4.976   4.940
 1627WAT      O 5122   7.545   0.584   4.577
 1627WAT     H1 5123   7.530   0.512   4.645
 1627WAT     H2 5124   7.529   0.547   4.486
 1628WAT      O 5125   9.218   7.072   7.851
 1628WAT     H1 5126   9.126   7.108   7.837
 1628WAT     H2 5127   9.224   7.027   7.940
 1629WAT      O 5128   5.574   9.156   8.605
 1629WAT     H1 5129   5.622   9.092   8.665
 1629WAT     H2 5130   5.586   9.249   8.640
 1630WAT      O 5131   3.757   7.681   5.481
 1630WAT     H1 5132   3.837   7.680   5.540
 1630WAT     H2 5133   3.744   7.590   5.442
 1631WAT      O 5134   0.953   0.461   5.556
 1631WAT     H1 5135   0.892   0.388   5.586
 1631WAT     H2 5136   1.002   0.432   5.474
 1632WAT      O 5137   5.765   1.417   5.120
 1632WAT     H1 5138   5.746   1.477   5.198
 1632WAT     H2 5139   5.751   1.322   5.148
 1633WAT      O 5140   0.108   9.164   4.699
 1633WAT     H1 5141   0.075   9.113   4.619
 1633WAT     H2 5142   0.107   9.262   4.678
 1634WAT      O 5143   1.223   8.934   9.240
 1634WAT     H1 5144   1.253   8.847   9.200
 1634WAT     H2 5145   1.171   8.915   9.324
 1635WAT      O 5146   4.690   7.187   9.387
 1635WAT     H1 5147   4.605   7.201   9.336
 1635WAT     H2 5148   4.737   7.107   9.351
 1636WAT      O 5149   1.305   7.121   4.064
 1636WAT     H1 5150   1.378   7.061   4.099
 1636WAT     H2 5151   1.228   7.119   4.127
 1637WAT      O 5152   6.778   1.216   3.858
 1637WAT     H1 5153   6.741   1.125   3.839
 1637WAT     H2 5154   6.709   1.285   3.837
 1638WAT      O 5155   1.335   3.459   5.446
 1638WAT     H1 5156   1.348   3.446   5.348
 1638WAT     H2 5157   1.237   3.465   5.466
 1639WAT      O 5158   5.122   2.502   1.276
 1639WAT     H1 5159   5.212   2.539   1.299
 1639WAT     H2 5160   5.109   2.506   1.176
 1640WAT      O 5161   4.086   6.312   0.536
 1640WAT     H1 5162   4.098   6.265   0.623
 1640WAT     H2 5163   4.046   6.403   0.552
 1641WAT      O 5164   8.259   6.604   8.080
 1641WAT     H1 5165   8.311   6.661   8.143
 1641WAT     H2 5166   8.310   6.593   7.995
 1642WAT      O 5167   8.341   6.331   2.313
 1642WAT     H1 5168   8.403   6.383   2.254
 1642WAT     H2 5169   8.259   6.306   2.262
 1643WAT      O 5170   0.100   4.110   7.860
 1643WAT     H1 5171   0.146   4.140   7.944
 1643WAT     H2 5172   0.031   4.041   7.882
 1644WAT      O 5173   3.191   0.855   9.558
 1644WAT     H1 5174   3.210   0.765   9.518
 1644WAT     H2 5175   3.252   0.923   9.518
 1645WAT      O 5176   6.350   0.278   4.668
 1645WAT     H1 5177   6.405   0.245   4.591
 1645WAT     H2 5178   6.353   0.211   4.743
 1646WAT      O 5179   7.040   9.431   9.111
 1646WAT     H1 5180   7.014   9.334   9.105
 1646WAT     H2 5181   7.028   9.463   9.204
 1647WAT      O 5182   6.860   6.789   7.966
 1647WAT     H1 5183   6.929   6.787   7.894
 1647WAT     H2 5184   6.902   6.820   8.051
 1648WAT      O 5185   8.264   4.709   4.436
 1648WAT     H1 5186   8.274   4.759   4.522
 1648WAT     H2 5187   8.236   4.773   4.364
 1649WAT      O 5188   3.711   1.250   6.705
 1649WAT     H1 5189   3.809   1.237   6.715
 1649WAT     H2 5190   3.692   1.289   6.614
 1650WAT      O 5191   6.035   5.074   9.702
 1650WAT     H1 5192   6.030   5.165   9.661
 1650WAT     H2 5193   5.966   5.065   9.774
 1651WAT      O 5194   4.126   4.776   2.643
 1651WAT     H1 5195   4.092   4.861   2.684
 1651WAT     H2 5196   4.221   4.763   2.669
 1652WAT      O 5197   2.055   1.806   7.142
 1652WAT     H1 5198   2.097   1.853   7.064
 1652WAT     H2 5199   2.021   1.873   7.207
 1653WAT      O 5200   6.829   1.507   4.107
 1653WAT     H1 5201   6.796   1.538   4.196
 1653WAT     H2 5202   6.753   1.471   4.053
 1654WAT      O 5203   9.587   4.784   9.688
 1654WAT     H1 5204   9.495   4.818   9.671
 1654WAT     H2 5205   9.654   4.851   9.655
 1655WAT      O 5206   2.394   5.171   3.250
 1655WAT     H1 5207   2.357   5.187   3.342
 1655WAT     H2 5208   2.438   5.082   3.247
 1656WAT      O 5209   9.718   5.739   2.598
 1656WAT     H1 5210   9.804   5.775   2.561
 1656WAT     H2 5211   9.666   5.696   2.525
 1657WAT      O 5212   7.899   2.819   9.850
 1657WAT     H1 5213   7.952   2.772   9.920
 1657WAT     H2 5214   7.943   2.906   9.826
 1658WAT      O 5215   7.929   8.581   8.929
 1658WAT     H1 5216   7.936   8.482   8.940
 1658WAT     H2 5217   7.920   8.625   9.018
 1659WAT      O 5218   7.885   4.544   0.529
 1659WAT     H1 5219   7.811   4.508   0.586
 1659WAT     H2 5220   7.847   4.588   0.448
 1660WAT      O 5221   6.277   4.535   7.126
 1660WAT     H1 5222   6.338   4.463   7.160
 1660WAT     H2 5223   6.317   4.577   7.045
 1661WAT      O 5224   3.539   7.748   4.869
 1661WAT     H1 5225   3.593   7.751   4.785
 1661WAT     H2 5226   3.600   7.752   4.948
 1662WAT      O 5227   4.505   1.389   1.904
 1662WAT     H1 5228   4.497   1.305   1.850
 1662WAT     H2 5229   4.415   1.428   1.920
 1663WAT      O 5230   2.573   8.218   2.289
 1663WAT     H1 5231   2.476   8.205   2.271
 1663WAT     H2 5232   2.593   8.196   2.384
 1664WAT      O 5233   4.587   4.193   9.623
 1664WAT     H1 5234   4.565   4.097   9.637
 1664WAT     H2 5235   4.546   4.225   9.537
 1665WAT      O 5236   3.000   3.740   1.799
 1665WAT     H1 5237   3.075   3.795   1.763
 1665WAT     H2 5238   2.947   3.702   1.723
 1666WAT      O 5239   1.256   2.021   0.329
 1666WAT     H1 5240   1.185   2.090   0.341
 1666WAT     H2 5241   1.243   1.975   0.242
 1667WAT      O 5242   8.732   9.114   8.682
 1667WAT     H1 5243   8.723   9.114   8.781
 1667WAT     H2 5244   8.793   9.189   8.654
 1668WAT      O 5245   0.186   0.911   4.881
 1668WAT     H1 5246   0.168   0.988   4.820
 1668WAT     H2 5247   0.283   0.888   4.878
 1669WAT      O 5248   3.490   5.780   5.809
 1669WAT     H1 5249   3.524   5.838   5.735
 1669WAT     H2 5250   3.433   5.836   5.870
 1670WAT      O 5251   8.039   4.295   4.610
 1670WAT     H1 5252   7.966   4.256   4.555
 1670WAT     H2 5253   8.126   4.287   4.561
 1671WAT      O 5254   0.773   4.109   6.566
 1671WAT     H1 5255   0.764   4.028   6.508
 1671WAT     H2 5256   0.858   4.157   6.543
 1672WAT      O 5257   9.273   7.040   7.210
 1672WAT     H1 5258   9.257   6.966   7.275
 1672WAT     H2 5259   9.196   7.047   7.147
 1673WAT      O 5260   2.459   7.156   6.826
 1673WAT     H1 5261   2.547   7.175   6.869
 1673WAT     H2 5262   2.409   7.242   6.813
 1674WAT      O 5263   1.278   0.663   6.453
 1674WAT     H1 5264   1.303   0.578   6.499
 1674WAT     H2 5265   1.205   0.709   6.504
 1675WAT      O 5266   3.755   9.791   5.712
 1675WAT     H1 5267   3.804   9.717   5.665
 1675WAT     H2 5268   3.657   9.773   5.709
 1676WAT      O 5269   9.344   1.400   8.873
 1676WAT     H1 5270   9.364   1.305   8.849
 1676WAT     H2 5271   9.250   1.422   8.847
 1677WAT      O 5272   4.862   1.583   5.410
 1677WAT     H1 5273   4.867   1.488   5.442
 1677WAT     H2 5274   4.902   1.589   5.319
 1678WAT      O 5275   9.708   4.895   7.871
 1678WAT     H1 5276   9.703   4.843   7.956
 1678WAT     H2 5277   9.791   4.869   7.822
 1679WAT      O 5278   1.230   3.597   0.472
 1679WAT     H1 5279   1.323   3.609   0.506
 1679WAT     H2 5280   1.175   3.551   0.542
 1680WAT      O 5281   1.547   1.958   9.452
 1680WAT     H1 5282   1.449   1.970   9.437
 1680WAT     H2 5283   1.596   2.035   9.412
 1681WAT      O 5284   4.945   5.241   7.116
 1681WAT     H1 5285   4.922   5.148   7.087
 1681WAT     H2 5286   4.972   5.240   7.212
 1682WAT      O 5287   2.126   4.519   0.536
 1682WAT     H1 5288   2.168   4.562   0.616
 1682WAT     H2 5289   2.172   4.432   0.517
 1683WAT      O 5290   7.378   0.367   7.169
 1683WAT     H1 5291   7.367   0.339   7.073
 1683WAT     H2 5292   7.383   0.285   7.226
 1684WAT      O 5293   0.782   2.054   4.619
 1684WAT     H1 5294   0.863   2.091   4.573
 1684WAT     H2 5295   0.700   2.080   4.567
 1685WAT      O 5296   2.192   8.120   8.490
 1685WAT     H1 5297   2.205   8.192   8.558
 1685WAT     H2 5298   2.153   8.039   8.533
 1686WAT      O 5299   3.040   9.348   6.491
 1686WAT     H1 5300   2.970   9.300   6.544
 1686WAT     H2 5301   3.000   9.429   6.448
 1687WAT      O 5302   7.214   9.540   6.859
 1687WAT     H1 5303   7.171   9.460   6.900
 1687WAT     H2 5304   7.151   9.581   6.793
 1688WAT      O 5305   1.659   4.620   2.579
 1688WAT     H1 5306   1.641   4.713   2.611
 1688WAT     H2 5307   1.572   4.576   2.556
 1689WAT      O 5308   3.743   9.194   7.557
 1689WAT     H1 5309   3.806   9.172   7.631
 1689WAT     H2 5310   3.757   9.289   7.528
 1690WAT      O 5311   4.927   7.503   5.782
 1690WAT     H1 5312   4.974   7.590   5.772
 1690WAT     H2 5313   4.982   7.430   5.743
 1691WAT      O 5314   3.280   5.307   0.449
 1691WAT     H1 5315   3.307   5.251   0.528
 1691WAT     H2 5316   3.360   5.357   0.415
 1692WAT      O 5317   2.386   4.716   8.922
 1692WAT     H1 5318   2.323   4.705   8.999
 1692WAT     H2 5319   2.476   4.680   8.946
 1693WAT      O 5320   9.685   4.325   9.851
 1693WAT     H1 5321   9.649   4.413   9.884
 1693WAT     H2 5322   9.611   4.258   9.848
 1694WAT      O 5323   1.935   5.608   8.047
 1694WAT     H1 5324   1.835   5.603   8.050
 1694WAT     H2 5325   1.968   5.662   8.124
 1695WAT      O 5326   9.851   8.551   4.929
 1695WAT     H1 5327   9.886   8.637   4.965
 1695WAT     H2 5328   9.805   8.567   4.841
 1696WAT      O 5329   0.704   0.555   2.350
 1696WAT     H1 5330   0.691   0.461   2.383
 1696WAT     H2 5331   0.632   0.613   2.388
 1697WAT      O 5332   5.564   4.481   9.688
 1697WAT     H1 5333   5.577   4.390   9.648
 1697WAT     H2 5334   5.479   4.483   9.740
 1698WAT      O 5335   7.591   3.559   3.848
 1698WAT     H1 5336   7.498   3.591   3.864
 1698WAT     H2 5337   7.624   3.595   3.760
 1699WAT      O 5338   4.458   2.399   7.458
 1699WAT     H1 5339   4.448   2.489   7.500
 1699WAT     H2 5340   4.435   2.328   7.525
 1700WAT      O 5341   2.882   7.132   5.911
 1700WAT     H1 5342   2.879   7.218   5.962
 1700WAT     H2 5343   2.905   7.150   5.816
 1701WAT      O 5344   9.436   6.282   0.986
 1701WAT     H1 5345   9.395   6.214   1.046
 1701WAT     H2 5346   9.367   6.349   0.959
 1702WAT      O 5347   7.595   2.846   5.614
 1702WAT     H1 5348   7.516   2.789   5.639
 1702WAT     H2 5349   7.664   2.790   5.569
 1703WAT      O 5350   7.464   7.630   2.486
 1703WAT     H1 5351   7.545   7.687   2.476
 1703WAT     H2 5352   7.441   7.620   2.583
 1704WAT      O 5353   1.640   6.636   4.443
 1704WAT     H1 5354   1.591   6.553   4.470
 1704WAT     H2 5355   1.732   6.612   4.413
 1705WAT      O 5356   7.844   8.453   1.685
 1705WAT     H1 5357   7.812   8.520   1.618
 1705WAT     H2 5358   7.789   8.370   1.678
 1706WAT      O 5359   2.390   8.315   2.555
 1706WAT     H1 5360   2.478   8.278   2.586
 1706WAT     H2 5361   2.381   8.300   2.456
 1707WAT      O 5362   5.967   7.172   9.770
 1707WAT     H1 5363   6.046   7.112   9.762
 1707WAT     H2 5364   5.980   7.235   9.846
 1708WAT      O 5365   5.935   8.456   9.713
 1708WAT     H1 5366   5.859   8.396   9.691
 1708WAT     H2 5367   6.003   8.452   9.640
 1709WAT      O 5368   8.774   4.156   5.965
 1709WAT     H1 5369   8.858   4.158   6.020
 1709WAT     H2 5370   8.792   4.109   5.879
 1710WAT      O 5371   5.246   2.776   8.009
 1710WAT     H1 5372   5.241   2.719   8.091
 1710WAT     H2 5373   5.176   2.747   7.944
 1711WAT      O 5374   5.535   9.114   1.596
 1711WAT     H1 5375   5.495   9.087   1.684
 1711WAT     H2 5376   5.503   9.205   1.571
 1712WAT      O 5377   3.283   7.240   5.388
 1712WAT     H1 5378   3.315   7.321   5.438
 1712WAT     H2 5379   3.239   7.269   5.303
 1713WAT      O 5380   6.254   9.674   1.661
 1713WAT     H1 5381   6.351   9.685   1.642
 1713WAT     H2 5382   6.235   9.701   1.755
 1714WAT      O 5383   9.280   2.938   5.449
 1714WAT     H1 5384   9.206   2.916   5.386
 1714WAT     H2 5385   9.368   2.916   5.407
 1715WAT      O 5386   5.544   7.185   7.595
 1715WAT     H1 5387   5.577   7.215   7.684
 1715WAT     H2 5388   5.575   7.092   7.577
 1716WAT      O 5389   8.634   0.774   7.386
 1716WAT     H1 5390   8.710   0.709   7.394
 1716WAT     H2 5391   8.635   0.816   7.295
 1717WAT      O 5392   3.326   2.237   4.327
 1717WAT     H1 5393   3.381   2.250   4.409
 1717WAT     H2 5394   3.366   2.165   4.271
 1718WAT      O 5395   9.791   1.564   6.239
 1718WAT     H1 5396   9.854   1.511   6.296
 1718WAT     H2 5397   9.819   1.660   6.237
 1719WAT      O 5398   5.069   1.369   4.860
 1719WAT     H1 5399   5.033   1.280   4.889
 1719WAT     H2 5400   5.092   1.424   4.941
 1720WAT      O 5401   2.775   5.166   9.047
 1720WAT     H1 5402   2.803   5.258   9.074
 1720WAT     H2 5403   2.832   5.135   8.972
 1721WAT      O 5404   2.089   7.161   8.644
 1721WAT     H1 5405   2.159   7.092   8.662
 1721WAT     H2 5406   2.033   7.131   8.567
 1722WAT      O 5407   3.421   0.327   0.379
 1722WAT     H1 5408   3.487   0.255   0.359
 1722WAT     H2 5409   3.354   0.293   0.445
 1723WAT      O 5410   9.851   9.117   6.223
 1723WAT     H1 5411   9.753   9.125   6.241
 1723WAT     H2 5412   9.864   9.069   6.136
 1724WAT      O 5413   8.783   6.992   4.999
 1724WAT     H1 5414   8.821   7.000   5.091
 1724WAT     H2 5415   8.774   6.895   4.975
 1725WAT      O 5416   7.784   4.578   7.373
 1725WAT     H1 5417   7.838   4.504   7.333
 1725WAT     H2 5418   7.687   4.558   7.363
 1726WAT      O 5419   0.905   1.353   3.119
 1726WAT     H1 5420   0.976   1.284   3.110
 1726WAT     H2 5421   0.817   1.315   3.091
 1727WAT      O 5422   0.782   3.011   4.848
 1727WAT     H1 5423   0.821   2.919   4.853
 1727WAT     H2 5424   0.714   3.023   4.920
 1728WAT      O 5425   1.795   1.614   0.371
 1728WAT     H1 5426   1.858   1.537   0.363
 1728WAT     H2 5427   1.821   1.685   0.306
 1729WAT      O 5428   2.503   1.292   2.008
 1729WAT     H1 5429   2.462   1.380   2.033
 1729WAT     H2 5430   2.577   1.270   2.072
 1730WAT      O 5431   0.163   4.420   9.547
 1730WAT     H1 5432   0.257   4.391   9.563
 1730WAT     H2 5433   0.100   4.358   9.594
 1731WAT      O 5434   8.388   4.013   4.894
 1731WAT     H1 5435   8.384   4.063   4.808
 1731WAT     H2 5436   8.346   3.923   4.884
 1732WAT      O 5437   0.930   6.822   4.482
 1732WAT     H1 5438   0.958   6.763   4.558
 1732WAT     H2 5439   0.858   6.884   4.513
 1733WAT      O 5440   2.298   7.480   7.526
 1733WAT     H1 5441   2.397   7.488   7.517
 1733WAT     H2 5442   2.267   7.523   7.610
 1734WAT      O 5443   1.026   3.739   1.021
 1734WAT     H1 5444   1.071   3.821   1.055
 1734WAT     H2 5445   1.064   3.714   0.932
 1735WAT      O 5446   5.639   3.622   6.270
 1735WAT     H1 5447   5.566   3.599   6.206
 1735WAT     H2 5448   5.673   3.539   6.313
 1736WAT      O 5449   9.519   1.975   7.176
 1736WAT     H1 5450   9.533   1.898   7.239
 1736WAT     H2 5451   9.441   2.029   7.208
 1737WAT      O 5452   0.456   3.340   6.377
 1737WAT     H1 5453   0.509   3.422   6.398
 1737WAT     H2 5454   0.508   3.280   6.318
 1738WAT      O 5455   8.185   3.829   8.432
 1738WAT     H1 5456   8.230   3.904   8.481
 1738WAT     H2 5457   8.204   3.743   8.479
 1739WAT      O 5458   5.680   0.890   3.544
 1739WAT     H1 5459   5.765   0.885   3.492
 1739WAT     H2 5460   5.674   0.979   3.589
 1740WAT      O 5461   1.624   6.448   6.935
 1740WAT     H1 5462   1.575   6.361   6.931
 1740WAT     H2 5463   1.565   6.517   6.977
 1741WAT      O 5464   8.439   3.441   3.291
 1741WAT     H1 5465   8.358   3.443   3.350
 1741WAT     H2 5466   8.420   3.386   3.210
 1742WAT      O 5467   6.502   8.219   0.228
 1742WAT     H1 5468   6.481   8.126   0.201
 1742WAT     H2 5469   6.598   8.224   0.258
 1743WAT      O 5470   3.846   8.891   8.765
 1743WAT     H1 5471   3.830   8.962   8.833
 1743WAT     H2 5472   3.934   8.847   8.782
 1744WAT      O 5473   4.121   7.069   6.753
 1744WAT     H1 5474   4.213   7.077   6.792
 1744WAT     H2 5475   4.073   7.156   6.763
 1745WAT      O 5476   0.586   6.475   6.935
 1745WAT     H1 5477   0.540   6.562   6.916
 1745WAT     H2 5478   0.527   6.399   6.907
 1746WAT      O 5479   9.579   7.222   0.097
 1746WAT     H1 5480   9.487   7.206   0.060
 1746WAT     H2 5481   9.602   7.150   0.162
 1747WAT      O 5482   4.212   3.498   0.696
 1747WAT     H1 5483   4.183   3.450   0.613
 1747WAT     H2 5484   4.132   3.525   0.749
 1748WAT      O 5485   7.932   5.934   8.538
 1748WAT     H1 5486   7.932   5.876   8.619
 1748WAT     H2 5487   8.014   5.990   8.536
 1749WAT      O 5488   6.530   4.945   4.801
 1749WAT     H1 5489   6.473   4.958   4.882
 1749WAT     H2 5490   6.518   5.021   4.738
 1750WAT      O 5491   2.630   9.160   0.284
 1750WAT     H1 5492   2.530   9.167   0.294
 1750WAT     H2 5493   2.652   9.106   0.203
 1751WAT      O 5494   4.507   4.894   7.373
 1751WAT     H1 5495   4.488   4.797   7.356
 1751WAT     H2 5496   4.550   4.904   7.463
 1752WAT      O 5497   8.874   1.748   9.435
 1752WAT     H1 5498   8.780   1.772   9.457
 1752WAT     H2 5499   8.937   1.811   9.480
 1753WAT      O 5500   5.635   1.140   5.718
 1753WAT     H1 5501   5.569   1.115   5.647
 1753WAT     H2 5502   5.596   1.212   5.775
 1754WAT      O 5503   6.614   7.004   7.199
 1754WAT     H1 5504   6.602   7.019   7.101
 1754WAT     H2 5505   6.666   6.920   7.213
 1755WAT      O 5506   2.994   9.082   4.994
 1755WAT     H1 5507   2.943   9.026   4.928
 1755WAT     H2 5508   3.087   9.097   4.960
 1756WAT      O 5509   0.234   7.477   2.002
 1756WAT     H1 5510   0.228   7.514   1.910
 1756WAT     H2 5511   0.329   7.478   2.032
 1757WAT      O 5512   5.986   7.798   5.424
 1757WAT     H1 5513   6.041   7.761   5.349
 1757WAT     H2 5514   6.045   7.840   5.492
 1758WAT      O 5515   0.810   9.547   7.114
 1758WAT     H1 5516   0.801   9.639   7.077
 1758WAT     H2 5517   0.725   9.496   7.099
 1759WAT      O 5518   5.416   6.563   5.987
 1759WAT     H1 5519   5.354   6.562   5.908
 1759WAT     H2 5520   5.395   6.643   6.044
 1760WAT      O 5521   1.685   7.702   2.715
 1760WAT     H1 5522   1.736   7.774   2.668
 1760WAT     H2 5523   1.733   7.678   2.800
 1761WAT      O 5524   1.372   2.140   3.628
 1761WAT     H1 5525   1.340   2.064   3.685
 1761WAT     H2 5526   1.431   2.200   3.684
 1762WAT      O 5527   9.021   9.143   3.296
 1762WAT     H1 5528   8.984   9.117   3.207
 1762WAT     H2 5529   9.118   9.164   3.287
 1763WAT      O 5530   3.277   6.318   8.022
 1763WAT     H1 5531   3.363   6.323   7.971
 1763WAT     H2 5532   3.286   6.370   8.107
 1764WAT      O 5533   3.357   9.378   0.045
 1764WAT     H1 5534   3.324   9.467   0.015
 1764WAT     H2 5535   3.329   9.309  -0.022
 1765WAT      O 5536   4.222   6.254   0.028
 1765WAT     H1 5537   4.201   6.352   0.030
 1765WAT     H2 5538   4.300   6.239  -0.033
 1766WAT      O 5539   5.187   2.831   4.392
 1766WAT     H1 5540   5.173   2.893   4.315
 1766WAT     H2 5541   5.282   2.802   4.395
 1767WAT      O 5542   0.882   5.517   1.387
 1767WAT     H1 5543   0.898   5.612   1.360
 1767WAT     H2 5544   0.784   5.501   1.395
 1768WAT      O 5545   3.412   6.191   4.195
 1768WAT     H1 5546   3.375   6.137   4.119
 1768WAT     H2 5547   3.509   6.209   4.179
 1769WAT      O 5548   1.409   7.474   1.967
 1769WAT     H1 5549   1.475   7.435   2.032
 1769WAT     H2 5550   1.341   7.405   1.943
 1770WAT      O 5551   0.068   5.848   2.545
 1770WAT     H1 5552   0.120   5.900   2.613
 1770WAT     H2 5553   0.066   5.898   2.458
 1771WAT      O 5554   0.302   4.011   4.945
 1771WAT     H1 5555   0.351   3.988   4.860
 1771WAT     H2 5556   0.368   4.033   5.016
 1772WAT      O 5557   8.365   3.327   4.577
 1772WAT     H1 5558   8.433   3.398   4.559
 1772WAT     H2 5559   8.363   3.262   4.501
 1773WAT      O 5560   2.955   4.934   0.734
 1773WAT     H1 5561   2.992   5.026   0.719
 1773WAT     H2 5562   2.986   4.900   0.822
 1774WAT      O 5563   5.516   7.207   8.999
 1774WAT     H1 5564   5.420   7.229   9.015
 1774WAT     H2 5565   5.571   7.237   9.078
 1775WAT      O 5566   1.609   0.159   0.958
 1775WAT     H1 5567   1.701   0.187   0.930
 1775WAT     H2 5568   1.542   0.220   0.916
 1776WAT      O 5569   1.261   8.791   7.721
 1776WAT     H1 5570   1.250   8.693   7.737
 1776WAT     H2 5571   1.358   8.811   7.705
 1777WAT      O 5572   4.309   4.596   1.105
 1777WAT     H1 5573   4.335   4.602   1.009
 1777WAT     H2 5574   4.329   4.504   1.139
 1778WAT      O 5575   0.627   7.633   9.232
 1778WAT     H1 5576   0.663   7.551   9.277
 1778WAT     H2 5577   0.618   7.617   9.134
 1779WAT      O 5578   7.479   2.786   8.645
 1779WAT     H1 5579   7.493   2.872   8.693
 1779WAT     H2 5580   7.386   2.753   8.660
 1780WAT      O 5581   4.501   1.433   9.367
 1780WAT     H1 5582   4.488   1.365   9.296
 1780WAT     H2 5583   4.570   1.499   9.338
 1781WAT      O 5584   5.316   0.138   2.940
 1781WAT     H1 5585   5.291   0.214   2.879
 1781WAT     H2 5586   5.364   0.068   2.887
 1782WAT      O 5587   6.454   3.830   4.790
 1782WAT     H1 5588   6.433   3.740   4.826
 1782WAT     H2 5589   6.458   3.826   4.690
 1783WAT      O 5590   0.561   2.258   4.460
 1783WAT     H1 5591   0.600   2.318   4.530
 1783WAT     H2 5592   0.529   2.174   4.502
 1784WAT      O 5593   6.889   9.296   7.262
 1784WAT     H1 5594   6.897   9.209   7.214
 1784WAT     H2 5595   6.835   9.360   7.207
 1785WAT      O 5596   0.896   3.202   6.962
 1785WAT     H1 5597   0.934   3.285   7.003
 1785WAT     H2 5598   0.805   3.185   6.999
 1786WAT      O 5599   3.484   1.439   8.579
 1786WAT     H1 5600   3.450   1.532   8.570
 1786WAT     H2 5601   3.572   1.440   8.627
 1787WAT      O 5602   5.998   2.313   6.797
 1787WAT     H1 5603   6.066   2.370   6.843
 1787WAT     H2 5604   6.039   2.226   6.771
 1788WAT      O 5605   6.368   6.913   4.405
 1788WAT     H1 5606   6.387   6.816   4.388
 1788WAT     H2 5607   6.376   6.932   4.502
 1789WAT      O 5608   4.188   7.294   2.207
 1789WAT     H1 5609   4.098   7.330   2.232
 1789WAT     H2 5610   4.251   7.371   2.195
 1790WAT      O 5611   4.965   7.836   5.203
 1790WAT     H1 5612   4.948   7.778   5.124
 1790WAT     H2 5613   4.955   7.932   5.176
 1791WAT      O 5614   3.757   9.435   3.311
 1791WAT     H1 5615   3.712   9.366   3.254
 1791WAT     H2 5616   3.855   9.436   3.292
 1792WAT      O 5617   1.687   9.272   4.383
 1792WAT     H1 5618   1.649   9.180   4.369
 1792WAT     H2 5619   1.778   9.277   4.342
 1793WAT      O 5620   1.020   8.299   2.138
 1793WAT     H1 5621   1.008   8.212   2.090
 1793WAT     H2 5622   1.069   8.363   2.078
 1794WAT      O 5623   7.210   7.224   4.943
 1794WAT     H1 5624   7.130   7.229   4.885
 1794WAT     H2 5625   7.240   7.129   4.951
 1795WAT      O 5626   1.545   5.078   5.953
 1795WAT     H1 5627   1.620   5.012   5.947
 1795WAT     H2 5628   1.470   5.039   6.006
 1796WAT      O 5629   7.639   4.042   3.293
 1796WAT     H1 5630   7.651   4.130   3.338
 1796WAT     H2 5631   7.707   3.978   3.328
 1797WAT      O 5632   8.015   6.665   9.261
 1797WAT     H1 5633   8.072   6.710   9.330
 1797WAT     H2 5634   7.962   6.592   9.304
 1798WAT      O 5635   7.301   5.389   6.331
 1798WAT     H1 5636   7.215   5.385   6.382
 1798WAT     H2 5637   7.284   5.367   6.235
 1799WAT      O 5638   4.631   3.483   6.340
 1799WAT     H1 5639   4.552   3.504   6.399
 1799WAT     H2 5640   4.599   3.440   6.256
 1800WAT      O 5641   2.958   7.321   5.700
 1800WAT     H1 5642   3.058   7.314   5.697
 1800WAT     H2 5643   2.921   7.300   5.610
 1801WAT      O 5644   4.609   7.916   6.519
 1801WAT     H1 5645   4.523   7.960   6.546
 1801WAT     H2 5646   4.598   7.871   6.430
 1802WAT      O 5647   0.177   0.096   6.821
 1802WAT     H1 5648   0.204   0.174   6.765
 1802WAT     H2 5649   0.084   0.110   6.856
 1803WAT      O 5650   3.672   3.588   7.043
 1803WAT     H1 5651   3.745   3.625   7.100
 1803WAT     H2 5652   3.588   3.641   7.057
 1804WAT      O 5653   7.747   5.068   2.836
 1804WAT     H1 5654   7.653   5.042   2.854
 1804WAT     H2 5655   7.803   4.986   2.827
 1805WAT      O 5656   6.605   7.369   6.661
 1805WAT     H1 5657   6.563   7.279   6.667
 1805WAT     H2 5658   6.545   7.431   6.610
 1806WAT      O 5659   9.459   7.831   9.386
 1806WAT     H1 5660   9.401   7.824   9.467
 1806WAT     H2 5661   9.496   7.924   9.380
 1807WAT      O 5662   6.385   4.864   2.842
 1807WAT     H1 5663   6.388   4.963   2.830
 1807WAT     H2 5664   6.306   4.840   2.900
 1808WAT      O 5665   2.776   7.995   2.319
 1808WAT     H1 5666   2.795   7.897   2.314
 1808WAT     H2 5667   2.861   8.046   2.321
 1809WAT      O 5668   5.078   1.848   0.657
 1809WAT     H1 5669   5.075   1.749   0.672
 1809WAT     H2 5670   4.996   1.877   0.608
 1810WAT      O 5671   2.409   8.676   9.545
 1810WAT     H1 5672   2.480   8.723   9.493
 1810WAT     H2 5673   2.436   8.581   9.561
 1811WAT      O 5674   7.750   8.702   5.318
 1811WAT     H1 5675   7.837   8.661   5.345
 1811WAT     H2 5676   7.750   8.717   5.219
 1812WAT      O 5677   0.823   1.365   1.839
 1812WAT     H1 5678   0.878   1.440   1.877
 1812WAT     H2 5679   0.731   1.370   1.877
 1813WAT      O 5680   0.440   6.860   9.882
 1813WAT     H1 5681   0.343   6.881   9.873
 1813WAT     H2 5682   0.487   6.938   9.923
 1814WAT      O 5683   8.757   0.707   1.009
 1814WAT     H1 5684   8.827   0.761   0.962
 1814WAT     H2 5685   8.786   0.611   1.011
 1815WAT      O 5686   7.090   4.566   6.358
 1815WAT     H1 5687   7.003   4.523   6.382
 1815WAT     H2 5688   7.164   4.500   6.369
 1816WAT      O 5689   4.976   5.920   9.748
 1816WAT     H1 5690   5.053   5.886   9.695
 1816WAT     H2 5691   4.953   5.855   9.820
 1817WAT      O 5692   1.513   4.639   4.439
 1817WAT     H1 5693   1.435   4.626   4.379
 1817WAT     H2 5694   1.534   4.737   4.447
 1818WAT      O 5695   0.346   8.706   3.323
 1818WAT     H1 5696   0.274   8.676   3.259
 1818WAT     H2 5697   0.304   8.754   3.400
 1819WAT      O 5698   5.832   2.920   2.624
 1819WAT     H1 5699   5.931   2.922   2.639
 1819WAT     H2 5700   5.807   2.831   2.585
 1820WAT      O 5701   8.792   4.938   9.260
 1820WAT     H1 5702   8.826   4.887   9.181
 1820WAT     H2 5703   8.700   4.973   9.239
 1821WAT      O 5704   7.676   0.442   3.825
 1821WAT     H1 5705   7.688   0.476   3.918
 1821WAT     H2 5706   7.751   0.473   3.767
 1822WAT      O 5707   8.441   8.001   9.013
 1822WAT     H1 5708   8.354   7.968   9.049
 1822WAT     H2 5709   8.430   8.096   8.981
 1823WAT      O 5710   2.516   7.062   1.257
 1823WAT     H1 5711   2.493   6.966   1.277
 1823WAT     H2 5712   2.434   7.110   1.227
 1824WAT      O 5713   0.632   8.631   2.756
 1824WAT     H1 5714   0.561   8.585   2.703
 1824WAT     H2 5715   0.713   8.572   2.762
 1825WAT      O 5716   6.632   5.736   0.380
 1825WAT     H1 5717   6.699   5.776   0.317
 1825WAT     H2 5718   6.594   5.808   0.438
 1826WAT      O 5719   9.474   2.477   8.161
 1826WAT     H1 5720   9.429   2.392   8.188
 1826WAT     H2 5721   9.551   2.495   8.222
 1827WAT      O 5722   4.428   6.373   0.534
 1827WAT     H1 5723   4.518   6.411   0.557
 1827WAT     H2 5724   4.408   6.391   0.438
 1828WAT      O 5725   7.720   8.974   7.418
 1828WAT     H1 5726   7.714   8.893   7.477
 1828WAT     H2 5727   7.806   8.972   7.367
 1829WAT      O 5728   1.982   9.380   1.620
 1829WAT     H1 5729   1.978   9.431   1.706
 1829WAT     H2 5730   2.072   9.338   1.610
 1830WAT      O 5731   1.153   3.363   7.041
 1830WAT     H1 5732   1.218   3.308   6.989
 1830WAT     H2 5733   1.132   3.447   6.990
 1831WAT      O 5734   5.247   5.082   0.437
 1831WAT     H1 5735   5.303   5.161   0.460
 1831WAT     H2 5736   5.219   5.036   0.521
 1832WAT      O 5737   8.594   9.587   3.718
 1832WAT     H1 5738   8.516   9.610   3.776
 1832WAT     H2 5739   8.630   9.671   3.676
 1833WAT      O 5740   0.575   5.712   0.320
 1833WAT     H1 5741   0.510   5.734   0.392
 1833WAT     H2 5742   0.659   5.676   0.361
 1834WAT      O 5743   4.673   2.362   2.236
 1834WAT     H1 5744   4.716   2.325   2.319
 1834WAT     H2 5745   4.724   2.442   2.205
 1835WAT      O 5746   5.643   2.647   9.619
 1835WAT     H1 5747   5.703   2.606   9.688
 1835WAT     H2 5748   5.697   2.703   9.557
 1836WAT      O 5749   9.292   3.118   9.146
 1836WAT     H1 5750   9.230   3.187   9.108
 1836WAT     H2 5751   9.242   3.060   9.210
 1837WAT      O 5752   9.197   8.804   2.607
 1837WAT     H1 5753   9.196   8.854   2.521
 1837WAT     H2 5754   9.109   8.758   2.620
 1838WAT      O 5755   5.073   7.888   4.075
 1838WAT     H1 5756   4.987   7.880   4.025
 1838WAT     H2 5757   5.069   7.830   4.157
 1839WAT      O 5758   4.502   3.337   1.947
 1839WAT     H1 5759   4.429   3.381   1.894
 1839WAT     H2 5760   4.590   3.355   1.905
 1840WAT      O 5761   7.901   9.261   2.911
 1840WAT     H1 5762   7.943   9.293   2.996
 1840WAT     H2 5763   7.969   9.258   2.838
 1841WAT      O 5764   3.500   9.770   5.649
 1841WAT     H1 5765   3.520   9.748   5.554
 1841WAT     H2 5766   3.506   9.869   5.662
 1842WAT      O 5767   0.616   1.436   7.961
 1842WAT     H1 5768   0.660   1.414   7.874
 1842WAT     H2 5769   0.673   1.502   8.012
 1843WAT      O 5770   5.176   5.958   8.470
 1843WAT     H1 5771   5.168   6.049   8.511
 1843WAT     H2 5772   5.263   5.917   8.496
 1844WAT      O 5773   7.582   7.964   1.380
 1844WAT     H1 5774   7.574   8.056   1.340
 1844WAT     H2 5775   7.492   7.921   1.383
 1845WAT      O 5776   7.756   3.434   9.432
 1845WAT     H1 5777   7.732   3.434   9.529
 1845WAT     H2 5778   7.674   3.454   9.378
 1846WAT      O 5779   4.096   0.481   7.388
 1846WAT     H1 5780   4.112   0.569   7.343
 1846WAT     H2 5781   4.168   0.463   7.454
 1847WAT      O 5782   2.266   8.078   1.734
 1847WAT     H1 5783   2.255   8.171   1.771
 1847WAT     H2 5784   2.181   8.051   1.689
 1848WAT      O 5785   7.930   6.408   7.097
 1848WAT     H1 5786   8.002   6.339   7.087
 1848WAT     H2 5787   7.972   6.497   7.115
 1849WAT      O 5788   6.439   8.499   0.188
 1849WAT     H1 5789   6.391   8.490   0.101
 1849WAT     H2 5790   6.445   8.409   0.232
 1850WAT      O 5791   5.696   0.918   5.081
 1850WAT     H1 5792   5.795   0.912   5.065
 1850WAT     H2 5793   5.662   0.829   5.112
 1851WAT      O 5794   2.459   7.877   6.655
 1851WAT     H1 5795   2.485   7.882   6.558
 1851WAT     H2 5796   2.367   7.840   6.662
 1852WAT      O 5797   4.392   9.705   0.587
 1852WAT     H1 5798   4.385   9.797   0.625
 1852WAT     H2 5799   4.373   9.708   0.489
 1853WAT      O 5800   0.022   9.272   8.684
 1853WAT     H1 5801   0.045   9.243   8.777
 1853WAT     H2 5802   0.046   9.368   8.673
 1854WAT      O 5803   6.373   7.417   0.815
 1854WAT     H1 5804   6.419   7.500   0.781
 1854WAT     H2 5805   6.290   7.401   0.762
 1855WAT      O 5806   2.373   3.370   7.881
 1855WAT     H1 5807   2.392   3.277   7.850
 1855WAT     H2 5808   2.280   3.374   7.918
 1856WAT      O 5809   6.565   7.067   4.735
 1856WAT     H1 5810   6.664   7.060   4.748
 1856WAT     H2 5811   6.532   7.152   4.777
 1857WAT      O 5812   9.166   1.877   0.054
 1857WAT     H1 5813   9.239   1.903   0.118
 1857WAT     H2 5814   9.206   1.848  -0.032
 1858WAT      O 5815   7.712   7.833   3.235
 1858WAT     H1 5816   7.661   7.754   3.269
 1858WAT     H2 5817   7.807   7.806   3.217
 1859WAT      O 5818   9.894   9.398   9.755
 1859WAT     H1 5819   9.877   9.306   9.720
 1859WAT     H2 5820   9.808   9.437   9.789
 1860WAT      O 5821   2.947   0.484   2.510
 1860WAT     H1 5822   2.934   0.398   2.461
 1860WAT     H2 5823   2.858   0.527   2.527
 1861WAT      O 5824   8.458   6.169   4.536
 1861WAT     H1 5825   8.503   6.106   4.473
 1861WAT     H2 5826   8.362   6.143   4.547
 1862WAT      O 5827   7.481   1.155   0.007
 1862WAT     H1 5828   7.569   1.200  -0.009
 1862WAT     H2 5829   7.491   1.086   0.078
 1863WAT      O 5830   7.417   4.942   2.638
 1863WAT     H1 5831   7.386   4.922   2.731
 1863WAT     H2 5832   7.347   4.914   2.573
 1864WAT      O 5833   8.652   0.971   8.541
 1864WAT     H1 5834   8.677   0.997   8.635
 1864WAT     H2 5835   8.624   0.875   8.539
 1865WAT      O 5836   8.530   0.520   1.457
 1865WAT     H1 5837   8.516   0.421   1.463
 1865WAT     H2 5838   8.543   0.546   1.361
 1866WAT      O 5839   8.483   1.103   7.024
 1866WAT     H1 5840   8.561   1.162   7.044
 1866WAT     H2 5841   8.399   1.157   7.023
 1867WAT      O 5842   1.456   7.096   4.855
 1867WAT     H1 5843   1.491   7.160   4.924
 1867WAT     H2 5844   1.356   7.098   4.856
 1868WAT      O 5845   7.194   3.026   9.437
 1868WAT     H1 5846   7.169   2.975   9.519
 1868WAT     H2 5847   7.286   2.999   9.408
 1869WAT      O 5848   7.109   5.514   9.826
 1869WAT     H1 5849   7.084   5.607   9.857
 1869WAT     H2 5850   7.133   5.517   9.729
 1870WAT      O 5851   3.742   2.031   7.396
 1870WAT     H1 5852   3.823   2.029   7.337
 1870WAT     H2 5853   3.698   2.121   7.388
 1871WAT      O 5854   6.887   5.488   7.889
 1871WAT     H1 5855   6.846   5.397   7.900
 1871WAT     H2 5856   6.815   5.557   7.891
 1872WAT      O 5857   5.999   3.685   8.602
 1872WAT     H1 5858   5.963   3.749   8.669
 1872WAT     H2 5859   5.976   3.592   8.628
 1873WAT      O 5860   1.572   7.495   5.326
 1873WAT     H1 5861   1.600   7.550   5.247
 1873WAT     H2 5862   1.652   7.475   5.383
 1874WAT      O 5863   5.592   4.425   5.359
 1874WAT     H1 5864   5.653   4.482   5.414
 1874WAT     H2 5865   5.513   4.398   5.414
 1875WAT      O 5866   7.795   5.612   5.861
 1875WAT     H1 5867   7.757   5.656   5.779
 1875WAT     H2 5868   7.804   5.679   5.934
 1876WAT      O 5869   3.937   3.956   2.459
 1876WAT     H1 5870   3.953   3.955   2.360
 1876WAT     H2 5871   3.978   4.039   2.498
 1877WAT      O 5872   3.025   3.842   1.307
 1877WAT     H1 5873   3.099   3.817   1.370
 1877WAT     H2 5874   3.046   3.806   1.216
 1878WAT      O 5875   2.742   3.846   0.796
 1878WAT     H1 5876   2.699   3.934   0.777
 1878WAT     H2 5877   2.696   3.803   0.874
 1879WAT      O 5878   1.936   6.088   5.464
 1879WAT     H1 5879   1.898   6.025   5.396
 1879WAT     H2 5880   2.036   6.085   5.459
 1880WAT      O 5881   4.077   9.212   6.247
 1880WAT     H1 5882   4.059   9.128   6.195
 1880WAT     H2 5883   4.150   9.195   6.313
 1881WAT      O 5884   3.113   4.096   9.627
 1881WAT     H1 5885   3.174   4.166   9.663
 1881WAT     H2 5886   3.031   4.091   9.684
 1882WAT      O 5887   1.050   3.602   7.371
 1882WAT     H1 5888   1.119   3.658   7.326
 1882WAT     H2 5889   1.070   3.597   7.469
 1883WAT      O 5890   9.397   8.190   6.654
 1883WAT     H1 5891   9.365   8.095   6.658
 1883WAT     H2 5892   9.397   8.221   6.559
 1884WAT      O 5893   3.697   5.913   2.388
 1884WAT     H1 5894   3.697   5.836   2.325
 1884WAT     H2 5895   3.613   5.966   2.375
 1885WAT      O 5896   2.806   5.974   9.049
 1885WAT     H1 5897   2.899   5.981   9.085
 1885WAT     H2 5898   2.764   6.065   9.048
 1886WAT      O 5899   0.678   9.027   0.076
 1886WAT     H1 5900   0.753   9.064   0.131
 1886WAT     H2 5901   0.644   9.099   0.014
 1887WAT      O 5902   2.124   5.099   5.872
 1887WAT     H1 5903   2.037   5.148   5.870
 1887WAT     H2 5904   2.169   5.114   5.960
 1888WAT      O 5905   1.037   7.206   1.760
 1888WAT     H1 5906   0.947   7.161   1.757
 1888WAT     H2 5907   1.075   7.209   1.668
 1889WAT      O 5908   1.225   6.683   0.062
 1889WAT     H1 5909   1.130   6.656   0.081
 1889WAT     H2 5910   1.283   6.602   0.063
 1890WAT      O 5911   0.856   8.013   6.008
 1890WAT     H1 5912   0.927   7.958   6.052
 1890WAT     H2 5913   0.790   7.952   5.964
 1891WAT      O 5914   2.877   5.389   5.367
 1891WAT     H1 5915   2.937   5.421   5.293
 1891WAT     H2 5916   2.911   5.302   5.402
 1892WAT      O 5917   8.196   8.325   2.769
 1892WAT     H1 5918   8.218   8.422   2.759
 1892WAT     H2 5919   8.280   8.274   2.786
 1893WAT      O 5920   5.669   3.870   4.912
 1893WAT     H1 5921   5.637   3.920   4.993
 1893WAT     H2 5922   5.603   3.798   4.889
 1894WAT      O 5923   4.684   1.766   1.636
 1894WAT     H1 5924   4.644   1.790   1.548
 1894WAT     H2 5925   4.633   1.812   1.709
 1895WAT      O 5926   5.265   0.897   6.232
 1895WAT     H1 5927   5.234   0.808   6.265
 1895WAT     H2 5928   5.189   0.962   6.238
 1896WAT      O 5929   3.482   4.658   6.217
 1896WAT     H1 5930   3.546   4.588   6.185
 1896WAT     H2 5931   3.482   4.660   6.317
 1897WAT      O 5932   9.395   6.962   4.226
 1897WAT     H1 5933   9.359   6.870   4.237
 1897WAT     H2 5934   9.478   6.959   4.170
 1898WAT      O 5935   8.138   7.841   5.778
 1898WAT     H1 5936   8.202   7.774   5.816
 1898WAT     H2 5937   8.065   7.793   5.730
 1899WAT      O 5938   4.799   9.588   3.144
 1899WAT     H1 5939   4.867   9.540   3.198
 1899WAT     H2 5940   4.784   9.540   3.058
 1900WAT      O 5941   0.333   2.386   3.441
 1900WAT     H1 5942   0.335   2.286   3.434
 1900WAT     H2 5943   0.326   2.412   3.538
 1901WAT      O 5944   0.793   6.931   7.352
 1901WAT     H1 5945   0.723   6.957   7.285
 1901WAT     H2 5946   0.749   6.891   7.432
 1902WAT      O 5947   7.540   4.147   4.688
 1902WAT     H1 5948   7.455   4.177   4.733
 1902WAT     H2 5949   7.574   4.220   4.628
 1903WAT      O 5950   4.094   0.039   9.063
 1903WAT     H1 5951   4.158   0.115   9.054
 1903WAT     H2 5952   4.051   0.020   8.975
 1904WAT      O 5953   1.917   6.369   9.870
 1904WAT     H1 5954   1.852   6.407   9.804
 1904WAT     H2 5955   1.902   6.270   9.877
 1905WAT      O 5956   8.530   3.055   4.104
 1905WAT     H1 5957   8.614   3.108   4.093
 1905WAT     H2 5958   8.547   2.959   4.080
 1906WAT      O 5959   7.087   4.620   2.510
 1906WAT     H1 5960   7.154   4.545   2.509
 1906WAT     H2 5961   7.021   4.605   2.584
 1907WAT      O 5962   1.077   0.139   3.931
 1907WAT     H1 5963   1.052   0.217   3.989
 1907WAT     H2 5964   1.040   0.153   3.839
 1908WAT      O 5965   9.132   6.509   1.786
 1908WAT     H1 5966   9.198   6.582   1.806
 1908WAT     H2 5967   9.179   6.421   1.789
 1909WAT      O 5968   1.188   0.485   1.282
 1909WAT     H1 5969   1.258   0.429   1.326
 1909WAT     H2 5970   1.180   0.458   1.186
 1910WAT      O 5971   1.127   7.824   4.696
 1910WAT     H1 5972   1.211   7.776   4.723
 1910WAT     H2 5973   1.055   7.758   4.677
 1911WAT      O 5974   6.791   3.930   3.847
 1911WAT     H1 5975   6.727   3.861   3.812
 1911WAT     H2 5976   6.876   3.885   3.874
 1912WAT      O 5977   9.611   4.864   2.102
 1912WAT     H1 5978   9.539   4.827   2.043
 1912WAT     H2 5979   9.633   4.797   2.173
 1913WAT      O 5980   2.898   3.749   2.534
 1913WAT     H1 5981   2.971   3.722   2.471
 1913WAT     H2 5982   2.825   3.795   2.482
 1914WAT      O 5983   5.582   7.373   9.769
 1914WAT     H1 5984   5.555   7.441   9.838
 1914WAT     H2 5985   5.606   7.288   9.814
 1915WAT      O 5986   6.046   1.347   3.123
 1915WAT     H1 5987   5.988   1.273   3.157
 1915WAT     H2 5988   6.027   1.431   3.173
 1916WAT      O 5989   6.220   0.450   3.156
 1916WAT     H1 5990   6.203   0.371   3.098
 1916WAT     H2 5991   6.313   0.447   3.191
 1917WAT      O 5992   8.242   2.452   7.813
 1917WAT     H1 5993   8.246   2.486   7.907
 1917WAT     H2 5994   8.283   2.520   7.751
 1918WAT      O 5995   1.342   1.688   1.798
 1918WAT     H1 5996   1.331   1.614   1.864
 1918WAT     H2 5997   1.262   1.692   1.739
 1919WAT      O 5998   1.633   0.280   0.642
 1919WAT     H1 5999   1.637   0.336   0.559
 1919WAT     H2 6000   1.538   0.270   0.671
 1920WAT      O 6001   2.663   9.173   5.091
 1920WAT     H1 6002   2.655   9.227   5.175
 1920WAT     H2 6003   2.718   9.223   5.025
 1921WAT      O 6004   4.846   7.207   6.472
 1921WAT     H1 6005   4.875   7.271   6.400
 1921WAT     H2 6006   4.816   7.122   6.430
 1922WAT      O 6007   3.729   6.562   0.399
 1922WAT     H1 6008   3.659   6.633   0.393
 1922WAT     H2 6009   3.691   6.476   0.366
 1923WAT      O 6010   2.188   1.008   8.414
 1923WAT     H1 6011   2.105   1.052   8.382
 1923WAT     H2 6012   2.198   0.918   8.372
 1924WAT      O 6013   1.984   0.330   2.841
 1924WAT     H1 6014   1.890   0.337   2.874
 1924WAT     H2 6015   2.015   0.420   2.810
 1925WAT      O 6016   2.854   5.108   3.418
 1925WAT     H1 6017   2.917   5.157   3.478
 1925WAT     H2 6018   2.801   5.042   3.471
 1926WAT      O 6019   5.728   4.968   2.863
 1926WAT     H1 6020   5.677   4.898   2.913
 1926WAT     H2 6021   5.815   4.984   2.909
 1927WAT      O 6022   0.617   8.740   3.303
 1927WAT     H1 6023   0.518   8.732   3.288
 1927WAT     H2 6024   0.639   8.834   3.328
 1928WAT      O 6025   1.317   2.915   4.087
 1928WAT     H1 6026   1.269   2.833   4.058
 1928WAT     H2 6027   1.415   2.898   4.087
 1929WAT      O 6028   4.312   4.666   1.853
 1929WAT     H1 6029   4.333   4.739   1.918
 1929WAT     H2 6030   4.217   4.636   1.865
 1930WAT      O 6031   7.899   0.033   2.971
 1930WAT     H1 6032   7.936  -0.021   2.896
 1930WAT     H2 6033   7.799   0.035   2.965
 1931WAT      O 6034   3.130   4.467   3.533
 1931WAT     H1 6035   3.079   4.386   3.561
 1931WAT     H2 6036   3.226   4.443   3.518
 1932WAT      O 6037   9.589   7.477   6.611
 1932WAT     H1 6038   9.629   7.521   6.691
 1932WAT     H2 6039   9.489   7.475   6.620
 1933WAT      O 6040   9.080   3.430   8.098
 1933WAT     H1 6041   9.012   3.503   8.103
 1933WAT     H2 6042   9.120   3.415   8.188
 1934WAT      O 6043   0.186   9.274   0.712
 1934WAT     H1 6044   0.210   9.260   0.616
 1934WAT     H2 6045   0.249   9.224   0.771
 1935WAT      O 6046   0.727   4.866   8.381
 1935WAT     H1 6047   0.800   4.897   8.321
 1935WAT     H2 6048   0.657   4.819   8.326
 1936WAT      O 6049   9.413   0.600   9.299
 1936WAT     H1 6050   9.480   0.670   9.324
 1936WAT     H2 6051   9.332   0.611   9.356
 1937WAT      O 6052   5.827   7.838   7.611
 1937WAT     H1 6053   5.729   7.848   7.629
 1937WAT     H2 6054   5.841   7.806   7.518
 1938WAT      O 6055   1.040   5.458   0.062
 1938WAT     H1 6056   0.978   5.381   0.081
 1938WAT     H2 6057   1.134   5.426   0.063
 1939WAT      O 6058   4.187   9.747   4.825
 1939WAT     H1 6059   4.233   9.666   4.862
 1939WAT     H2 6060   4.203   9.825   4.884
 1940WAT      O 6061   8.818   5.724   0.100
 1940WAT     H1 6062   8.900   5.766   0.140
 1940WAT     H2 6063   8.838   5.628   0.077
 1941WAT      O 6064   4.850   5.931   3.450
 1941WAT     H1 6065   4.895   5.991   3.515
 1941WAT     H2 6066   4.807   5.855   3.498
 1942WAT      O 6067   6.914   2.198   4.542
 1942WAT     H1 6068   7.000   2.222   4.497
 1942WAT     H2 6069   6.881   2.110   4.507
 1943WAT      O 6070   9.482   2.087   9.574
 1943WAT     H1 6071   9.562   2.037   9.607
 1943WAT     H2 6072   9.476   2.175   9.621
 1944WAT      O 6073   5.684   2.951   8.699
 1944WAT     H1 6074   5.635   2.940   8.786
 1944WAT     H2 6075   5.741   2.871   8.683
 1945WAT      O 6076   2.436   5.376   1.108
 1945WAT     H1 6077   2.514   5.381   1.170
 1945WAT     H2 6078   2.409   5.280   1.095
 1946WAT      O 6079   7.029   8.089   1.164
 1946WAT     H1 6080   7.080   8.061   1.245
 1946WAT     H2 6081   6.931   8.093   1.186
 1947WAT      O 6082   7.481   1.103   6.601
 1947WAT     H1 6083   7.468   1.009   6.570
 1947WAT     H2 6084   7.518   1.158   6.526
 1948WAT      O 6085   3.935   7.859   3.452
 1948WAT     H1 6086   3.989   7.776   3.462
 1948WAT     H2 6087   3.846   7.837   3.412
 1949WAT      O 6088   4.464   3.124   7.349
 1949WAT     H1 6089   4.423   3.039   7.317
 1949WAT     H2 6090   4.400   3.171   7.411
 1950WAT      O 6091   7.500   4.476   5.034
 1950WAT     H1 6092   7.517   4.531   4.952
 1950WAT     H2 6093   7.548   4.389   5.027
 1951WAT      O 6094   0.086   1.018   9.677
 1951WAT     H1 6095   0.046   1.092   9.732
 1951WAT     H2 6096   0.178   1.044   9.648
 1952WAT      O 6097   5.980   5.035   2.938
 1952WAT     H1 6098   6.011   4.947   2.975
 1952WAT     H2 6099   6.056   5.079   2.890
 1953WAT      O 6100   0.684   8.906   6.237
 1953WAT     H1 6101   0.628   8.826   6.217
 1953WAT     H2 6102   0.672   8.932   6.333
 1954WAT      O 6103   4.949   8.104   5.095
 1954WAT     H1 6104   5.026   8.160   5.127
 1954WAT     H2 6105   4.981   8.040   5.026
 1955WAT      O 6106   0.596   3.154   6.212
 1955WAT     H1 6107   0.678   3.155   6.155
 1955WAT     H2 6108   0.519   3.116   6.160
 1956WAT      O 6109   6.586   2.773   2.417
 1956WAT     H1 6110   6.578   2.743   2.512
 1956WAT     H2 6111   6.676   2.813   2.402
 1957WAT      O 6112   9.645   8.537   4.023
 1957WAT     H1 6113   9.579   8.465   3.999
 1957WAT     H2 6114   9.650   8.603   3.949
 1958WAT      O 6115   4.175   1.366   6.032
 1958WAT     H1 6116   4.191   1.283   6.085
 1958WAT     H2 6117   4.208   1.353   5.939
 1959WAT      O 6118   8.281   3.641   5.218
 1959WAT     H1 6119   8.232   3.693   5.149
 1959WAT     H2 6120   8.228   3.559   5.243
 1960WAT      O 6121   5.717   9.240   0.914
 1960WAT     H1 6122   5.670   9.299   0.980
 1960WAT     H2 6123   5.730   9.149   0.954
 1961WAT      O 6124   5.695   0.779   5.773
 1961WAT     H1 6125   5.634   0.721   5.719
 1961WAT     H2 6126   5.768   0.724   5.813
 1962WAT      O 6127   7.249   2.703   7.570
 1962WAT     H1 6128   7.244   2.703   7.670
 1962WAT     H2 6129   7.168   2.658   7.532
 1963WAT      O 6130   4.651   9.112   2.858
 1963WAT     H1 6131   4.623   9.184   2.921
 1963WAT     H2 6132   4.715   9.051   2.903
 1964WAT      O 6133   4.591   1.869   3.794
 1964WAT     H1 6134   4.641   1.919   3.865
 1964WAT     H2 6135   4.651   1.855   3.715
 1965WAT      O 6136   8.511   8.129   6.999
 1965WAT     H1 6137   8.607   8.127   7.027
 1965WAT     H2 6138   8.498   8.067   6.921
 1966WAT      O 6139   6.468   3.608   6.176
 1966WAT     H1 6140   6.525   3.547   6.231
 1966WAT     H2 6141   6.521   3.643   6.099
 1967WAT      O 6142   2.204   5.256   6.759
 1967WAT     H1 6143   2.289   5.205   6.770
 1967WAT     H2 6144   2.131   5.213   6.812
 1968WAT      O 6145   3.830   8.004   1.380
 1968WAT     H1 6146   3.889   7.949   1.440
 1968WAT     H2 6147   3.850   8.101   1.396
 1969WAT      O 6148   0.374   2.123   6.302
 1969WAT     H1 6149   0.441   2.192   6.274
 1969WAT     H2 6150   0.418   2.055   6.359
 1970WAT      O 6151   7.759   5.307   5.218
 1970WAT     H1 6152   7.665   5.339   5.203
 1970WAT     H2 6153   7.805   5.369   5.283
 1971WAT      O 6154   7.845   1.946   6.771
 1971WAT     H1 6155   7.905   1.939   6.851
 1971WAT     H2 6156   7.782   2.022   6.783
 1972WAT      O 6157   3.277   9.632   0.456
 1972WAT     H1 6158   3.215   9.637   0.379
 1972WAT     H2 6159   3.372   9.634   0.423
 1973WAT      O 6160   5.967   8.253   6.259
 1973WAT     H1 6161   5.940   8.323   6.193
 1973WAT     H2 6162   5.885   8.210   6.296
 1974WAT      O 6163   0.785   2.666   2.101
 1974WAT     H1 6164   0.840   2.685   2.183
 1974WAT     H2 6165   0.750   2.573   2.105
 1975WAT      O 6166   6.283   3.654   3.900
 1975WAT     H1 6167   6.352   3.695   3.960
 1975WAT     H2 6168   6.276   3.556   3.920
 1976WAT      O 6169   8.284   9.215   1.377
 1976WAT     H1 6170   8.319   9.134   1.424
 1976WAT     H2 6171   8.298   9.295   1.435
 1977WAT      O 6172   0.838   6.373   6.837
 1977WAT     H1 6173   0.752   6.414   6.868
 1977WAT     H2 6174   0.891   6.343   6.916
 1978WAT      O 6175   1.189   9.638   0.506
 1978WAT     H1 6176   1.124   9.583   0.452
 1978WAT     H2 6177   1.282   9.620   0.475
 1979WAT      O 6178   5.126   9.375   8.755
 1979WAT     H1 6179   5.078   9.339   8.674
 1979WAT     H2 6180   5.063   9.381   8.832
 1980WAT      O 6181   4.905   1.980   1.299
 1980WAT     H1 6182   4.989   1.962   1.249
 1980WAT     H2 6183   4.875   2.074   1.281
 1981WAT      O 6184   8.882   5.838   4.216
 1981WAT     H1 6185   8.848   5.932   4.225
 1981WAT     H2 6186   8.866   5.788   4.301
 1982WAT      O 6187   3.609   0.722   6.141
 1982WAT     H1 6188   3.606   0.757   6.235
 1982WAT     H2 6189   3.650   0.791   6.082
 1983WAT      O 6190   2.039   7.241   7.370
 1983WAT     H1 6191   2.069   7.152   7.403
 1983WAT     H2 6192   2.119   7.293   7.339
 1984WAT      O 6193   3.023   5.701   4.421
 1984WAT     H1 6194   3.045   5.738   4.330
 1984WAT     H2 6195   3.091   5.733   4.487
 1985WAT      O 6196   8.705   7.324   2.067
 1985WAT     H1 6197   8.640   7.259   2.028
 1985WAT     H2 6198   8.798   7.294   2.048
 1986WAT      O 6199   6.962   6.655   3.408
 1986WAT     H1 6200   7.024   6.582   3.438
 1986WAT     H2 6201   6.976   6.736   3.465
 1987WAT      O 6202   1.852   9.095   1.282
 1987WAT     H1 6203   1.759   9.058   1.285
 1987WAT     H2 6204   1.918   9.021   1.301
 1988WAT      O 6205   0.032   0.544   3.748
 1988WAT     H1 6206  -0.014   0.633   3.745
 1988WAT     H2 6207  -0.030   0.474   3.713
 1989WAT      O 6208   2.069   7.107   3.598
 1989WAT     H1 6209   1.983   7.148   3.625
 1989WAT     H2 6210   2.080   7.115   3.499
 1990WAT      O 6211   5.653   7.529   5.272
 1990WAT     H1 6212   5.569   7.535   5.219
 1990WAT     H2 6213   5.677   7.433   5.286
 1991WAT      O 6214   8.817   7.173   5.974
 1991WAT     H1 6215   8.718   7.180   5.960
 1991WAT     H2 6216   8.840   7.078   5.995
 1992WAT      O 6217   7.610   5.978   4.552
 1992WAT     H1 6218   7.515   5.947   4.560
 1992WAT     H2 6219   7.672   5.902   4.573
 1993WAT      O 6220   1.555   8.352   7.003
 1993WAT     H1 6221   1.505   8.269   6.979
 1993WAT     H2 6222   1.516   8.430   6.953
 1994WAT      O 6223   2.560   7.000   8.531
 1994WAT     H1 6224   2.569   7.100   8.528
 1994WAT     H2 6225   2.490   6.971   8.465
 1995WAT      O 6226   7.605   2.840   0.681
 1995WAT     H1 6227   7.575   2.936   0.674
 1995WAT     H2 6228   7.633   2.821   0.775
 1996WAT      O 6229   8.140   6.568   0.281
 1996WAT     H1 6230   8.156   6.469   0.270
 1996WAT     H2 6231   8.163   6.594   0.375
 1997WAT      O 6232   8.909   1.426   7.850
 1997WAT     H1 6233   8.959   1.513   7.853
 1997WAT     H2 6234   8.891   1.401   7.755
 1998WAT      O 6235   2.535   4.497   1.783
 1998WAT     H1 6236   2.446   4.453   1.780
 1998WAT     H2 6237   2.589   4.459   1.858
 1999WAT      O 6238   0.158   1.584   9.277
 1999WAT     H1 6239   0.079   1.525   9.293
 1999WAT     H2 6240   0.238   1.529   9.257
 2000WAT      O 6241   2.964   7.105   0.497
 2000WAT     H1 6242   2.993   7.025   0.550
 2000WAT     H2 6243   3.034   7.177   0.504
 2001WAT      O 6244   8.106   0.534   3.862
 2001WAT     H1 6245   8.172   0.591   3.813
 2001WAT     H2 6246   8.125   0.438   3.843
 2002WAT      O 6247   4.390   7.585   8.237
 2002WAT     H1 6248   4.450   7.506   8.253
 2002WAT     H2 6249   4.426   7.664   8.286
 2003WAT      O 6250   9.401   8.699   3.254
 2003WAT     H1 6251   9.406   8.690   3.353
 2003WAT     H2 6252   9.326   8.762   3.230
 2004WAT      O 6253   5.364   4.021   2.552
 2004WAT     H1 6254   5.334   4.105   2.505
 2004WAT     H2 6255   5.301   4.002   2.627
 2005WAT      O 6256   4.400   6.444   0.253
 2005WAT     H1 6257   4.472   6.501   0.214
 2005WAT     H2 6258   4.313   6.493   0.252
 2006WAT      O 6259   4.596   3.912   9.552
 2006WAT     H1 6260   4.668   3.950   9.493
 2006WAT     H2 6261   4.547   3.840   9.502
 2007WAT      O 6262   0.038   7.345   5.596
 2007WAT     H1 6263   0.014   7.382   5.507
 2007WAT     H2 6264   0.093   7.411   5.646
 2008WAT      O 6265   6.081   0.216   7.047
 2008WAT     H1 6266   6.079   0.140   6.981
 2008WAT     H2 6267   6.108   0.300   7.000
 2009WAT      O 6268   2.342   8.156   4.843
 2009WAT     H1 6269   2.273   8.084   4.853
 2009WAT     H2 6270   2.342   8.189   4.749
 2010WAT      O 6271   5.744   0.513   4.411
 2010WAT     H1 6272   5.673   0.541   4.477
 2010WAT     H2 6273   5.759   0.415   4.419
 2011WAT      O 6274   9.041   3.884   5.956
 2011WAT     H1 6275   9.111   3.861   6.023
 2011WAT     H2 6276   8.965   3.820   5.964
 2012WAT      O 6277   8.294   5.823   4.758
 2012WAT     H1 6278   8.205   5.778   4.762
 2012WAT     H2 6279   8.317   5.861   4.847
 2013WAT      O 6280   2.986   7.724   7.700
 2013WAT     H1 6281   3.011   7.777   7.619
 2013WAT     H2 6282   3.050   7.742   7.774
 2014WAT      O 6283   8.766   4.955   6.726
 2014WAT     H1 6284   8.792   4.906   6.642
 2014WAT     H2 6285   8.830   5.030   6.742
 2015WAT      O 6286   8.609   7.481   1.374
 2015WAT     H1 6287   8.636   7.388   1.350
 2015WAT     H2 6288   8.593   7.533   1.290
 2016WAT      O 6289   4.085   7.344   6.471
 2016WAT     H1 6290   4.092   7.364   6.569
 2016WAT     H2 6291   4.015   7.402   6.431
 2017WAT      O 6292   8.422   4.978   6.280
 2017WAT     H1 6293   8.391   5.073   6.275
 2017WAT     H2 6294   8.343   4.919   6.300
 2018WAT      O 6295   2.036   5.639   1.284
 2018WAT     H1 6296   2.080   5.551   1.297
 2018WAT     H2 6297   2.105   5.709   1.267
 2019WAT      O 6298   1.191   1.532   8.009
 2019WAT     H1 6299   1.117   1.465   7.997
 2019WAT     H2 6300   1.152   1.624   8.018
 2020WAT      O 6301   7.353   3.476   2.291
 2020WAT     H1 6302   7.387   3.490   2.198
 2020WAT     H2 6303   7.259   3.510   2.297
 2021WAT      O 6304   4.424   4.661   2.519
 2021WAT     H1 6305   4.459   4.750   2.488
 2021WAT     H2 6306   4.461   4.641   2.610
 2022WAT      O 6307   9.534   4.333   6.013
 2022WAT     H1 6308   9.602   4.406   6.021
 2022WAT     H2 6309   9.475   4.334   6.093
 2023WAT      O 6310   4.951   5.670   0.032
 2023WAT     H1 6311   4.880   5.699   0.097
 2023WAT     H2 6312   5.041   5.683   0.074
 2024WAT      O 6313   9.298   5.442   0.446
 2024WAT     H1 6314   9.389   5.460   0.409
 2024WAT     H2 6315   9.229   5.470   0.379
 2025WAT      O 6316   5.052   9.635   4.146
 2025WAT     H1 6317   5.116   9.630   4.070
 2025WAT     H2 6318   4.989   9.712   4.132
 2026WAT      O 6319   3.043   0.410   2.753
 2026WAT     H1 6320   3.024   0.311   2.757
 2026WAT     H2 6321   3.008   0.447   2.667
 2027WAT      O 6322   2.250   4.882   8.739
 2027WAT     H1 6323   2.280   4.972   8.769
 2027WAT     H2 6324   2.284   4.812   8.801
 2028WAT      O 6325   3.447   1.789   3.199
 2028WAT     H1 6326   3.510   1.836   3.262
 2028WAT     H2 6327   3.469   1.816   3.105
 2029WAT      O 6328   8.095   1.972   8.524
 2029WAT     H1 6329   8.107   1.912   8.445
 2029WAT     H2 6330   8.004   2.013   8.521
 2030WAT      O 6331   8.025   2.384   6.039
 2030WAT     H1 6332   8.097   2.323   6.073
 2030WAT     H2 6333   8.030   2.472   6.085
 2031WAT      O 6334   8.807   5.309   2.885
 2031WAT     H1 6335   8.843   5.313   2.978
 2031WAT     H2 6336   8.834   5.223   2.842
 2032WAT      O 6337   7.970   9.043   0.468
 2032WAT     H1 6338   7.905   9.035   0.393
 2032WAT     H2 6339   8.045   9.104   0.441
 2033WAT      O 6340   0.776   1.149   9.724
 2033WAT     H1 6341   0.788   1.050   9.710
 2033WAT     H2 6342   0.864   1.191   9.744
 2034WAT      O 6343   1.214   9.337   0.617
 2034WAT     H1 6344   1.236   9.315   0.522
 2034WAT     H2 6345   1.126   9.384   0.620
 2035WAT      O 6346   2.594   4.000   7.889
 2035WAT     H1 6347   2.596   3.901   7.873
 2035WAT     H2 6348   2.554   4.046   7.810
 2036WAT      O 6349   7.554   0.215   4.293
 2036WAT     H1 6350   7.496   0.192   4.371
 2036WAT     H2 6351   7.534   0.152   4.218
 2037WAT      O 6352   2.850   0.927   3.411
 2037WAT     H1 6353   2.900   0.961   3.331
 2037WAT     H2 6354   2.874   0.982   3.491
 2038WAT      O 6355   4.922   0.095   3.828
 2038WAT     H1 6356   5.019   0.070   3.820
 2038WAT     H2 6357   4.912   0.193   3.815
 2039WAT      O 6358   7.408   3.692   1.957
 2039WAT     H1 6359   7.355   3.752   2.016
 2039WAT     H2 6360   7.475   3.641   2.011
 2040WAT      O 6361   9.446   3.490   8.027
 2040WAT     H1 6362   9.449   3.474   8.125
 2040WAT     H2 6363   9.371   3.552   8.005
 2041WAT      O 6364   6.569   3.975   8.534
 2041WAT     H1 6365   6.536   4.016   8.619
 2041WAT     H2 6366   6.491   3.951   8.476
 2042WAT      O 6367   6.805   0.441   5.527
 2042WAT     H1 6368   6.769   0.349   5.543
 2042WAT     H2 6369   6.879   0.459   5.591
 2043WAT      O 6370   8.704   2.041   5.923
 2043WAT     H1 6371   8.686   1.943   5.930
 2043WAT     H2 6372   8.638   2.083   5.861
 2044WAT      O 6373   3.587   5.418   4.761
 2044WAT     H1 6374   3.604   5.320   4.765
 2044WAT     H2 6375   3.504   5.440   4.811
 2045WAT      O 6376   0.905   5.678   9.176
 2045WAT     H1 6377   0.949   5.766   9.155
 2045WAT     H2 6378   0.844   5.690   9.255
 2046WAT      O 6379   7.325   1.864   7.470
 2046WAT     H1 6380   7.313   1.838   7.565
 2046WAT     H2 6381   7.402   1.814   7.431
 2047WAT      O 6382   3.638   4.435   8.703
 2047WAT     H1 6383   3.618   4.337   8.692
 2047WAT     H2 6384   3.701   4.448   8.779
 2048WAT      O 6385   5.523   0.755   3.951
 2048WAT     H1 6386   5.563   0.678   3.902
 2048WAT     H2 6387   5.514   0.732   4.048
 2049WAT      O 6388   2.608   6.380   6.486
 2049WAT     H1 6389   2.542   6.307   6.470
 2049WAT     H2 6390   2.566   6.468   6.462
 2050WAT      O 6391   6.907   9.307   1.842
 2050WAT     H1 6392   6.871   9.296   1.935
 2050WAT     H2 6393   6.991   9.362   1.845
 2051WAT      O 6394   6.235   5.891   6.347
 2051WAT     H1 6395   6.300   5.818   6.367
 2051WAT     H2 6396   6.155   5.881   6.406
 2052WAT      O 6397   4.179   5.292   9.623
 2052WAT     H1 6398   4.204   5.223   9.555
 2052WAT     H2 6399   4.246   5.366   9.621
 2053WAT      O 6400   4.353   0.493   3.072
 2053WAT     H1 6401   4.392   0.584   3.055
 2053WAT     H2 6402   4.372   0.433   2.994
 2054WAT      O 6403   4.509   7.638   2.314
 2054WAT     H1 6404   4.600   7.614   2.348
 2054WAT     H2 6405   4.480   7.571   2.246
 2055WAT      O 6406   6.705   0.577   2.225
 2055WAT     H1 6407   6.621   0.534   2.258
 2055WAT     H2 6408   6.778   0.508   2.224
 2056WAT      O 6409   6.102   3.830   7.493
 2056WAT     H1 6410   6.024   3.847   7.555
 2056WAT     H2 6411   6.136   3.918   7.458
 2057WAT      O 6412   6.182   5.845   6.682
 2057WAT     H1 6413   6.087   5.848   6.711
 2057WAT     H2 6414   6.237   5.906   6.739
 2058WAT      O 6415   1.197   4.343   1.207
 2058WAT     H1 6416   1.197   4.272   1.277
 2058WAT     H2 6417   1.132   4.318   1.134
 2059WAT      O 6418   1.786   3.676   2.418
 2059WAT     H1 6419   1.783   3.703   2.322
 2059WAT     H2 6420   1.879   3.685   2.453
 2060WAT      O 6421   3.078   8.741   4.435
 2060WAT     H1 6422   3.131   8.700   4.361
 2060WAT     H2 6423   3.057   8.836   4.413
 2061WAT      O 6424   2.125   2.559   1.014
 2061WAT     H1 6425   2.153   2.587   0.923
 2061WAT     H2 6426   2.164   2.470   1.036
 2062WAT      O 6427   9.453   5.456   4.549
 2062WAT     H1 6428   9.528   5.390   4.555
 2062WAT     H2 6429   9.385   5.436   4.619
 2063WAT      O 6430   9.055   1.648   8.800
 2063WAT     H1 6431   9.028   1.577   8.866
 2063WAT     H2 6432   8.984   1.718   8.796
 2064WAT      O 6433   9.508   6.873   0.785
 2064WAT     H1 6434   9.508   6.805   0.859
 2064WAT     H2 6435   9.414   6.894   0.758
 2065WAT      O 6436   6.589   5.177   5.603
 2065WAT     H1 6437   6.583   5.158   5.504
 2065WAT     H2 6438   6.518   5.243   5.628
 2066WAT      O 6439   6.451   9.119   0.951
 2066WAT     H1 6440   6.483   9.189   0.888
 2066WAT     H2 6441   6.529   9.077   0.998
 2067WAT      O 6442   7.520   0.200   8.890
 2067WAT     H1 6443   7.596   0.146   8.924
 2067WAT     H2 6444   7.552   0.263   8.819
 2068WAT      O 6445   2.034   5.049   2.977
 2068WAT     H1 6446   2.059   4.968   3.029
 2068WAT     H2 6447   2.086   5.128   3.010
 2069WAT      O 6448   3.821   3.258   4.458
 2069WAT     H1 6449   3.762   3.216   4.388
 2069WAT     H2 6450   3.785   3.238   4.549
 2070WAT      O 6451   0.186   5.398   6.516
 2070WAT     H1 6452   0.265   5.437   6.564
 2070WAT     H2 6453   0.111   5.464   6.516
 2071WAT      O 6454   1.524   9.453   7.933
 2071WAT     H1 6455   1.567   9.450   7.843
 2071WAT     H2 6456   1.566   9.385   7.993
 2072WAT      O 6457   1.628   8.325   4.020
 2072WAT     H1 6458   1.724   8.313   4.047
 2072WAT     H2 6459   1.585   8.391   4.082
 2073WAT      O 6460   9.771   8.372   7.500
 2073WAT     H1 6461   9.697   8.334   7.555
 2073WAT     H2 6462   9.810   8.452   7.546
 2074WAT      O 6463   0.216   8.019   2.190
 2074WAT     H1 6464   0.139   7.989   2.245
 2074WAT     H2 6465   0.253   8.104   2.227
 2075WAT      O 6466   0.210   3.623   4.659
 2075WAT     H1 6467   0.144   3.698   4.649
 2075WAT     H2 6468   0.162   3.536   4.650
 2076WAT      O 6469   5.084   4.186   6.246
 2076WAT     H1 6470   5.169   4.133   6.243
 2076WAT     H2 6471   5.068   4.218   6.339
 2077WAT      O 6472   2.245   1.108   7.333
 2077WAT     H1 6473   2.175   1.037   7.333
 2077WAT     H2 6474   2.281   1.120   7.426
 2078WAT      O 6475   6.611   7.281   0.887
 2078WAT     H1 6476   6.534   7.341   0.864
 2078WAT     H2 6477   6.576   7.194   0.923
 2079WAT      O 6478   4.631   6.186   6.346
 2079WAT     H1 6479   4.553   6.230   6.390
 2079WAT     H2 6480   4.710   6.191   6.405
 2080WAT      O 6481   0.608   7.922   5.111
 2080WAT     H1 6482   0.580   7.934   5.016
 2080WAT     H2 6483   0.640   8.009   5.149
 2081WAT      O 6484   8.337   8.809   3.059
 2081WAT     H1 6485   8.283   8.856   2.990
 2081WAT     H2 6486   8.432   8.836   3.051
 2082WAT      O 6487   1.240   3.984   4.703
 2082WAT     H1 6488   1.163   3.981   4.640
 2082WAT     H2 6489   1.261   3.892   4.735
 2083WAT      O 6490   1.864   8.849   0.702
 2083WAT     H1 6491   1.801   8.903   0.646
 2083WAT     H2 6492   1.812   8.794   0.767
 2084WAT      O 6493   5.897   6.841   6.529
 2084WAT     H1 6494   5.901   6.837   6.429
 2084WAT     H2 6495   5.925   6.753   6.567
 2085WAT      O 6496   0.983   6.716   7.678
 2085WAT     H1 6497   1.078   6.688   7.663
 2085WAT     H2 6498   0.953   6.685   7.768
 2086WAT      O 6499   5.663   8.847   2.655
 2086WAT     H1 6500   5.626   8.797   2.577
 2086WAT     H2 6501   5.761   8.827   2.664
 2087WAT      O 6502   0.239   6.416   0.371
 2087WAT     H1 6503   0.259   6.328   0.329
 2087WAT     H2 6504   0.236   6.487   0.301
 2088WAT      O 6505   9.330   8.589   0.716
 2088WAT     H1 6506   9.296   8.594   0.810
 2088WAT     H2 6507   9.430   8.592   0.716
 2089WAT      O 6508   7.791   4.547   7.750
 2089WAT     H1 6509   7.695   4.572   7.742
 2089WAT     H2 6510   7.831   4.534   7.659
 2090WAT      O 6511   4.633   8.846   0.489
 2090WAT     H1 6512   4.638   8.770   0.554
 2090WAT     H2 6513   4.537   8.875   0.480
 2091WAT      O 6514   2.478   2.218   9.670
 2091WAT     H1 6515   2.501   2.225   9.573
 2091WAT     H2 6516   2.384   2.249   9.685
 2092WAT      O 6517   2.987   0.681   7.182
 2092WAT     H1 6518   2.992   0.629   7.267
 2092WAT     H2 6519   3.069   0.662   7.127
 2093WAT      O 6520   7.908   8.852   4.017
 2093WAT     H1 6521   7.938   8.840   3.922
 2093WAT     H2 6522   7.969   8.801   4.078
 2094WAT      O 6523   1.976   0.259   4.009
 2094WAT     H1 6524   2.056   0.317   3.991
 2094WAT     H2 6525   1.973   0.186   3.940
 2095WAT      O 6526   4.220   6.012   9.491
 2095WAT     H1 6527   4.135   5.998   9.441
 2095WAT     H2 6528   4.217   6.101   9.537
 2096WAT      O 6529   2.636   2.015   9.773
 2096WAT     H1 6530   2.585   2.067   9.704
 2096WAT     H2 6531   2.575   1.991   9.848
 2097WAT      O 6532   1.966   6.378   3.573
 2097WAT     H1 6533   2.054   6.355   3.613
 2097WAT     H2 6534   1.921   6.293   3.542
 2098WAT      O 6535   8.676   8.949   6.417
 2098WAT     H1 6536   8.700   8.868   6.471
 2098WAT     H2 6537   8.738   9.024   6.440
 2099WAT      O 6538   0.089   7.029   7.165
 2099WAT     H1 6539   0.125   7.099   7.104
 2099WAT     H2 6540   0.159   7.002   7.232
 2100WAT      O 6541   1.457   1.099   7.588
 2100WAT     H1 6542   1.374   1.084   7.534
 2100WAT     H2 6543   1.519   1.158   7.536
 2101WAT      O 6544   6.906   3.734   4.264
 2101WAT     H1 6545   6.960   3.818   4.272
 2101WAT     H2 6546   6.880   3.720   4.169
 2102WAT      O 6547   7.250   0.818   3.033
 2102WAT     H1 6548   7.300   0.737   3.065
 2102WAT     H2 6549   7.302   0.900   3.057
 2103WAT      O 6550   8.656   5.417   9.872
 2103WAT     H1 6551   8.608   5.443   9.956
 2103WAT     H2 6552   8.590   5.394   9.801
 2104WAT      O 6553   8.509   1.872   9.884
 2104WAT     H1 6554   8.415   1.838   9.873
 2104WAT     H2 6555   8.514   1.967   9.851
 2105WAT      O 6556   5.045   1.577   0.668
 2105WAT     H1 6557   4.968   1.518   0.643
 2105WAT     H2 6558   5.122   1.559   0.607
 2106WAT      O 6559   8.466   0.660   8.655
 2106WAT     H1 6560   8.542   0.670   8.591
 2106WAT     H2 6561   8.384   0.704   8.616
 2107WAT      O 6562   6.268   6.078   3.494
 2107WAT     H1 6563   6.292   5.981   3.490
 2107WAT     H2 6564   6.170   6.089   3.477
 2108WAT      O 6565   0.307   5.391   5.124
 2108WAT     H1 6566   0.362   5.463   5.166
 2108WAT     H2 6567   0.333   5.382   5.028
 2109WAT      O 6568   2.775   0.957   0.459
 2109WAT     H1 6569   2.778   1.054   0.480
 2109WAT     H2 6570   2.868   0.922   0.447
 2110WAT      O 6571   6.542   8.175   0.878
 2110WAT     H1 6572   6.514   8.088   0.917
 2110WAT     H2 6573   6.483   8.197   0.800
 2111WAT      O 6574   6.590   0.300   7.059
 2111WAT     H1 6575   6.656   0.225   7.056
 2111WAT     H2 6576   6.635   0.382   7.094
 2112WAT      O 6577   0.271   9.362   9.784
 2112WAT     H1 6578   0.175   9.373   9.755
 2112WAT     H2 6579   0.276   9.368   9.883
 2113WAT      O 6580   1.092   4.510   8.340
 2113WAT     H1 6581   1.166   4.563   8.381
 2113WAT     H2 6582   1.017   4.500   8.406
 2114WAT      O 6583   7.188   9.747   3.631
 2114WAT     H1 6584   7.215   9.771   3.724
 2114WAT     H2 6585   7.270   9.736   3.574
 2115WAT      O 6586   2.996   2.584   4.195
 2115WAT     H1 6587   3.052   2.667   4.194
 2115WAT     H2 6588   2.931   2.588   4.272
 2116WAT      O 6589   6.478   1.194   2.304
 2116WAT     H1 6590   6.505   1.135   2.381
 2116WAT     H2 6591   6.454   1.137   2.226
 2117WAT      O 6592   5.548   4.394   0.261
 2117WAT     H1 6593   5.617   4.322   0.263
 2117WAT     H2 6594   5.468   4.362   0.210
 2118WAT      O 6595   5.942   0.844   2.134
 2118WAT     H1 6596   5.981   0.922   2.085
 2118WAT     H2 6597   5.961   0.760   2.084
 2119WAT      O 6598   6.349   7.520   5.467
 2119WAT     H1 6599   6.356   7.605   5.519
 2119WAT     H2 6600   6.388   7.534   5.376
 2120WAT      O 6601   9.128   3.631   5.459
 2120WAT     H1 6602   9.136   3.569   5.538
 2120WAT     H2 6603   9.081   3.584   5.385
 2121WAT      O 6604   0.430   4.336   7.214
 2121WAT     H1 6605   0.430   4.236   7.209
 2121WAT     H2 6606   0.496   4.372   7.147
 2122WAT      O 6607   6.579   3.321   0.951
 2122WAT     H1 6608   6.668   3.350   0.918
 2122WAT     H2 6609   6.512   3.330   0.877
 2123WAT      O 6610   0.724   5.926   7.166
 2123WAT     H1 6611   0.737   5.954   7.071
 2123WAT     H2 6612   0.631   5.949   7.195
 2124WAT      O 6613   9.691   2.549   2.567
 2124WAT     H1 6614   9.604   2.567   2.613
 2124WAT     H2 6615   9.729   2.636   2.534
 2125WAT      O 6616   0.882   6.965   5.286
 2125WAT     H1 6617   0.934   6.881   5.269
 2125WAT     H2 6618   0.792   6.941   5.324
 2126WAT      O 6619   7.424   3.102   7.575
 2126WAT     H1 6620   7.476   3.174   7.528
 2126WAT     H2 6621   7.488   3.038   7.618
 2127WAT      O 6622   6.123   0.028   1.889
 2127WAT     H1 6623   6.168   0.102   1.838
 2127WAT     H2 6624   6.192  -0.038   1.918
 2128WAT      O 6625   4.398   8.694   6.592
 2128WAT     H1 6626   4.342   8.639   6.530
 2128WAT     H2 6627   4.441   8.769   6.541
 2129WAT      O 6628   7.197   8.889   4.867
 2129WAT     H1 6629   7.266   8.908   4.797
 2129WAT     H2 6630   7.191   8.790   4.882
 2130WAT      O 6631   6.762   1.936   4.650
 2130WAT     H1 6632   6.729   1.953   4.743
 2130WAT     H2 6633   6.851   1.891   4.654
 2131WAT      O 6634   6.494   2.954   0.389
 2131WAT     H1 6635   6.570   2.986   0.446
 2131WAT     H2 6636   6.531   2.906   0.310
 2132WAT      O 6637   6.209   4.329   3.835
 2132WAT     H1 6638   6.112   4.336   3.811
 2132WAT     H2 6639   6.258   4.408   3.799
 2133WAT      O 6640   8.444   9.584   0.641
 2133WAT     H1 6641   8.347   9.606   0.652
 2133WAT     H2 6642   8.488   9.654   0.585
 2134WAT      O 6643   3.416   6.270   5.432
 2134WAT     H1 6644   3.346   6.332   5.396
 2134WAT     H2 6645   3.372   6.196   5.482
 2135WAT      O 6646   4.641   7.477   8.356
 2135WAT     H1 6647   4.713   7.470   8.426
 2135WAT     H2 6648   4.567   7.414   8.379
 2136WAT      O 6649   4.326   2.869   5.264
 2136WAT     H1 6650   4.360   2.957   5.298
 2136WAT     H2 6651   4.393   2.797   5.286
 2137WAT      O 6652   0.666   1.387   8.889
 2137WAT     H1 6653   0.687   1.337   8.973
 2137WAT     H2 6654   0.592   1.453   8.907
 2138WAT      O 6655   3.409   7.940   8.316
 2138WAT     H1 6656   3.420   7.843   8.336
 2138WAT     H2 6657   3.395   7.991   8.401
 2139WAT      O 6658   7.681   0.481   3.322
 2139WAT     H1 6659   7.596   0.475   3.374
 2139WAT     H2 6660   7.668   0.542   3.244
 2140WAT      O 6661   7.314   6.650   3.536
 2140WAT     H1 6662   7.253   6.571   3.525
 2140WAT     H2 6663   7.297   6.715   3.463
 2141WAT      O 6664   8.251   4.729   3.928
 2141WAT     H1 6665   8.269   4.755   3.833
 2141WAT     H2 6666   8.305   4.648   3.952
 2142WAT      O 6667   6.841   8.972   3.156
 2142WAT     H1 6668   6.873   8.893   3.104
 2142WAT     H2 6669   6.851   8.953   3.254
 2143WAT      O 6670   8.271   7.405   5.440
 2143WAT     H1 6671   8.230   7.494   5.459
 2143WAT     H2 6672   8.338   7.415   5.367
 2144WAT      O 6673   7.047   8.937   7.365
 2144WAT     H1 6674   6.960   8.924   7.413
 2144WAT     H2 6675   7.029   8.971   7.273
 2145WAT      O 6676   7.540   8.213   9.307
 2145WAT     H1 6677   7.548   8.288   9.373
 2145WAT     H2 6678   7.609   8.224   9.235
 2146WAT      O 6679   2.634   4.107   0.754
 2146WAT     H1 6680   2.570   4.181   0.731
 2146WAT     H2 6681   2.712   4.145   0.803
 2147WAT      O 6682   4.381   4.327   0.541
 2147WAT     H1 6683   4.397   4.374   0.628
 2147WAT     H2 6684   4.288   4.289   0.540
 2148WAT      O 6685   0.690   7.804   4.607
 2148WAT     H1 6686   0.717   7.898   4.586
 2148WAT     H2 6687   0.625   7.772   4.538
 2149WAT      O 6688   5.047   3.482   8.180
 2149WAT     H1 6689   5.079   3.511   8.270
 2149WAT     H2 6690   4.948   3.468   8.183
 2150WAT      O 6691   4.711   3.553   9.017
 2150WAT     H1 6692   4.646   3.478   9.020
 2150WAT     H2 6693   4.670   3.635   9.058
 2151WAT      O 6694   8.642   4.552   9.313
 2151WAT     H1 6695   8.738   4.574   9.295
 2151WAT     H2 6696   8.619   4.574   9.408
 2152WAT      O 6697   6.359   1.648   8.337
 2152WAT     H1 6698   6.410   1.729   8.365
 2152WAT     H2 6699   6.261   1.668   8.340
 2153WAT      O 6700   6.079   9.013   2.164
 2153WAT     H1 6701   6.048   9.035   2.072
 2153WAT     H2 6702   6.137   9.086   2.199
 2154WAT      O 6703   3.201   2.418   7.976
 2154WAT     H1 6704   3.136   2.494   7.986
 2154WAT     H2 6705   3.284   2.450   7.931
 2155WAT      O 6706   7.690   0.619   6.695
 2155WAT     H1 6707   7.596   0.595   6.722
 2155WAT     H2 6708   7.754   0.554   6.735
 2156WAT      O 6709   4.927   5.683   9.025
 2156WAT     H1 6710   4.840   5.731   9.028
 2156WAT     H2 6711   4.955   5.670   8.930
 2157WAT      O 6712   4.573   7.032   3.501
 2157WAT     H1 6713   4.631   7.035   3.419
 2157WAT     H2 6714   4.523   7.118   3.510
 2158WAT      O 6715   0.056   5.817   6.778
 2158WAT     H1 6716   0.004   5.733   6.797
 2158WAT     H2 6717   0.031   5.887   6.845
 2159WAT      O 6718   0.131   5.616   8.793
 2159WAT     H1 6719   0.117   5.611   8.694
 2159WAT     H2 6720   0.090   5.536   8.836
 2160WAT      O 6721   3.282   4.351   8.414
 2160WAT     H1 6722   3.271   4.283   8.487
 2160WAT     H2 6723   3.372   4.395   8.422
 2161WAT      O 6724   2.915   8.242   0.678
 2161WAT     H1 6725   2.846   8.301   0.721
 2161WAT     H2 6726   2.930   8.271   0.584
 2162WAT      O 6727   7.671   6.091   5.222
 2162WAT     H1 6728   7.746   6.102   5.288
 2162WAT     H2 6729   7.705   6.110   5.130
 2163WAT      O 6730   0.705   8.999   4.318
 2163WAT     H1 6731   0.646   8.926   4.353
 2163WAT     H2 6732   0.743   9.051   4.395
 2164WAT      O 6733   4.226   0.394   8.206
 2164WAT     H1 6734   4.188   0.452   8.134
 2164WAT     H2 6735   4.259   0.308   8.166
 2165WAT      O 6736   0.915   8.451   3.615
 2165WAT     H1 6737   0.843   8.384   3.599
 2165WAT     H2 6738   0.942   8.450   3.711
 2166WAT      O 6739   4.107   4.224   1.134
 2166WAT     H1 6740   4.133   4.140   1.183
 2166WAT     H2 6741   4.019   4.209   1.088
 2167WAT      O 6742   0.506   3.012   4.542
 2167WAT     H1 6743   0.483   3.083   4.475
 2167WAT     H2 6744   0.434   2.943   4.542
 2168WAT      O 6745   2.608   3.608   9.009
 2168WAT     H1 6746   2.601   3.591   8.911
 2168WAT     H2 6747   2.705   3.619   9.034
 2169WAT      O 6748   1.865   4.854   4.316
 2169WAT     H1 6749   1.930   4.898   4.379
 2169WAT     H2 6750   1.849   4.914   4.238
 2170WAT      O 6751   2.841   0.850   9.182
 2170WAT     H1 6752   2.828   0.782   9.110
 2170WAT     H2 6753   2.752   0.877   9.219
 2171WAT      O 6754   4.956   2.292   0.712
 2171WAT     H1 6755   5.008   2.311   0.629
 2171WAT     H2 6756   5.003   2.222   0.765
 2172WAT      O 6757   1.406   4.789   5.874
 2172WAT     H1 6758   1.355   4.819   5.793
 2172WAT     H2 6759   1.459   4.707   5.852
 2173WAT      O 6760   8.376   9.123   7.259
 2173WAT     H1 6761   8.413   9.157   7.345
 2173WAT     H2 6762   8.435   9.050   7.224
 2174WAT      O 6763   7.520   5.654   7.152
 2174WAT     H1 6764   7.471   5.709   7.218
 2174WAT     H2 6765   7.597   5.706   7.115
 2175WAT      O 6766   6.823   2.235   1.517
 2175WAT     H1 6767   6.867   2.324   1.531
 2175WAT     H2 6768   6.859   2.169   1.584
 2176WAT      O 6769   7.490   6.809   2.241
 2176WAT     H1 6770   7.392   6.793   2.239
 2176WAT     H2 6771   7.512   6.893   2.192
 2177WAT      O 6772   2.034   6.174   2.870
 2177WAT     H1 6773   2.038   6.259   2.923
 2177WAT     H2 6774   1.953   6.122   2.896
 2178WAT      O 6775   4.538   6.835   5.274
 2178WAT     H1 6776   4.584   6.817   5.187
 2178WAT     H2 6777   4.538   6.752   5.330
 2179WAT      O 6778   3.989   2.918   6.579
 2179WAT     H1 6779   3.907   2.937   6.525
 2179WAT     H2 6780   3.981   2.826   6.619
 2180WAT      O 6781   1.801   2.532   5.407
 2180WAT     H1 6782   1.848   2.588   5.339
 2180WAT     H2 6783   1.798   2.580   5.494
 2181WAT      O 6784   1.971   2.489   4.377
 2181WAT     H1 6785   1.945   2.452   4.287
 2181WAT     H2 6786   2.066   2.463   4.397
 2182WAT      O 6787   6.153   7.714   2.483
 2182WAT     H1 6788   6.184   7.632   2.531
 2182WAT     H2 6789   6.114   7.778   2.549
 2183WAT      O 6790   3.160   6.014   5.147
 2183WAT     H1 6791   3.142   6.080   5.220
 2183WAT     H2 6792   3.240   5.959   5.171
 2184WAT      O 6793   1.643   2.746   9.823
 2184WAT     H1 6794   1.718   2.688   9.854
 2184WAT     H2 6795   1.599   2.703   9.743
 2185WAT      O 6796   8.800   9.509   3.164
 2185WAT     H1 6797   8.798   9.474   3.258
 2185WAT     H2 6798   8.895   9.516   3.134
 2186WAT      O 6799   3.660   2.234   6.122
 2186WAT     H1 6800   3.601   2.207   6.198
 2186WAT     H2 6801   3.611   2.224   6.036
 2187WAT      O 6802   2.026   6.851   7.129
 2187WAT     H1 6803   2.123   6.864   7.149
 2187WAT     H2 6804   1.989   6.781   7.190
 2188WAT      O 6805   1.478   5.760   0.959
 2188WAT     H1 6806   1.469   5.737   1.056
 2188WAT     H2 6807   1.432   5.690   0.904
 2189WAT      O 6808   7.165   8.391   8.295
 2189WAT     H1 6809   7.144   8.409   8.199
 2189WAT     H2 6810   7.162   8.477   8.346
 2190WAT      O 6811   9.374   6.428   4.461
 2190WAT     H1 6812   9.290   6.417   4.515
 2190WAT     H2 6813   9.392   6.343   4.410
 2191WAT      O 6814   1.552   9.203   8.649
 2191WAT     H1 6815   1.476   9.257   8.614
 2191WAT     H2 6816   1.572   9.230   8.743
 2192WAT      O 6817   3.872   4.143   0.697
 2192WAT     H1 6818   3.889   4.046   0.685
 2192WAT     H2 6819   3.946   4.195   0.655
 2193WAT      O 6820   6.278   8.768   9.885
 2193WAT     H1 6821   6.305   8.672   9.880
 2193WAT     H2 6822   6.178   8.775   9.892
 2194WAT      O 6823   5.939   5.713   8.890
 2194WAT     H1 6824   5.885   5.793   8.917
 2194WAT     H2 6825   5.921   5.638   8.955
 2195WAT      O 6826   4.790   0.646   8.790
 2195WAT     H1 6827   4.876   0.697   8.798
 2195WAT     H2 6828   4.783   0.606   8.699
 2196WAT      O 6829   6.028   3.369   6.658
 2196WAT     H1 6830   6.123   3.347   6.678
 2196WAT     H2 6831   6.014   3.468   6.667
 2197WAT      O 6832   6.105   4.799   2.753
 2197WAT     H1 6833   6.100   4.705   2.720
 2197WAT     H2 6834   6.108   4.799   2.853
 2198WAT      O 6835   9.241   5.709   1.467
 2198WAT     H1 6836   9.200   5.792   1.428
 2198WAT     H2 6837   9.275   5.651   1.393
 2199WAT      O 6838   7.691   1.676   6.169
 2199WAT     H1 6839   7.644   1.764   6.180
 2199WAT     H2 6840   7.671   1.618   6.248
 2200WAT      O 6841   8.038   5.717   0.261
 2200WAT     H1 6842   8.019   5.623   0.290
 2200WAT     H2 6843   8.130   5.721   0.221
 2201WAT      O 6844   9.377   7.386   5.735
 2201WAT     H1 6845   9.313   7.316   5.769
 2201WAT     H2 6846   9.357   7.404   5.639
 2202WAT      O 6847   9.888   9.018   0.047
 2202WAT     H1 6848   9.802   9.069   0.051
 2202WAT     H2 6849   9.913   8.990   0.139
 2203WAT      O 6850   5.729   0.549   0.696
 2203WAT     H1 6851   5.741   0.526   0.792
 2203WAT     H2 6852   5.632   0.567   0.678
 2204WAT      O 6853   3.717   7.913   5.360
 2204WAT     H1 6854   3.736   7.824   5.401
 2204WAT     H2 6855   3.641   7.957   5.408
 2205WAT      O 6856   5.823   1.082   9.140
 2205WAT     H1 6857   5.840   1.180   9.152
 2205WAT     H2 6858   5.726   1.063   9.155
 2206WAT      O 6859   9.261   5.877   0.467
 2206WAT     H1 6860   9.171   5.876   0.424
 2206WAT     H2 6861   9.309   5.961   0.443
 2207WAT      O 6862   2.694   6.393   3.275
 2207WAT     H1 6863   2.657   6.483   3.297
 2207WAT     H2 6864   2.628   6.322   3.300
 2208WAT      O 6865   9.613   3.727   1.655
 2208WAT     H1 6866   9.542   3.676   1.704
 2208WAT     H2 6867   9.573   3.807   1.610
 2209WAT      O 6868   3.432   9.484   3.210
 2209WAT     H1 6869   3.505   9.420   3.234
 2209WAT     H2 6870   3.386   9.516   3.294
 2210WAT      O 6871   9.300   6.754   9.797
 2210WAT     H1 6872   9.373   6.776   9.732
 2210WAT     H2 6873   9.341   6.723   9.883
 2211WAT      O 6874   3.191   0.420   8.875
 2211WAT     H1 6875   3.092   0.417   8.870
 2211WAT     H2 6876   3.219   0.463   8.961
 2212WAT      O 6877   0.516   3.326   3.754
 2212WAT     H1 6878   0.598   3.379   3.729
 2212WAT     H2 6879   0.468   3.298   3.672
 2213WAT      O 6880   9.813   4.230   7.691
 2213WAT     H1 6881   9.894   4.201   7.742
 2213WAT     H2 6882   9.744   4.158   7.694
 2214WAT      O 6883   7.516   4.648   6.052
 2214WAT     H1 6884   7.482   4.737   6.022
 2214WAT     H2 6885   7.523   4.587   5.972
 2215WAT      O 6886   3.476   0.140   8.124
 2215WAT     H1 6887   3.538   0.144   8.046
 2215WAT     H2 6888   3.494   0.216   8.186
 2216WAT      O 6889   6.237   4.133   1.770
 2216WAT     H1 6890   6.302   4.187   1.718
 2216WAT     H2 6891   6.276   4.043   1.789
 2217WAT      O 6892   7.225   6.307   9.358
 2217WAT     H1 6893   7.241   6.399   9.323
 2217WAT     H2 6894   7.136   6.304   9.403
 2218WAT      O 6895   4.129   2.975   2.216
 2218WAT     H1 6896   4.119   2.980   2.316
 2218WAT     H2 6897   4.046   3.012   2.173
 2219WAT      O 6898   9.241   3.257   9.726
 2219WAT     H1 6899   9.244   3.317   9.806
 2219WAT     H2 6900   9.146   3.238   9.701
 2220WAT      O 6901   9.865   9.751   8.263
 2220WAT     H1 6902   9.888   9.677   8.326
 2220WAT     H2 6903   9.838   9.712   8.175
 2221WAT      O 6904   2.450   8.195   6.421
 2221WAT     H1 6905   2.532   8.168   6.471
 2221WAT     H2 6906   2.452   8.294   6.404
 2222WAT      O 6907   7.767   4.899   8.010
 2222WAT     H1 6908   7.861   4.901   7.974
 2222WAT     H2 6909   7.765   4.946   8.098
 2223WAT      O 6910   0.641   3.921   5.462
 2223WAT     H1 6911   0.698   4.001   5.447
 2223WAT     H2 6912   0.621   3.877   5.375
 2224WAT      O 6913   0.304   7.828   3.660
 2224WAT     H1 6914   0.311   7.750   3.598
 2224WAT     H2 6915   0.264   7.906   3.612
 2225WAT      O 6916   2.153   3.134   3.015
 2225WAT     H1 6917   2.195   3.053   3.056
 2225WAT     H2 6918   2.080   3.168   3.076
 2226WAT      O 6919   5.010   3.506   4.145
 2226WAT     H1 6920   4.915   3.479   4.129
 2226WAT     H2 6921   5.022   3.603   4.122
 2227WAT      O 6922   4.992   1.388   1.748
 2227WAT     H1 6923   5.012   1.303   1.699
 2227WAT     H2 6924   4.958   1.366   1.839
 2228WAT      O 6925   8.047   7.178   6.756
 2228WAT     H1 6926   8.008   7.166   6.665
 2228WAT     H2 6927   8.036   7.273   6.785
 2229WAT      O 6928   9.488   1.600   0.720
 2229WAT     H1 6929   9.519   1.540   0.646
 2229WAT     H2 6930   9.521   1.564   0.807
 2230WAT      O 6931   2.542   8.072   6.135
 2230WAT     H1 6932   2.474   8.050   6.065
 2230WAT     H2 6933   2.553   8.171   6.140
 2231WAT      O 6934   4.519   4.258   2.390
 2231WAT     H1 6935   4.617   4.257   2.370
 2231WAT     H2 6936   4.484   4.165   2.389
 2232WAT      O 6937   4.609   8.733   1.272
 2232WAT     H1 6938   4.677   8.805   1.271
 2232WAT     H2 6939   4.530   8.762   1.327
 2233WAT      O 6940   7.544   1.922   8.864
 2233WAT     H1 6941   7.638   1.951   8.880
 2233WAT     H2 6942   7.538   1.876   8.775
 2234WAT      O 6943   9.014   9.282   0.396
 2234WAT     H1 6944   9.114   9.278   0.392
 2234WAT     H2 6945   8.976   9.234   0.316
 2235WAT      O 6946   0.752   6.571   1.610
 2235WAT     H1 6947   0.805   6.556   1.526
 2235WAT     H2 6948   0.696   6.652   1.600
 2236WAT      O 6949   9.270   4.847   8.157
 2236WAT     H1 6950   9.218   4.857   8.073
 2236WAT     H2 6951   9.360   4.888   8.146
 2237WAT      O 6952   6.470   3.252   3.563
 2237WAT     H1 6953   6.552   3.195   3.566
 2237WAT     H2 6954   6.468   3.312   3.643
 2238WAT      O 6955   2.760   5.238   5.092
 2238WAT     H1 6956   2.700   5.205   5.165
 2238WAT     H2 6957   2.849   5.193   5.098
 2239WAT      O 6958   5.069   7.821   5.906
 2239WAT     H1 6959   5.100   7.885   5.836
 2239WAT     H2 6960   4.971   7.835   5.923
 2240WAT      O 6961   5.436   0.378   0.423
 2240WAT     H1 6962   5.468   0.309   0.488
 2240WAT     H2 6963   5.503   0.452   0.417
 2241WAT      O 6964   4.691   8.080   2.847
 2241WAT     H1 6965   4.685   8.017   2.925
 2241WAT     H2 6966   4.787   8.101   2.830
 2242WAT      O 6967   1.639   1.103   5.764
 2242WAT     H1 6968   1.655   1.186   5.817
 2242WAT     H2 6969   1.578   1.043   5.815
 2243WAT      O 6970   3.415   2.535   1.865
 2243WAT     H1 6971   3.459   2.619   1.899
 2243WAT     H2 6972   3.451   2.514   1.775
 2244WAT      O 6973   1.765   7.944   4.384
 2244WAT     H1 6974   1.792   8.032   4.346
 2244WAT     H2 6975   1.697   7.902   4.324
 2245WAT      O 6976   8.440   2.608   9.487
 2245WAT     H1 6977   8.425   2.706   9.500
 2245WAT     H2 6978   8.516   2.594   9.423
 2246WAT      O 6979   6.472   0.775   7.575
 2246WAT     H1 6980   6.547   0.838   7.594
 2246WAT     H2 6981   6.424   0.753   7.659
 2247WAT      O 6982   9.698   0.278   5.723
 2247WAT     H1 6983   9.663   0.357   5.773
 2247WAT     H2 6984   9.782   0.302   5.676
 2248WAT      O 6985   6.193   4.245   7.343
 2248WAT     H1 6986   6.113   4.297   7.372
 2248WAT     H2 6987   6.240   4.209   7.424
 2249WAT      O 6988   6.437   6.439   8.675
 2249WAT     H1 6989   6.363   6.499   8.708
 2249WAT     H2 6990   6.503   6.494   8.624
 2250WAT      O 6991   8.383   1.481   5.242
 2250WAT     H1 6992   8.378   1.576   5.213
 2250WAT     H2 6993   8.450   1.472   5.316
 2251WAT      O 6994   8.261   7.474   0.520
 2251WAT     H1 6995   8.250   7.483   0.619
 2251WAT     H2 6996   8.210   7.547   0.474
 2252WAT      O 6997   2.813   8.619   5.392
 2252WAT     H1 6998   2.835   8.551   5.462
 2252WAT     H2 6999   2.723   8.659   5.411
 2253WAT      O 7000   4.401   1.133   1.735
 2253WAT     H1 7001   4.322   1.082   1.767
 2253WAT     H2 7002   4.483   1.075   1.740
 2254WAT      O 7003   4.745   0.897   6.189
 2254WAT     H1 7004   4.782   0.906   6.097
 2254WAT     H2 7005   4.763   0.981   6.241
 2255WAT      O 7006   2.062   5.294   9.446
 2255WAT     H1 7007   2.082   5.355   9.522
 2255WAT     H2 7008   2.033   5.205   9.481
 2256WAT      O 7009   9.780   7.596   9.024
 2256WAT     H1 7010   9.840   7.615   9.101
 2256WAT     H2 7011   9.710   7.668   9.018
 2257WAT      O 7012   9.518   0.804   1.353
 2257WAT     H1 7013   9.433   0.823   1.302
 2257WAT     H2 7014   9.557   0.890   1.385
 2258WAT      O 7015   5.730   0.338   4.067
 2258WAT     H1 7016   5.822   0.300   4.072
 2258WAT     H2 7017   5.727   0.408   3.995
 2259WAT      O 7018   1.015   4.910   2.012
 2259WAT     H1 7019   1.088   4.844   1.997
 2259WAT     H2 7020   1.037   4.995   1.964
 2260WAT      O 7021   2.190   8.897   7.050
 2260WAT     H1 7022   2.207   8.824   6.983
 2260WAT     H2 7023   2.277   8.941   7.073
 2261WAT      O 7024   5.585   2.163   5.069
 2261WAT     H1 7025   5.596   2.163   4.970
 2261WAT     H2 7026   5.674   2.180   5.112
 2262WAT      O 7027   5.629   7.516   3.644
 2262WAT     H1 7028   5.633   7.579   3.567
 2262WAT     H2 7029   5.547   7.459   3.637
 2263WAT      O 7030   2.557   8.516   9.788
 2263WAT     H1 7031   2.508   8.446   9.839
 2263WAT     H2 7032   2.562   8.490   9.691
 2264WAT      O 7033   2.201   2.679   2.592
 2264WAT     H1 7034   2.192   2.777   2.604
 2264WAT     H2 7035   2.136   2.631   2.650
 2265WAT      O 7036   2.795   0.691   1.505
 2265WAT     H1 7037   2.710   0.697   1.453
 2265WAT     H2 7038   2.777   0.648   1.594
 2266WAT      O 7039   6.462   9.675   1.083
 2266WAT     H1 7040   6.492   9.767   1.108
 2266WAT     H2 7041   6.435   9.625   1.165
 2267WAT      O 7042   8.914   6.119   8.030
 2267WAT     H1 7043   8.971   6.036   8.025
 2267WAT     H2 7044   8.819   6.094   8.048
 2268WAT      O 7045   5.511   6.807   7.118
 2268WAT     H1 7046   5.481   6.844   7.206
 2268WAT     H2 7047   5.435   6.760   7.074
 2269WAT      O 7048   9.188   9.711   0.333
 2269WAT     H1 7049   9.194   9.636   0.268
 2269WAT     H2 7050   9.122   9.688   0.405
 2270WAT      O 7051   6.053   2.816   8.148
 2270WAT     H1 7052   6.092   2.736   8.194
 2270WAT     H2 7053   6.126   2.867   8.103
 2271WAT      O 7054   3.154   2.323   5.825
 2271WAT     H1 7055   3.227   2.349   5.761
 2271WAT     H2 7056   3.153   2.224   5.834
 2272WAT      O 7057   3.945   1.922   8.556
 2272WAT     H1 7058   4.029   1.936   8.608
 2272WAT     H2 7059   3.903   1.835   8.583
 2273WAT      O 7060   8.476   3.997   9.415
 2273WAT     H1 7061   8.560   4.041   9.384
 2273WAT     H2 7062   8.397   4.046   9.377
 2274WAT      O 7063   1.239   0.859   6.822
 2274WAT     H1 7064   1.312   0.926   6.829
 2274WAT     H2 7065   1.220   0.821   6.913
 2275WAT      O 7066   6.659   2.548   1.301
 2275WAT     H1 7067   6.651   2.521   1.206
 2275WAT     H2 7068   6.740   2.606   1.313
 2276WAT      O 7069   9.648   5.767   5.870
 2276WAT     H1 7070   9.606   5.854   5.845
 2276WAT     H2 7071   9.619   5.741   5.962
 2277WAT      O 7072   1.859   4.495   6.816
 2277WAT     H1 7073   1.819   4.580   6.781
 2277WAT     H2 7074   1.958   4.499   6.810
 2278WAT      O 7075   3.669   7.857   5.091
 2278WAT     H1 7076   3.654   7.948   5.052
 2278WAT     H2 7077   3.702   7.866   5.185
 2279WAT      O 7078   1.865   1.423   8.116
 2279WAT     H1 7079   1.867   1.324   8.104
 2279WAT     H2 7080   1.928   1.465   8.050
 2280WAT      O 7081   3.413   3.084   2.635
 2280WAT     H1 7082   3.441   3.028   2.713
 2280WAT     H2 7083   3.313   3.080   2.626
 2281WAT      O 7084   9.872   7.381   0.051
 2281WAT     H1 7085   9.794   7.423   0.099
 2281WAT     H2 7086   9.873   7.283   0.071
 2282WAT      O 7087   6.559   2.435   6.133
 2282WAT     H1 7088   6.482   2.448   6.071
 2282WAT     H2 7089   6.525   2.404   6.222
 2283WAT      O 7090   5.247   4.627   5.353
 2283WAT     H1 7091   5.267   4.702   5.416
 2283WAT     H2 7092   5.259   4.658   5.259
 2284WAT      O 7093   0.039   3.122   6.546
 2284WAT     H1 7094   0.017   3.053   6.477
 2284WAT     H2 7095  -0.045   3.151   6.591
 2285WAT      O 7096   1.843   6.378   6.601
 2285WAT     H1 7097   1.909   6.361   6.675
 2285WAT     H2 7098   1.773   6.307   6.603
 2286WAT      O 7099   9.764   3.978   3.838
 2286WAT     H1 7100   9.749   3.900   3.900
 2286WAT     H2 7101   9.685   3.987   3.778
 2287WAT      O 7102   5.691   6.319   2.140
 2287WAT     H1 7103   5.752   6.272   2.203
 2287WAT     H2 7104   5.722   6.305   2.046
 2288WAT      O 7105   5.983   2.285   4.622
 2288WAT     H1 7106   5.997   2.371   4.671
 2288WAT     H2 7107   5.901   2.292   4.565
 2289WAT      O 7108   5.667   4.619   1.856
 2289WAT     H1 7109   5.618   4.645   1.773
 2289WAT     H2 7110   5.750   4.569   1.833
 2290WAT      O 7111   1.386   6.560   5.173
 2290WAT     H1 7112   1.365   6.586   5.267
 2290WAT     H2 7113   1.393   6.460   5.166
 2291WAT      O 7114   8.796   3.415   0.989
 2291WAT     H1 7115   8.710   3.370   0.964
 2291WAT     H2 7116   8.808   3.412   1.088
 2292WAT      O 7117   6.677   1.547   1.571
 2292WAT     H1 7118   6.586   1.535   1.531
 2292WAT     H2 7119   6.695   1.644   1.586
 2293WAT      O 7120   3.021   2.049   9.524
 2293WAT     H1 7121   3.116   2.056   9.495
 2293WAT     H2 7122   2.962   2.081   9.450
 2294WAT      O 7123   0.317   3.543   5.104
 2294WAT     H1 7124   0.273   3.622   5.061
 2294WAT     H2 7125   0.300   3.462   5.048
 2295WAT      O 7126   2.564   0.963   6.393
 2295WAT     H1 7127   2.507   1.044   6.381
 2295WAT     H2 7128   2.564   0.909   6.309
 2296WAT      O 7129   2.377   2.862   8.145
 2296WAT     H1 7130   2.322   2.922   8.086
 2296WAT     H2 7131   2.317   2.816   8.210
 2297WAT      O 7132   7.876   3.298   5.559
 2297WAT     H1 7133   7.857   3.227   5.627
 2297WAT     H2 7134   7.892   3.256   5.470
 2298WAT      O 7135   3.088   6.869   5.630
 2298WAT     H1 7136   3.187   6.868   5.644
 2298WAT     H2 7137   3.044   6.814   5.701
 2299WAT      O 7138   4.434   7.450   8.933
 2299WAT     H1 7139   4.528   7.427   8.907
 2299WAT     H2 7140   4.393   7.510   8.864
 2300WAT      O 7141   4.168   0.991   1.833
 2300WAT     H1 7142   4.160   1.062   1.903
 2300WAT     H2 7143   4.080   0.982   1.785
 2301WAT      O 7144   7.739   4.047   9.149
 2301WAT     H1 7145   7.741   3.947   9.141
 2301WAT     H2 7146   7.734   4.088   9.058
 2302WAT      O 7147   8.200   0.477   1.373
 2302WAT     H1 7148   8.125   0.444   1.430
 2302WAT     H2 7149   8.286   0.438   1.404
 2303WAT      O 7150   6.922   4.273   3.265
 2303WAT     H1 7151   7.005   4.231   3.301
 2303WAT     H2 7152   6.877   4.210   3.202
 2304WAT      O 7153   7.508   3.563   7.453
 2304WAT     H1 7154   7.433   3.603   7.505
 2304WAT     H2 7155   7.593   3.573   7.505
 2305WAT      O 7156   2.049   8.882   1.351
 2305WAT     H1 7157   2.149   8.893   1.355
 2305WAT     H2 7158   2.014   8.866   1.443
 2306WAT      O 7159   8.576   1.219   4.219
 2306WAT     H1 7160   8.653   1.188   4.275
 2306WAT     H2 7161   8.493   1.221   4.275
 2307WAT      O 7162   3.447   1.660   5.050
 2307WAT     H1 7163   3.542   1.670   5.080
 2307WAT     H2 7164   3.444   1.658   4.950
 2308WAT      O 7165   1.279   3.931   0.220
 2308WAT     H1 7166   1.365   3.881   0.221
 2308WAT     H2 7167   1.230   3.916   0.305
 2309WAT      O 7168   1.459   9.790   6.699
 2309WAT     H1 7169   1.449   9.703   6.650
 2309WAT     H2 7170   1.531   9.845   6.656
 2310WAT      O 7171   3.364   8.560   0.120
 2310WAT     H1 7172   3.447   8.585   0.169
 2310WAT     H2 7173   3.342   8.631   0.052
 2311WAT      O 7174   1.615   2.573   8.974
 2311WAT     H1 7175   1.669   2.489   8.984
 2311WAT     H2 7176   1.668   2.641   8.922
 2312WAT      O 7177   2.691   5.056   4.389
 2312WAT     H1 7178   2.596   5.025   4.390
 2312WAT     H2 7179   2.703   5.124   4.316
 2313WAT      O 7180   4.048   5.648   8.036
 2313WAT     H1 7181   4.076   5.743   8.047
 2313WAT     H2 7182   4.129   5.591   8.019
 2314WAT      O 7183   2.747   5.411   7.513
 2314WAT     H1 7184   2.703   5.412   7.603
 2314WAT     H2 7185   2.677   5.409   7.441
 2315WAT      O 7186   8.674   5.887   7.324
 2315WAT     H1 7187   8.595   5.826   7.336
 2315WAT     H2 7188   8.700   5.926   7.412
 2316WAT      O 7189   5.340   6.111   5.711
 2316WAT     H1 7190   5.438   6.111   5.688
 2316WAT     H2 7191   5.299   6.195   5.677
 2317WAT      O 7192   0.217   2.985   8.904
 2317WAT     H1 7193   0.207   3.070   8.955
 2317WAT     H2 7194   0.314   2.963   8.892
 2318WAT      O 7195   1.665   0.911   8.199
 2318WAT     H1 7196   1.730   0.917   8.123
 2318WAT     H2 7197   1.716   0.897   8.284
 2319WAT      O 7198   2.479   7.548   6.139
 2319WAT     H1 7199   2.457   7.614   6.066
 2319WAT     H2 7200   2.396   7.505   6.172
 2320WAT      O 7201   0.498   8.430   4.926
 2320WAT     H1 7202   0.410   8.477   4.928
 2320WAT     H2 7203   0.485   8.336   4.895
 2321WAT      O 7204   7.664   9.327   5.248
 2321WAT     H1 7205   7.656   9.284   5.338
 2321WAT     H2 7206   7.727   9.404   5.253
 2322WAT      O 7207   0.480   1.857   9.573
 2322WAT     H1 7208   0.398   1.849   9.516
 2322WAT     H2 7209   0.556   1.808   9.531
 2323WAT      O 7210   1.511   0.037   1.700
 2323WAT     H1 7211   1.481   0.000   1.788
 2323WAT     H2 7212   1.521  -0.038   1.634
 2324WAT      O 7213   0.449   8.463   8.503
 2324WAT     H1 7214   0.481   8.558   8.494
 2324WAT     H2 7215   0.451   8.419   8.413
 2325WAT      O 7216   9.733   9.843   6.144
 2325WAT     H1 7217   9.730   9.871   6.048
 2325WAT     H2 7218   9.653   9.786   6.164
 2326WAT      O 7219   1.606   2.628   2.933
 2326WAT     H1 7220   1.645   2.671   2.851
 2326WAT     H2 7221   1.653   2.542   2.952
 2327WAT      O 7222   1.668   5.608   8.105
 2327WAT     H1 7223   1.645   5.603   8.202
 2327WAT     H2 7224   1.620   5.685   8.064
 2328WAT      O 7225   9.624   8.030   7.338
 2328WAT     H1 7226   9.618   7.979   7.252
 2328WAT     H2 7227   9.670   7.974   7.407
 2329WAT      O 7228   9.718   5.790   5.500
 2329WAT     H1 7229   9.745   5.694   5.502
 2329WAT     H2 7230   9.779   5.840   5.438
 2330WAT      O 7231   2.016   5.182   8.709
 2330WAT     H1 7232   2.085   5.155   8.776
 2330WAT     H2 7233   2.060   5.218   8.627
 2331WAT      O 7234   4.570   6.898   3.984
 2331WAT     H1 7235   4.591   6.801   3.989
 2331WAT     H2 7236   4.473   6.910   3.963
 2332WAT      O 7237   0.938   1.085   5.616
 2332WAT     H1 7238   1.027   1.117   5.649
 2332WAT     H2 7239   0.865   1.123   5.672
 2333WAT      O 7240   9.676   8.157   9.122
 2333WAT     H1 7241   9.699   8.215   9.200
 2333WAT     H2 7242   9.699   8.204   9.037
 2334WAT      O 7243   2.680   1.406   4.489
 2334WAT     H1 7244   2.764   1.446   4.526
 2334WAT     H2 7245   2.704   1.342   4.416
 2335WAT      O 7246   3.779   4.138   0.386
 2335WAT     H1 7247   3.748   4.214   0.330
 2335WAT     H2 7248   3.878   4.143   0.397
 2336WAT      O 7249   2.984   0.108   9.847
 2336WAT     H1 7250   2.896   0.148   9.872
 2336WAT     H2 7251   2.994   0.018   9.889
 2337WAT      O 7252   8.418   9.824   2.264
 2337WAT     H1 7253   8.460   9.869   2.343
 2337WAT     H2 7254   8.467   9.739   2.244
 2338WAT      O 7255   7.216   0.057   8.529
 2338WAT     H1 7256   7.181  -0.036   8.526
 2338WAT     H2 7257   7.233   0.084   8.624
 2339WAT      O 7258   0.839   0.853   3.607
 2339WAT     H1 7259   0.751   0.809   3.626
 2339WAT     H2 7260   0.858   0.848   3.508
 2340WAT      O 7261   7.788   7.135   4.677
 2340WAT     H1 7262   7.817   7.060   4.736
 2340WAT     H2 7263   7.814   7.222   4.718
 2341WAT      O 7264   0.576   2.126   2.181
 2341WAT     H1 7265   0.496   2.096   2.233
 2341WAT     H2 7266   0.552   2.134   2.084
 2342WAT      O 7267   5.499   6.970   6.746
 2342WAT     H1 7268   5.441   6.896   6.712
 2342WAT     H2 7269   5.570   6.990   6.679
 2343WAT      O 7270   0.237   6.903   9.396
 2343WAT     H1 7271   0.324   6.948   9.418
 2343WAT     H2 7272   0.172   6.920   9.470
 2344WAT      O 7273   4.812   1.936   2.128
 2344WAT     H1 7274   4.822   1.860   2.063
 2344WAT     H2 7275   4.898   1.950   2.177
 2345WAT      O 7276   5.625   0.646   6.272
 2345WAT     H1 7277   5.603   0.549   6.260
 2345WAT     H2 7278   5.613   0.671   6.368
 2346WAT      O 7279   1.045   0.047   4.738
 2346WAT     H1 7280   0.966   0.020   4.793
 2346WAT     H2 7281   1.113  -0.026   4.739
 2347WAT      O 7282   3.252   1.823   4.282
 2347WAT     H1 7283   3.239   1.726   4.260
 2347WAT     H2 7284   3.186   1.850   4.353
 2348WAT      O 7285   5.943   2.800   8.932
 2348WAT     H1 7286   5.938   2.709   8.974
 2348WAT     H2 7287   5.912   2.794   8.837
 2349WAT      O 7288   8.930   4.210   8.612
 2349WAT     H1 7289   8.939   4.216   8.712
 2349WAT     H2 7290   8.862   4.140   8.589
 2350WAT      O 7291   8.175   8.677   6.096
 2350WAT     H1 7292   8.271   8.655   6.082
 2350WAT     H2 7293   8.136   8.713   6.011
 2351WAT      O 7294   9.622   2.285   2.196
 2351WAT     H1 7295   9.718   2.279   2.167
 2351WAT     H2 7296   9.617   2.290   2.295
 2352WAT      O 7297   0.680   0.227   8.254
 2352WAT     H1 7298   0.668   0.193   8.347
 2352WAT     H2 7299   0.778   0.244   8.237
 2353WAT      O 7300   7.412   4.309   1.538
 2353WAT     H1 7301   7.342   4.245   1.507
 2353WAT     H2 7302   7.411   4.390   1.480
 2354WAT      O 7303   0.541   9.430   8.170
 2354WAT     H1 7304   0.489   9.418   8.085
 2354WAT     H2 7305   0.481   9.469   8.240
 2355WAT      O 7306   4.826   2.883   0.096
 2355WAT     H1 7307   4.797   2.933   0.177
 2355WAT     H2 7308   4.923   2.860   0.105
 2356WAT      O 7309   6.108   5.693   3.272
 2356WAT     H1 7310   6.062   5.779   3.294
 2356WAT     H2 7311   6.041   5.619   3.267
 2357WAT      O 7312   9.446   6.516   9.591
 2357WAT     H1 7313   9.523   6.479   9.644
 2357WAT     H2 7314   9.457   6.615   9.580
 2358WAT      O 7315   3.677   3.178   1.019
 2358WAT     H1 7316   3.687   3.266   0.972
 2358WAT     H2 7317   3.634   3.192   1.108
 2359WAT      O 7318   1.810   2.259   5.628
 2359WAT     H1 7319   1.743   2.190   5.656
 2359WAT     H2 7320   1.819   2.259   5.529
 2360WAT      O 7321   2.893   4.213   0.778
 2360WAT     H1 7322   2.951   4.146   0.732
 2360WAT     H2 7323   2.925   4.225   0.872
 2361WAT      O 7324   2.535   7.230   8.079
 2361WAT     H1 7325   2.587   7.244   8.163
 2361WAT     H2 7326   2.450   7.182   8.099
 2362WAT      O 7327   2.084   7.500   0.280
 2362WAT     H1 7328   2.118   7.583   0.326
 2362WAT     H2 7329   2.143   7.423   0.303
 2363WAT      O 7330   6.709   7.161   6.931
 2363WAT     H1 7331   6.730   7.112   6.846
 2363WAT     H2 7332   6.793   7.181   6.980
 2364WAT      O 7333   7.825   4.982   6.217
 2364WAT     H1 7334   7.780   4.893   6.223
 2364WAT     H2 7335   7.787   5.033   6.140
 2365WAT      O 7336   9.753   3.763   3.993
 2365WAT     H1 7337   9.726   3.667   3.988
 2365WAT     H2 7338   9.847   3.769   4.026
 2366WAT      O 7339   0.826   9.228   6.859
 2366WAT     H1 7340   0.879   9.147   6.882
 2366WAT     H2 7341   0.878   9.310   6.883
 2367WAT      O 7342   8.022   8.620   9.209
 2367WAT     H1 7343   7.975   8.705   9.190
 2367WAT     H2 7344   8.119   8.629   9.185
 2368WAT      O 7345   8.369   0.226   8.529
 2368WAT     H1 7346   8.435   0.159   8.493
 2368WAT     H2 7347   8.402   0.261   8.616
 2369WAT      O 7348   7.509   2.430   5.517
 2369WAT     H1 7349   7.581   2.368   5.550
 2369WAT     H2 7350   7.444   2.448   5.592
 2370WAT      O 7351   2.638   8.297   7.135
 2370WAT     H1 7352   2.604   8.266   7.223
 2370WAT     H2 7353   2.681   8.220   7.087
 2371WAT      O 7354   5.463   5.377   9.247
 2371WAT     H1 7355   5.547   5.345   9.201
 2371WAT     H2 7356   5.441   5.316   9.322
 2372WAT      O 7357   4.126   1.798   2.241
 2372WAT     H1 7358   4.157   1.795   2.146
 2372WAT     H2 7359   4.028   1.814   2.244
 2373WAT      O 7360   7.354   8.378   2.060
 2373WAT     H1 7361   7.311   8.305   2.113
 2373WAT     H2 7362   7.429   8.340   2.005
 2374WAT      O 7363   4.524   1.966   4.154
 2374WAT     H1 7364   4.554   1.901   4.225
 2374WAT     H2 7365   4.599   1.982   4.090
 2375WAT      O 7366   0.493   9.537   3.258
 2375WAT     H1 7367   0.581   9.576   3.284
 2375WAT     H2 7368   0.423   9.609   3.259
 2376WAT      O 7369   2.368   8.972   5.153
 2376WAT     H1 7370   2.432   9.002   5.082
 2376WAT     H2 7371   2.369   8.873   5.158
 2377WAT      O 7372   8.637   7.064   3.316
 2377WAT     H1 7373   8.695   6.991   3.280
 2377WAT     H2 7374   8.551   7.067   3.265
 2378WAT      O 7375   3.241   5.454   6.961
 2378WAT     H1 7376   3.339   5.451   6.980
 2378WAT     H2 7377   3.199   5.368   6.989
 2379WAT      O 7378   4.930   5.712   3.983
 2379WAT     H1 7379   4.969   5.792   3.939
 2379WAT     H2 7380   4.980   5.630   3.954
 2380WAT      O 7381   4.660   2.052   8.964
 2380WAT     H1 7382   4.756   2.069   8.946
 2380WAT     H2 7383   4.610   2.138   8.965
 2381WAT      O 7384   4.257   2.122   5.473
 2381WAT     H1 7385   4.298   2.141   5.562
 2381WAT     H2 7386   4.293   2.035   5.438
 2382WAT      O 7387   9.837   5.973   8.509
 2382WAT     H1 7388   9.787   5.915   8.573
 2382WAT     H2 7389   9.774   6.039   8.468
 2383WAT      O 7390   0.961   2.137   9.797
 2383WAT     H1 7391   0.943   2.075   9.873
 2383WAT     H2 7392   0.926   2.228   9.820
 2384WAT      O 7393   2.568   8.737   5.444
 2384WAT     H1 7394   2.538   8.731   5.348
 2384WAT     H2 7395   2.494   8.706   5.504
 2385WAT      O 7396   3.449   7.751   6.566
 2385WAT     H1 7397   3.518   7.817   6.536
 2385WAT     H2 7398   3.453   7.670   6.507
 2386WAT      O 7399   4.981   9.143   9.438
 2386WAT     H1 7400   5.018   9.204   9.368
 2386WAT     H2 7401   4.995   9.183   9.528
 2387WAT      O 7402   3.138   4.971   7.366
 2387WAT     H1 7403   3.221   4.950   7.314
 2387WAT     H2 7404   3.074   4.894   7.359
 2388WAT      O 7405   6.519   0.544   4.168
 2388WAT     H1 7406   6.498   0.551   4.070
 2388WAT     H2 7407   6.590   0.610   4.191
 2389WAT      O 7408   6.844   7.760   0.359
 2389WAT     H1 7409   6.774   7.829   0.341
 2389WAT     H2 7410   6.809   7.670   0.334
 2390WAT      O 7411   7.331   9.837   4.804
 2390WAT     H1 7412   7.327   9.847   4.903
 2390WAT     H2 7413   7.244   9.801   4.770
 2391WAT      O 7414   7.289   6.653   2.530
 2391WAT     H1 7415   7.382   6.659   2.496
 2391WAT     H2 7416   7.228   6.622   2.456
 2392WAT      O 7417   5.729   7.246   6.689
 2392WAT     H1 7418   5.790   7.180   6.733
 2392WAT     H2 7419   5.676   7.200   6.618
 2393WAT      O 7420   0.805   7.655   9.856
 2393WAT     H1 7421   0.790   7.604   9.941
 2393WAT     H2 7422   0.866   7.732   9.875
 2394WAT      O 7423   5.135   0.198   6.856
 2394WAT     H1 7424   5.061   0.137   6.884
 2394WAT     H2 7425   5.106   0.293   6.867
 2395WAT      O 7426   2.598   3.412   6.989
 2395WAT     H1 7427   2.606   3.511   6.996
 2395WAT     H2 7428   2.565   3.389   6.897
 2396WAT      O 7429   8.549   9.246   4.124
 2396WAT     H1 7430   8.647   9.247   4.142
 2396WAT     H2 7431   8.500   9.258   4.211
 2397WAT      O 7432   7.287   9.541   9.410
 2397WAT     H1 7433   7.326   9.535   9.318
 2397WAT     H2 7434   7.223   9.465   9.424
 2398WAT      O 7435   5.082   9.300   9.228
 2398WAT     H1 7436   5.176   9.286   9.198
 2398WAT     H2 7437   5.053   9.393   9.205
 2399WAT      O 7438   1.500   1.481   2.869
 2399WAT     H1 7439   1.421   1.436   2.911
 2399WAT     H2 7440   1.522   1.564   2.920
 2400WAT      O 7441   7.938   1.185   7.786
 2400WAT     H1 7442   8.018   1.191   7.847
 2400WAT     H2 7443   7.865   1.243   7.822
 2401WAT      O 7444   2.808   5.958   8.417
 2401WAT     H1 7445   2.907   5.947   8.419
 2401WAT     H2 7446   2.782   6.012   8.337
 2402WAT      O 7447   0.013   9.011   7.979
 2402WAT     H1 7448   0.036   8.961   7.895
 2402WAT     H2 7449   0.078   9.085   7.993
 2403WAT      O 7450   0.188   4.545   1.549
 2403WAT     H1 7451   0.160   4.532   1.454
 2403WAT     H2 7452   0.118   4.596   1.599
 2404WAT      O 7453   8.112   9.659   9.725
 2404WAT     H1 7454   8.050   9.593   9.767
 2404WAT     H2 7455   8.094   9.664   9.627
 2405WAT      O 7456   4.715   1.131   2.809
 2405WAT     H1 7457   4.716   1.207   2.875
 2405WAT     H2 7458   4.621   1.112   2.781
 2406WAT      O 7459   5.952   4.626   5.232
 2406WAT     H1 7460   5.957   4.659   5.326
 2406WAT     H2 7461   5.861   4.588   5.214
 2407WAT      O 7462   1.270   0.958   0.483
 2407WAT     H1 7463   1.231   0.942   0.392
 2407WAT     H2 7464   1.196   0.975   0.548
 2408WAT      O 7465   3.141   5.288   4.354
 2408WAT     H1 7466   3.224   5.340   4.376
 2408WAT     H2 7467   3.163   5.190   4.351
 2409WAT      O 7468   0.267   1.858   7.902
 2409WAT     H1 7469   0.265   1.936   7.964
 2409WAT     H2 7470   0.218   1.781   7.943
 2410WAT      O 7471   9.426   5.727   0.817
 2410WAT     H1 7472   9.379   5.778   0.889
 2410WAT     H2 7473   9.361   5.697   0.748
 2411WAT      O 7474   0.665   6.313   1.660
 2411WAT     H1 7475   0.713   6.401   1.662
 2411WAT     H2 7476   0.593   6.317   1.591
 2412WAT      O 7477   4.700   2.296   8.171
 2412WAT     H1 7478   4.689   2.330   8.078
 2412WAT     H2 7479   4.614   2.255   8.202
 2413WAT      O 7480   4.047   8.237   4.572
 2413WAT     H1 7481   4.101   8.227   4.488
 2413WAT     H2 7482   4.074   8.166   4.637
 2414WAT      O 7483   3.994   5.002   4.247
 2414WAT     H1 7484   4.073   5.064   4.243
 2414WAT     H2 7485   3.956   4.992   4.155
 2415WAT      O 7486   5.142   2.058   1.648
 2415WAT     H1 7487   5.059   2.010   1.622
 2415WAT     H2 7488   5.129   2.157   1.636
 2416WAT      O 7489   9.593   8.669   8.626
 2416WAT     H1 7490   9.640   8.626   8.549
 2416WAT     H2 7491   9.659   8.689   8.698
 2417WAT      O 7492   0.677   2.468   1.285
 2417WAT     H1 7493   0.643   2.377   1.309
 2417WAT     H2 7494   0.776   2.470   1.292
 2418WAT      O 7495   9.226   6.134   9.339
 2418WAT     H1 7496   9.134   6.174   9.346
 2418WAT     H2 7497   9.294   6.202   9.365
 2419WAT      O 7498   3.518   8.726   9.576
 2419WAT     H1 7499   3.473   8.672   9.505
 2419WAT     H2 7500   3.601   8.768   9.538
 2420WAT      O 7501   8.534   1.689   6.890
 2420WAT     H1 7502   8.523   1.608   6.947
 2420WAT     H2 7503   8.618   1.736   6.916
 2421WAT      O 7504   6.571   1.007   1.739
 2421WAT     H1 7505   6.552   0.958   1.824
 2421WAT     H2 7506   6.646   1.072   1.754
 2422WAT      O 7507   7.056   3.165   5.454
 2422WAT     H1 7508   7.058   3.265   5.460
 2422WAT     H2 7509   7.096   3.136   5.367
 2423WAT      O 7510   1.443   7.060   0.213
 2423WAT     H1 7511   1.466   6.964   0.195
 2423WAT     H2 7512   1.511   7.099   0.276
 2424WAT      O 7513   0.418   7.074   4.525
 2424WAT     H1 7514   0.371   7.114   4.446
 2424WAT     H2 7515   0.369   6.991   4.554
 2425WAT      O 7516   0.918   4.059   1.533
 2425WAT     H1 7517   0.844   4.093   1.591
 2425WAT     H2 7518   0.914   3.959   1.529
 2426WAT      O 7519   3.748   8.458   0.443
 2426WAT     H1 7520   3.680   8.528   0.465
 2426WAT     H2 7521   3.717   8.404   0.364
 2427WAT      O 7522   4.210   4.124   7.620
 2427WAT     H1 7523   4.149   4.100   7.545
 2427WAT     H2 7524   4.194   4.064   7.698
 2428WAT      O 7525   4.230   0.843   6.493
 2428WAT     H1 7526   4.179   0.808   6.415
 2428WAT     H2 7527   4.312   0.788   6.507
 2429WAT      O 7528   1.084   2.862   3.628
 2429WAT     H1 7529   1.059   2.774   3.588
 2429WAT     H2 7530   1.008   2.895   3.686
 2430WAT      O 7531   8.884   0.266   6.404
 2430WAT     H1 7532   8.902   0.172   6.374
 2430WAT     H2 7533   8.786   0.277   6.421
 2431WAT      O 7534   0.348   5.647   1.942
 2431WAT     H1 7535   0.307   5.685   2.025
 2431WAT     H2 7536   0.443   5.621   1.962
 2432WAT      O 7537   6.372   2.563   2.423
 2432WAT     H1 7538   6.423   2.643   2.455
 2432WAT     H2 7539   6.274   2.578   2.441
 2433WAT      O 7540   2.646   7.293   2.498
 2433WAT     H1 7541   2.595   7.207   2.504
 2433WAT     H2 7542   2.729   7.278   2.445
 2434WAT      O 7543   2.074   1.745   4.304
 2434WAT     H1 7544   2.081   1.646   4.301
 2434WAT     H2 7545   2.059   1.781   4.212
 2435WAT      O 7546   6.460   2.716   9.219
 2435WAT     H1 7547   6.447   2.793   9.156
 2435WAT     H2 7548   6.424   2.740   9.309
 2436WAT      O 7549   4.793   0.628   1.102
 2436WAT     H1 7550   4.808   0.531   1.084
 2436WAT     H2 7551   4.697   0.643   1.125
 2437WAT      O 7552   4.683   7.374   7.303
 2437WAT     H1 7553   4.735   7.348   7.222
 2437WAT     H2 7554   4.616   7.445   7.279
 2438WAT      O 7555   9.136   6.947   3.351
 2438WAT     H1 7556   9.073   7.006   3.402
 2438WAT     H2 7557   9.094   6.858   3.335
 2439WAT      O 7558   8.699   4.406   4.040
 2439WAT     H1 7559   8.710   4.323   4.095
 2439WAT     H2 7560   8.736   4.390   3.948
 2440WAT      O 7561   8.493   6.073   3.245
 2440WAT     H1 7562   8.590   6.057   3.266
 2440WAT     H2 7563   8.462   6.004   3.180
 2441WAT      O 7564   1.831   0.963   9.644
 2441WAT     H1 7565   1.779   0.884   9.610
 2441WAT     H2 7566   1.768   1.027   9.688
 2442WAT      O 7567   9.828   5.247   3.800
 2442WAT     H1 7568   9.763   5.239   3.724
 2442WAT     H2 7569   9.902   5.181   3.787
 2443WAT      O 7570   3.253   1.229   1.739
 2443WAT     H1 7571   3.262   1.147   1.796
 2443WAT     H2 7572   3.305   1.217   1.654
 2444WAT      O 7573   5.360   5.544   9.766
 2444WAT     H1 7574   5.448   5.497   9.773
 2444WAT     H2 7575   5.291   5.480   9.731
 2445WAT      O 7576   4.558   9.329   0.821
 2445WAT     H1 7577   4.558   9.234   0.789
 2445WAT     H2 7578   4.618   9.338   0.900
 2446WAT      O 7579   4.940   4.524   2.848
 2446WAT     H1 7580   4.949   4.607   2.901
 2446WAT     H2 7581   5.000   4.453   2.885
 2447WAT      O 7582   6.961   5.558   7.302
 2447WAT     H1 7583   6.925   5.557   7.396
 2447WAT     H2 7584   6.916   5.486   7.249
 2448WAT      O 7585   9.566   4.371   0.230
 2448WAT     H1 7586   9.494   4.315   0.188
 2448WAT     H2 7587   9.533   4.408   0.317
 2449WAT      O 7588   0.431   7.605   8.069
 2449WAT     H1 7589   0.466   7.520   8.109
 2449WAT     H2 7590   0.346   7.631   8.116
 2450WAT      O 7591   1.202   0.595   6.975
 2450WAT     H1 7592   1.142   0.583   6.896
 2450WAT     H2 7593   1.214   0.507   7.021
 2451WAT      O 7594   1.496   1.258   5.584
 2451WAT     H1 7595   1.545   1.280   5.500
 2451WAT     H2 7596   1.551   1.195   5.639
 2452WAT      O 7597   6.395   3.010   5.964
 2452WAT     H1 7598   6.446   2.949   6.025
 2452WAT     H2 7599   6.339   2.956   5.902
 2453WAT      O 7600   5.363   9.843   2.296
 2453WAT     H1 7601   5.309   9.776   2.347
 2453WAT     H2 7602   5.392   9.916   2.358
 2454WAT      O 7603   9.257   4.738   7.231
 2454WAT     H1 7604   9.191   4.806   7.198
 2454WAT     H2 7605   9.210   4.671   7.288
 2455WAT      O 7606   7.899   7.255   8.453
 2455WAT     H1 7607   7.970   7.207   8.400
 2455WAT     H2 7608   7.921   7.249   8.550
 2456WAT      O 7609   2.112   7.781   2.195
 2456WAT     H1 7610   2.073   7.697   2.234
 2456WAT     H2 7611   2.175   7.757   2.121
 2457WAT      O 7612   5.349   9.221   1.133
 2457WAT     H1 7613   5.424   9.286   1.129
 2457WAT     H2 7614   5.381   9.132   1.100
 2458WAT      O 7615   8.637   2.107   9.051
 2458WAT     H1 7616   8.633   2.090   9.150
 2458WAT     H2 7617   8.686   2.032   9.007
 2459WAT      O 7618   1.426   1.856   8.153
 2459WAT     H1 7619   1.485   1.937   8.162
 2459WAT     H2 7620   1.350   1.878   8.091
 2460WAT      O 7621   4.633   6.395   7.263
 2460WAT     H1 7622   4.592   6.421   7.351
 2460WAT     H2 7623   4.699   6.465   7.235
 2461WAT      O 7624   2.992   5.662   1.209
 2461WAT     H1 7625   3.022   5.568   1.192
 2461WAT     H2 7626   3.032   5.695   1.295
 2462WAT      O 7627   8.809   2.082   2.640
 2462WAT     H1 7628   8.833   2.016   2.712
 2462WAT     H2 7629   8.767   2.034   2.563
 2463WAT      O 7630   0.623   0.787   2.074
 2463WAT     H1 7631   0.611   0.844   2.156
 2463WAT     H2 7632   0.719   0.791   2.045
 2464WAT      O 7633   0.570   6.324   2.617
 2464WAT     H1 7634   0.545   6.269   2.696
 2464WAT     H2 7635   0.666   6.352   2.624
 2465WAT      O 7636   0.346   6.670   7.839
 2465WAT     H1 7637   0.434   6.666   7.887
 2465WAT     H2 7638   0.344   6.600   7.768
 2466WAT      O 7639   0.240   6.523   8.262
 2466WAT     H1 7640   0.245   6.458   8.186
 2466WAT     H2 7641   0.285   6.609   8.236
 2467WAT      O 7642   0.214   5.522   5.574
 2467WAT     H1 7643   0.208   5.424   5.552
 2467WAT     H2 7644   0.165   5.540   5.659
 2468WAT      O 7645   5.557   4.595   6.314
 2468WAT     H1 7646   5.558   4.655   6.394
 2468WAT     H2 7647   5.479   4.533   6.319
 2469WAT      O 7648   3.134   1.471   8.128
 2469WAT     H1 7649   3.125   1.478   8.227
 2469WAT     H2 7650   3.191   1.547   8.095
 2470WAT      O 7651   3.796   2.868   4.990
 2470WAT     H1 7652   3.885   2.910   5.009
 2470WAT     H2 7653   3.806   2.769   4.986
 2471WAT      O 7654   2.386   4.085   1.292
 2471WAT     H1 7655   2.336   4.170   1.277
 2471WAT     H2 7656   2.337   4.028   1.358
 2472WAT      O 7657   6.520   2.677   8.300
 2472WAT     H1 7658   6.523   2.695   8.399
 2472WAT     H2 7659   6.612   2.661   8.266
 2473WAT      O 7660   0.832   9.498   8.060
 2473WAT     H1 7661   0.741   9.486   8.021
 2473WAT     H2 7662   0.862   9.413   8.103
 2474WAT      O 7663   0.524   2.565   1.702
 2474WAT     H1 7664   0.576   2.650   1.693
 2474WAT     H2 7665   0.446   2.567   1.640
 2475WAT      O 7666   3.747   3.200   5.467
 2475WAT     H1 7667   3.708   3.265   5.532
 2475WAT     H2 7668   3.802   3.133   5.516
 2476WAT      O 7669   7.477   9.269   0.232
 2476WAT     H1 7670   7.544   9.291   0.160
 2476WAT     H2 7671   7.431   9.353   0.261
 2477WAT      O 7672   3.494   7.349   3.157
 2477WAT     H1 7673   3.479   7.272   3.095
 2477WAT     H2 7674   3.407   7.374   3.200
 2478WAT      O 7675   7.194   6.713   1.385
 2478WAT     H1 7676   7.245   6.756   1.311
 2478WAT     H2 7677   7.235   6.624   1.407
 2479WAT      O 7678   1.909   3.740   9.895
 2479WAT     H1 7679   1.963   3.691   9.827
 2479WAT     H2 7680   1.914   3.838   9.878
 2480WAT      O 7681   1.497   1.882   7.716
 2480WAT     H1 7682   1.537   1.962   7.761
 2480WAT     H2 7683   1.561   1.805   7.720
 2481WAT      O 7684   8.999   8.815   2.919
 2481WAT     H1 7685   8.957   8.779   2.836
 2481WAT     H2 7686   9.096   8.832   2.902
 2482WAT      O 7687   5.697   5.742   2.320
 2482WAT     H1 7688   5.781   5.742   2.375
 2482WAT     H2 7689   5.703   5.813   2.250
 2483WAT      O 7690   6.205   7.124   0.899
 2483WAT     H1 7691   6.219   7.220   0.924
 2483WAT     H2 7692   6.133   7.085   0.956
 2484WAT      O 7693   5.782   3.797   0.220
 2484WAT     H1 7694   5.860   3.750   0.178
 2484WAT     H2 7695   5.753   3.872   0.160
 2485WAT      O 7696   2.573   0.382   4.759
 2485WAT     H1 7697   2.631   0.327   4.819
 2485WAT     H2 7698   2.481   0.387   4.797
 2486WAT      O 7699   3.882   4.868   4.460
 2486WAT     H1 7700   3.936   4.910   4.387
 2486WAT     H2 7701   3.785   4.872   4.436
 2487WAT      O 7702   8.290   1.414   1.150
 2487WAT     H1 7703   8.234   1.369   1.220
 2487WAT     H2 7704   8.379   1.437   1.188
 2488WAT      O 7705   4.608   9.199   1.218
 2488WAT     H1 7706   4.631   9.258   1.141
 2488WAT     H2 7707   4.509   9.183   1.218
 2489WAT      O 7708   1.389   4.769   2.822
 2489WAT     H1 7709   1.437   4.783   2.736
 2489WAT     H2 7710   1.375   4.857   2.867
 2490WAT      O 7711   2.730   5.632   1.223
 2490WAT     H1 7712   2.824   5.649   1.194
 2490WAT     H2 7713   2.721   5.537   1.253
 2491WAT      O 7714   6.919   6.014   5.023
 2491WAT     H1 7715   6.961   5.926   5.001
 2491WAT     H2 7716   6.863   6.004   5.105
 2492WAT      O 7717   9.743   6.434   8.404
 2492WAT     H1 7718   9.774   6.430   8.309
 2492WAT     H2 7719   9.820   6.410   8.464
 2493WAT      O 7720   2.544   8.643   2.138
 2493WAT     H1 7721   2.458   8.642   2.189
 2493WAT     H2 7722   2.556   8.556   2.090
 2494WAT      O 7723   6.182   3.000   2.392
 2494WAT     H1 7724   6.121   2.949   2.330
 2494WAT     H2 7725   6.276   2.989   2.361
 2495WAT      O 7726   2.643   3.320   7.985
 2495WAT     H1 7727   2.676   3.414   7.996
 2495WAT     H2 7728   2.546   3.323   7.958
 2496WAT      O 7729   7.632   4.244   5.043
 2496WAT     H1 7730   7.687   4.252   4.960
 2496WAT     H2 7731   7.688   4.201   5.114
 2497WAT      O 7732   2.868   6.336   6.387
 2497WAT     H1 7733   2.928   6.309   6.462
 2497WAT     H2 7734   2.777   6.358   6.422
 2498WAT      O 7735   0.839   6.451   7.562
 2498WAT     H1 7736   0.750   6.421   7.529
 2498WAT     H2 7737   0.876   6.521   7.501
 2499WAT      O 7738   6.437   5.415   1.118
 2499WAT     H1 7739   6.525   5.447   1.084
 2499WAT     H2 7740   6.367   5.486   1.105
 2500WAT      O 7741   9.283   7.494   8.654
 2500WAT     H1 7742   9.253   7.439   8.732
 2500WAT     H2 7743   9.304   7.435   8.577
 2501WAT      O 7744   2.217   5.927   0.775
 2501WAT     H1 7745   2.313   5.950   0.788
 2501WAT     H2 7746   2.163   6.011   0.771
 2502WAT      O 7747   9.130   9.344   5.458
 2502WAT     H1 7748   9.144   9.291   5.374
 2502WAT     H2 7749   9.147   9.286   5.538
 2503WAT      O 7750   7.540   5.488   9.786
 2503WAT     H1 7751   7.633   5.452   9.796
 2503WAT     H2 7752   7.478   5.437   9.844
 2504WAT      O 7753   6.808   6.209   0.573
 2504WAT     H1 7754   6.767   6.150   0.643
 2504WAT     H2 7755   6.907   6.208   0.583
 2505WAT      O 7756   3.198   8.858   6.454
 2505WAT     H1 7757   3.187   8.917   6.375
 2505WAT     H2 7758   3.157   8.901   6.534
 2506WAT      O 7759   4.478   8.173   7.149
 2506WAT     H1 7760   4.477   8.149   7.052
 2506WAT     H2 7761   4.556   8.129   7.194
 2507WAT      O 7762   4.792   8.558   3.657
 2507WAT     H1 7763   4.886   8.573   3.686
 2507WAT     H2 7764   4.731   8.566   3.735
 2508WAT      O 7765   8.537   7.724   4.562
 2508WAT     H1 7766   8.498   7.731   4.471
 2508WAT     H2 7767   8.512   7.636   4.603
 2509WAT      O 7768   2.578   3.089   6.703
 2509WAT     H1 7769   2.513   3.021   6.735
 2509WAT     H2 7770   2.537   3.180   6.710
 2510WAT      O 7771   9.890   3.574   0.912
 2510WAT     H1 7772   9.858   3.484   0.942
 2510WAT     H2 7773   9.814   3.625   0.873
 2511WAT      O 7774   9.344   2.449   2.526
 2511WAT     H1 7775   9.300   2.387   2.461
 2511WAT     H2 7776   9.385   2.396   2.600
 2512WAT      O 7777   6.838   3.427   5.245
 2512WAT     H1 7778   6.880   3.514   5.219
 2512WAT     H2 7779   6.834   3.421   5.345
 2513WAT      O 7780   1.685   0.162   4.010
 2513WAT     H1 7781   1.761   0.118   3.961
 2513WAT     H2 7782   1.657   0.103   4.087
 2514WAT      O 7783   7.549   7.527   0.791
 2514WAT     H1 7784   7.473   7.483   0.742
 2514WAT     H2 7785   7.535   7.626   0.793
 2515WAT      O 7786   0.144   2.622   0.681
 2515WAT     H1 7787   0.120   2.529   0.655
 2515WAT     H2 7788   0.080   2.656   0.750
 2516WAT      O 7789   3.751   4.112   6.591
 2516WAT     H1 7790   3.783   4.071   6.677
 2516WAT     H2 7791   3.818   4.180   6.560
 2517WAT      O 7792   8.678   9.259   2.014
 2517WAT     H1 7793   8.738   9.340   2.019
 2517WAT     H2 7794   8.665   9.223   2.106
 2518WAT      O 7795   6.879   1.313   6.372
 2518WAT     H1 7796   6.840   1.222   6.387
 2518WAT     H2 7797   6.979   1.308   6.377
 2519WAT      O 7798   3.050   9.485   1.850
 2519WAT     H1 7799   3.104   9.568   1.866
 2519WAT     H2 7800   3.014   9.486   1.757
 2520WAT      O 7801   2.739   3.092   8.376
 2520WAT     H1 7802   2.829   3.129   8.354
 2520WAT     H2 7803   2.732   3.079   8.475
 2521WAT      O 7804   4.170   1.804   9.821
 2521WAT     H1 7805   4.174   1.712   9.780
 2521WAT     H2 7806   4.150   1.796   9.919
 2522WAT      O 7807   0.595   8.274   9.189
 2522WAT     H1 7808   0.655   8.228   9.255
 2522WAT     H2 7809   0.584   8.369   9.216
 2523WAT      O 7810   3.241   6.370   9.126
 2523WAT     H1 7811   3.278   6.445   9.072
 2523WAT     H2 7812   3.301   6.291   9.121
 2524WAT      O 7813   1.921   8.572   7.891
 2524WAT     H1 7814   1.869   8.643   7.844
 2524WAT     H2 7815   1.883   8.556   7.982
 2525WAT      O 7816   3.780   6.576   9.092
 2525WAT     H1 7817   3.839   6.620   9.160
 2525WAT     H2 7818   3.695   6.547   9.135
 2526WAT      O 7819   4.984   6.405   9.211
 2526WAT     H1 7820   4.961   6.343   9.136
 2526WAT     H2 7821   5.010   6.353   9.292
 2527WAT      O 7822   0.290   3.676   2.909
 2527WAT     H1 7823   0.294   3.585   2.868
 2527WAT     H2 7824   0.220   3.731   2.863
 2528WAT      O 7825   5.110   5.492   3.989
 2528WAT     H1 7826   5.151   5.551   4.059
 2528WAT     H2 7827   5.134   5.396   4.008
 2529WAT      O 7828   0.005   2.133   1.365
 2529WAT     H1 7829   0.063   2.213   1.380
 2529WAT     H2 7830   0.056   2.064   1.315
 2530WAT      O 7831   1.700   5.002   3.494
 2530WAT     H1 7832   1.675   5.043   3.582
 2530WAT     H2 7833   1.740   4.912   3.509
 2531WAT      O 7834   8.962   7.430   0.905
 2531WAT     H1 7835   8.960   7.423   0.805
 2531WAT     H2 7836   8.873   7.406   0.942
 2532WAT      O 7837   4.840   9.091   2.143
 2532WAT     H1 7838   4.797   9.080   2.054
 2532WAT     H2 7839   4.892   9.009   2.166
 2533WAT      O 7840   5.507   8.247   6.645
 2533WAT     H1 7841   5.534   8.182   6.573
 2533WAT     H2 7842   5.527   8.207   6.734
 2534WAT      O 7843   6.048   7.630   0.601
 2534WAT     H1 7844   5.983   7.657   0.673
 2534WAT     H2 7845   6.103   7.710   0.576
 2535WAT      O 7846   0.947   2.183   2.879
 2535WAT     H1 7847   0.914   2.099   2.923
 2535WAT     H2 7848   0.980   2.160   2.787
 2536WAT      O 7849   5.114   0.774   6.004
 2536WAT     H1 7850   5.179   0.805   6.073
 2536WAT     H2 7851   5.054   0.849   5.978
 2537WAT      O 7852   5.904   0.063   1.129
 2537WAT     H1 7853   5.982   0.053   1.191
 2537WAT     H2 7854   5.891  -0.022   1.078
 2538WAT      O 7855   3.899   9.763   9.224
 2538WAT     H1 7856   3.937   9.844   9.180
 2538WAT     H2 7857   3.911   9.684   9.164
 2539WAT      O 7858   2.764   7.837   2.004
 2539WAT     H1 7859   2.770   7.765   1.936
 2539WAT     H2 7860   2.856   7.860   2.036
 2540WAT      O 7861   1.887   8.094   7.510
 2540WAT     H1 7862   1.835   8.056   7.433
 2540WAT     H2 7863   1.824   8.128   7.580
 2541WAT      O 7864   8.212   2.600   8.890
 2541WAT     H1 7865   8.308   2.620   8.869
 2541WAT     H2 7866   8.177   2.669   8.954
 2542WAT      O 7867   4.493   2.088   2.484
 2542WAT     H1 7868   4.503   2.014   2.417
 2542WAT     H2 7869   4.576   2.144   2.485
 2543WAT      O 7870   3.741   3.634   9.132
 2543WAT     H1 7871   3.761   3.536   9.139
 2543WAT     H2 7872   3.822   3.682   9.099
 2544WAT      O 7873   4.194   9.637   4.471
 2544WAT     H1 7874   4.111   9.587   4.445
 2544WAT     H2 7875   4.249   9.580   4.532
 2545WAT      O 7876   9.656   3.199   6.594
 2545WAT     H1 7877   9.600   3.272   6.633
 2545WAT     H2 7878   9.608   3.111   6.604
 2546WAT      O 7879   7.974   9.685   8.382
 2546WAT     H1 7880   7.906   9.750   8.347
 2546WAT     H2 7881   8.045   9.672   8.313
 2547WAT      O 7882   0.337   9.798   5.673
 2547WAT     H1 7883   0.276   9.825   5.748
 2547WAT     H2 7884   0.423   9.763   5.711
 2548WAT      O 7885   9.211   1.613   7.840
 2548WAT     H1 7886   9.148   1.677   7.796
 2548WAT     H2 7887   9.305   1.644   7.825
 2549WAT      O 7888   5.076   1.778   1.888
 2549WAT     H1 7889   5.062   1.734   1.799
 2549WAT     H2 7890   5.171   1.809   1.896
 2550WAT      O 7891   5.170   5.373   0.098
 2550WAT     H1 7892   5.104   5.383   0.023
 2550WAT     H2 7893   5.196   5.463   0.132
 2551WAT      O 7894   8.123   6.881   1.024
 2551WAT     H1 7895   8.189   6.864   0.951
 2551WAT     H2 7896   8.116   6.801   1.083
 2552WAT      O 7897   9.725   1.760   4.219
 2552WAT     H1 7898   9.634   1.799   4.203
 2552WAT     H2 7899   9.762   1.794   4.305
 2553WAT      O 7900   6.362   8.626   9.210
 2553WAT     H1 7901   6.352   8.549   9.272
 2553WAT     H2 7902   6.319   8.604   9.123
 2554WAT      O 7903   5.992   4.543   0.617
 2554WAT     H1 7904   5.959   4.566   0.708
 2554WAT     H2 7905   6.054   4.614   0.584
 2555WAT      O 7906   5.206   9.784   5.438
 2555WAT     H1 7907   5.160   9.872   5.447
 2555WAT     H2 7908   5.293   9.796   5.391
 2556WAT      O 7909   6.489   1.170   6.910
 2556WAT     H1 7910   6.561   1.131   6.967
 2556WAT     H2 7911   6.404   1.119   6.925
 2557WAT      O 7912   7.081   8.957   6.290
 2557WAT     H1 7913   7.105   8.926   6.198
 2557WAT     H2 7914   6.987   8.931   6.311
 2558WAT      O 7915   8.872   2.606   4.116
 2558WAT     H1 7916   8.791   2.603   4.058
 2558WAT     H2 7917   8.950   2.566   4.068
 2559WAT      O 7918   5.343   2.234   2.297
 2559WAT     H1 7919   5.356   2.286   2.382
 2559WAT     H2 7920   5.386   2.283   2.221
 2560WAT      O 7921   7.392   9.651   4.081
 2560WAT     H1 7922   7.370   9.573   4.140
 2560WAT     H2 7923   7.411   9.618   3.988
 2561WAT      O 7924   0.364   6.373   1.525
 2561WAT     H1 7925   0.395   6.281   1.550
 2561WAT     H2 7926   0.335   6.373   1.429
 2562WAT      O 7927   2.149   3.077   1.388
 2562WAT     H1 7928   2.159   2.979   1.371
 2562WAT     H2 7929   2.239   3.120   1.387
 2563WAT      O 7930   2.297   2.894   0.851
 2563WAT     H1 7931   2.253   2.803   0.849
 2563WAT     H2 7932   2.312   2.921   0.946
 2564WAT      O 7933   6.287   5.422   3.059
 2564WAT     H1 7934   6.295   5.478   3.141
 2564WAT     H2 7935   6.287   5.325   3.084
 2565WAT      O 7936   3.208   3.956   6.480
 2565WAT     H1 7937   3.259   3.924   6.560
 2565WAT     H2 7938   3.174   4.048   6.498
 2566WAT      O 7939   6.644   5.226   4.403
 2566WAT     H1 7940   6.555   5.184   4.387
 2566WAT     H2 7941   6.689   5.243   4.316
 2567WAT      O 7942   1.349   8.826   0.457
 2567WAT     H1 7943   1.298   8.775   0.388
 2567WAT     H2 7944   1.393   8.762   0.520
 2568WAT      O 7945   3.915   6.500   9.715
 2568WAT     H1 7946   3.930   6.402   9.704
 2568WAT     H2 7947   3.897   6.541   9.625
 2569WAT      O 7948   8.484   5.976   3.606
 2569WAT     H1 7949   8.503   6.057   3.662
 2569WAT     H2 7950   8.386   5.962   3.600
 2570WAT      O 7951   3.350   2.492   5.327
 2570WAT     H1 7952   3.269   2.531   5.369
 2570WAT     H2 7953   3.380   2.551   5.252
 2571WAT      O 7954   6.419   0.957   6.670
 2571WAT     H1 7955   6.375   0.924   6.586
 2571WAT     H2 7956   6.352   0.956   6.745
 2572WAT      O 7957   8.144   6.836   0.198
 2572WAT     H1 7958   8.125   6.744   0.233
 2572WAT     H2 7959   8.208   6.830   0.121
 2573WAT      O 7960   0.225   1.884   9.074
 2573WAT     H1 7961   0.137   1.859   9.114
 2573WAT     H2 7962   0.246   1.822   8.999
 2574WAT      O 7963   3.914   4.613   9.484
 2574WAT     H1 7964   3.999   4.662   9.464
 2574WAT     H2 7965   3.888   4.559   9.403
 2575WAT      O 7966   6.254   0.217   1.731
 2575WAT     H1 7967   6.201   0.299   1.710
 2575WAT     H2 7968   6.231   0.145   1.665
 2576WAT      O 7969   7.519   4.411   7.259
 2576WAT     H1 7970   7.517   4.509   7.278
 2576WAT     H2 7971   7.458   4.363   7.322
 2577WAT      O 7972   7.174   0.599   4.685
 2577WAT     H1 7973   7.152   0.580   4.781
 2577WAT     H2 7974   7.195   0.696   4.674
 2578WAT      O 7975   4.422   7.214   9.308
 2578WAT     H1 7976   4.420   7.302   9.262
 2578WAT     H2 7977   4.369   7.218   9.392
 2579WAT      O 7978   3.819   3.954   6.827
 2579WAT     H1 7979   3.754   3.886   6.863
 2579WAT     H2 7980   3.878   3.910   6.760
 2580WAT      O 7981   1.036   0.759   4.450
 2580WAT     H1 7982   0.951   0.723   4.411
 2580WAT     H2 7983   1.059   0.708   4.532
 2581WAT      O 7984   3.158   9.470   7.343
 2581WAT     H1 7985   3.181   9.390   7.398
 2581WAT     H2 7986   3.201   9.551   7.382
 2582WAT      O 7987   5.566   8.231   2.798
 2582WAT     H1 7988   5.645   8.176   2.771
 2582WAT     H2 7989   5.533   8.283   2.719
 2583WAT      O 7990   0.058   5.066   9.729
 2583WAT     H1 7991   0.047   4.992   9.795
 2583WAT     H2 7992   0.085   5.149   9.776
 2584WAT      O 7993   0.118   5.459   5.879
 2584WAT     H1 7994   0.211   5.424   5.869
 2584WAT     H2 7995   0.117   5.557   5.859
 2585WAT      O 7996   3.031   3.460   0.952
 2585WAT     H1 7997   2.988   3.461   0.862
 2585WAT     H2 7998   2.982   3.398   1.012
 2586WAT      O 7999   3.083   8.920   5.783
 2586WAT     H1 8000   3.074   8.874   5.871
 2586WAT     H2 8001   3.019   8.880   5.717
 2587WAT      O 8002   0.728   8.432   7.381
 2587WAT     H1 8003   0.720   8.519   7.430
 2587WAT     H2 8004   0.772   8.447   7.293
 2588WAT      O 8005   5.987   3.119   7.303
 2588WAT     H1 8006   6.003   3.217   7.290
 2588WAT     H2 8007   5.980   3.099   7.401
 2589WAT      O 8008   1.891   5.600   0.542
 2589WAT     H1 8009   1.884   5.675   0.608
 2589WAT     H2 8010   1.980   5.603   0.496
 2590WAT      O 8011   4.246   2.957   6.178
 2590WAT     H1 8012   4.215   2.953   6.083
 2590WAT     H2 8013   4.334   2.910   6.187
 2591WAT      O 8014   7.669   4.856   5.209
 2591WAT     H1 8015   7.668   4.759   5.233
 2591WAT     H2 8016   7.735   4.904   5.267
 2592WAT      O 8017   4.786   7.670   6.630
 2592WAT     H1 8018   4.741   7.758   6.613
 2592WAT     H2 8019   4.720   7.596   6.614
 2593WAT      O 8020   7.219   4.111   1.459
 2593WAT     H1 8021   7.252   4.017   1.454
 2593WAT     H2 8022   7.139   4.115   1.519
 2594WAT      O 8023   9.478   5.679   9.031
 2594WAT     H1 8024   9.553   5.613   9.041
 2594WAT     H2 8025   9.443   5.675   8.937
 2595WAT      O 8026   9.052   3.514   2.131
 2595WAT     H1 8027   8.970   3.566   2.109
 2595WAT     H2 8028   9.085   3.467   2.049
 2596WAT      O 8029   5.466   4.165   1.908
 2596WAT     H1 8030   5.485   4.092   1.843
 2596WAT     H2 8031   5.552   4.204   1.941
 2597WAT      O 8032   7.180   1.249   7.113
 2597WAT     H1 8033   7.227   1.311   7.050
 2597WAT     H2 8034   7.081   1.261   7.104
 2598WAT      O 8035   2.512   5.370   8.298
 2598WAT     H1 8036   2.577   5.411   8.234
 2598WAT     H2 8037   2.422   5.363   8.254
 2599WAT      O 8038   5.900   3.480   0.276
 2599WAT     H1 8039   5.886   3.575   0.251
 2599WAT     H2 8040   5.830   3.423   0.233
 2600WAT      O 8041   3.501   3.212   1.276
 2600WAT     H1 8042   3.484   3.160   1.359
 2600WAT     H2 8043   3.415   3.227   1.228
 2601WAT      O 8044   2.547   8.142   0.569
 2601WAT     H1 8045   2.488   8.061   0.575
 2601WAT     H2 8046   2.491   8.224   0.555
 2602WAT      O 8047   7.372   0.089   6.510
 2602WAT     H1 8048   7.304   0.134   6.568
 2602WAT     H2 8049   7.414   0.014   6.561
 2603WAT      O 8050   8.571   8.687   8.790
 2603WAT     H1 8051   8.532   8.743   8.863
 2603WAT     H2 8052   8.603   8.600   8.828
 2604WAT      O 8053   4.315   1.975   4.515
 2604WAT     H1 8054   4.404   1.948   4.552
 2604WAT     H2 8055   4.304   2.074   4.524
 2605WAT      O 8056   9.223   1.870   3.769
 2605WAT     H1 8057   9.309   1.919   3.755
 2605WAT     H2 8058   9.178   1.856   3.681
 2606WAT      O 8059   2.128   9.596   2.552
 2606WAT     H1 8060   2.226   9.618   2.555
 2606WAT     H2 8061   2.086   9.615   2.640
 2607WAT      O 8062   2.554   0.541   7.204
 2607WAT     H1 8063   2.607   0.557   7.121
 2607WAT     H2 8064   2.517   0.448   7.203
 2608WAT      O 8065   5.024   6.280   5.629
 2608WAT     H1 8066   4.964   6.289   5.549
 2608WAT     H2 8067   5.110   6.328   5.611
 2609WAT      O 8068   1.529   6.051   2.014
 2609WAT     H1 8069   1.600   6.064   2.082
 2609WAT     H2 8070   1.514   6.137   1.965
 2610WAT      O 8071   2.529   5.488   7.685
 2610WAT     H1 8072   2.473   5.563   7.649
 2610WAT     H2 8073   2.470   5.414   7.715
 2611WAT      O 8074   0.810   5.226   2.579
 2611WAT     H1 8075   0.854   5.315   2.569
 2611WAT     H2 8076   0.880   5.154   2.585
 2612WAT      O 8077   7.810   2.643   5.929
 2612WAT     H1 8078   7.754   2.566   5.898
 2612WAT     H2 8079   7.754   2.726   5.933
 2613WAT      O 8080   9.607   0.338   0.350
 2613WAT     H1 8081   9.583   0.251   0.308
 2613WAT     H2 8082   9.546   0.410   0.316
 2614WAT      O 8083   4.814   8.781   5.821
 2614WAT     H1 8084   4.765   8.706   5.865
 2614WAT     H2 8085   4.888   8.812   5.880
 2615WAT      O 8086   2.601   5.037   0.419
 2615WAT     H1 8087   2.544   5.098   0.364
 2615WAT     H2 8088   2.544   4.963   0.456
 2616WAT      O 8089   5.675   8.164   1.306
 2616WAT     H1 8090   5.680   8.264   1.310
 2616WAT     H2 8091   5.739   8.130   1.237
 2617WAT      O 8092   9.435   1.078   4.375
 2617WAT     H1 8093   9.361   1.145   4.371
 2617WAT     H2 8094   9.407   1.001   4.432
 2618WAT      O 8095   7.180   0.223   6.680
 2618WAT     H1 8096   7.110   0.185   6.741
 2618WAT     H2 8097   7.136   0.273   6.605
 2619WAT      O 8098   9.523   5.906   9.778
 2619WAT     H1 8099   9.524   5.937   9.873
 2619WAT     H2 8100   9.573   5.971   9.721
 2620WAT      O 8101   0.237   5.200   5.310
 2620WAT     H1 8102   0.267   5.266   5.241
 2620WAT     H2 8103   0.259   5.235   5.401
 2621WAT      O 8104   6.550   9.053   2.843
 2621WAT     H1 8105   6.617   8.979   2.849
 2621WAT     H2 8106   6.470   9.021   2.792
 2622WAT      O 8107   0.888   6.901   8.550
 2622WAT     H1 8108   0.827   6.980   8.538
 2622WAT     H2 8109   0.834   6.819   8.566
 2623WAT      O 8110   1.286   3.736   4.788
 2623WAT     H1 8111   1.355   3.663   4.788
 2623WAT     H2 8112   1.195   3.696   4.773
 2624WAT      O 8113   4.606   3.895   4.055
 2624WAT     H1 8114   4.696   3.851   4.062
 2624WAT     H2 8115   4.615   3.980   4.004
 2625WAT      O 8116   3.076   1.645   3.010
 2625WAT     H1 8117   3.028   1.558   2.999
 2625WAT     H2 8118   3.166   1.639   2.967
 2626WAT      O 8119   0.621   7.065   2.172
 2626WAT     H1 8120   0.613   6.972   2.206
 2626WAT     H2 8121   0.539   7.116   2.197
 2627WAT      O 8122   6.647   6.702   5.400
 2627WAT     H1 8123   6.733   6.753   5.407
 2627WAT     H2 8124   6.628   6.681   5.304
 2628WAT      O 8125   4.507   2.337   4.707
 2628WAT     H1 8126   4.480   2.252   4.752
 2628WAT     H2 8127   4.594   2.369   4.744
 2629WAT      O 8128   8.531   5.530   2.943
 2629WAT     H1 8129   8.548   5.568   3.033
 2629WAT     H2 8130   8.616   5.492   2.906
 2630WAT      O 8131   7.674   7.402   8.990
 2630WAT     H1 8132   7.637   7.438   8.904
 2630WAT     H2 8133   7.768   7.433   9.002
 2631WAT      O 8134   2.363   1.188   3.319
 2631WAT     H1 8135   2.273   1.232   3.327
 2631WAT     H2 8136   2.379   1.163   3.224
 2632WAT      O 8137   3.785   8.381   2.767
 2632WAT     H1 8138   3.882   8.366   2.787
 2632WAT     H2 8139   3.775   8.469   2.720
 2633WAT      O 8140   6.039   3.244   8.014
 2633WAT     H1 8141   6.029   3.314   7.943
 2633WAT     H2 8142   6.104   3.275   8.083
 2634WAT      O 8143   4.256   1.871   3.205
 2634WAT     H1 8144   4.260   1.811   3.125
 2634WAT     H2 8145   4.340   1.861   3.258
 2635WAT      O 8146   0.367   8.664   7.396
 2635WAT     H1 8147   0.433   8.655   7.322
 2635WAT     H2 8148   0.276   8.684   7.359
 2636WAT      O 8149   4.395   0.515   6.542
 2636WAT     H1 8150   4.443   0.428   6.526
 2636WAT     H2 8151   4.458   0.591   6.525
 2637WAT      O 8152   2.128   5.389   8.158
 2637WAT     H1 8153   2.067   5.354   8.087
 2637WAT     H2 8154   2.093   5.477   8.192
 2638WAT      O 8155   4.080   3.806   4.443
 2638WAT     H1 8156   4.134   3.780   4.363
 2638WAT     H2 8157   4.064   3.726   4.500
 2639WAT      O 8158   7.829   3.532   4.432
 2639WAT     H1 8159   7.740   3.577   4.434
 2639WAT     H2 8160   7.879   3.552   4.516
 2640WAT      O 8161   1.336   3.248   9.345
 2640WAT     H1 8162   1.434   3.238   9.324
 2640WAT     H2 8163   1.311   3.345   9.340
 2641WAT      O 8164   9.630   2.697   3.235
 2641WAT     H1 8165   9.703   2.742   3.288
 2641WAT     H2 8166   9.541   2.731   3.265
 2642WAT      O 8167   8.924   8.004   0.556
 2642WAT     H1 8168   9.006   7.950   0.537
 2642WAT     H2 8169   8.939   8.098   0.523
 2643WAT      O 8170   6.693   9.339   7.452
 2643WAT     H1 8171   6.612   9.376   7.407
 2643WAT     H2 8172   6.771   9.345   7.388
 2644WAT      O 8173   5.805   9.006   1.060
 2644WAT     H1 8174   5.813   8.977   0.965
 2644WAT     H2 8175   5.780   8.928   1.117
 2645WAT      O 8176   4.456   7.200   4.757
 2645WAT     H1 8177   4.407   7.145   4.825
 2645WAT     H2 8178   4.542   7.231   4.796
 2646WAT      O 8179   6.965   9.186   9.085
 2646WAT     H1 8180   6.944   9.139   8.999
 2646WAT     H2 8181   6.909   9.148   9.158
 2647WAT      O 8182   6.910   5.157   8.975
 2647WAT     H1 8183   6.901   5.096   8.896
 2647WAT     H2 8184   6.980   5.121   9.036
 2648WAT      O 8185   3.921   8.793   4.136
 2648WAT     H1 8186   3.994   8.780   4.068
 2648WAT     H2 8187   3.854   8.857   4.100
 2649WAT      O 8188   4.228   5.334   6.926
 2649WAT     H1 8189   4.235   5.325   7.026
 2649WAT     H2 8190   4.284   5.411   6.896
 2650WAT      O 8191   1.343   4.249   2.872
 2650WAT     H1 8192   1.357   4.151   2.863
 2650WAT     H2 8193   1.315   4.270   2.966
 2651WAT      O 8194   9.058   5.680   9.636
 2651WAT     H1 8195   9.103   5.642   9.555
 2651WAT     H2 8196   8.984   5.619   9.665
 2652WAT      O 8197   7.978   7.742   3.759
 2652WAT     H1 8198   7.963   7.829   3.807
 2652WAT     H2 8199   7.969   7.666   3.824
 2653WAT      O 8200   6.390   6.713   8.569
 2653WAT     H1 8201   6.403   6.650   8.493
 2653WAT     H2 8202   6.293   6.737   8.576
 2654WAT      O 8203   2.185   2.757   4.891
 2654WAT     H1 8204   2.201   2.722   4.983
 2654WAT     H2 8205   2.246   2.712   4.827
 2655WAT      O 8206   9.720   6.816   4.678
 2655WAT     H1 8207   9.759   6.730   4.646
 2655WAT     H2 8208   9.622   6.817   4.659
 2656WAT      O 8209   5.894   1.085   0.655
 2656WAT     H1 8210   5.846   0.998   0.666
 2656WAT     H2 8211   5.991   1.068   0.639
 2657WAT      O 8212   7.686   3.039   1.544
 2657WAT     H1 8213   7.650   3.023   1.452
 2657WAT     H2 8214   7.782   3.012   1.547
 2658WAT      O 8215   9.463   6.493   1.876
 2658WAT     H1 8216   9.431   6.562   1.812
 2658WAT     H2 8217   9.400   6.486   1.953
 2659WAT      O 8218   2.303   0.175   6.676
 2659WAT     H1 8219   2.327   0.123   6.594
 2659WAT     H2 8220   2.296   0.272   6.653
 2660WAT      O 8221   5.643   4.185   3.924
 2660WAT     H1 8222   5.611   4.175   4.018
 2660WAT     H2 8223   5.727   4.133   3.911
 2661WAT      O 8224   6.909   0.867   9.471
 2661WAT     H1 8225   6.845   0.812   9.418
 2661WAT     H2 8226   6.994   0.817   9.483
 2662WAT      O 8227   8.307   6.015   9.168
 2662WAT     H1 8228   8.339   6.108   9.146
 2662WAT     H2 8229   8.349   5.985   9.253
 2663WAT      O 8230   7.980   9.480   7.899
 2663WAT     H1 8231   7.921   9.419   7.952
 2663WAT     H2 8232   7.925   9.528   7.830
 2664WAT      O 8233   8.033   0.171   1.227
 2664WAT     H1 8234   8.078   0.082   1.223
 2664WAT     H2 8235   8.098   0.240   1.259
 2665WAT      O 8236   5.978   8.122   6.714
 2665WAT     H1 8237   6.067   8.132   6.669
 2665WAT     H2 8238   5.911   8.181   6.670
 2666WAT      O 8239   5.268   8.874   3.640
 2666WAT     H1 8240   5.287   8.836   3.549
 2666WAT     H2 8241   5.294   8.970   3.642
 2667WAT      O 8242   0.615   5.800   9.838
 2667WAT     H1 8243   0.683   5.734   9.870
 2667WAT     H2 8244   0.576   5.848   9.916
 2668WAT      O 8245   8.187   9.452   5.554
 2668WAT     H1 8246   8.152   9.545   5.562
 2668WAT     H2 8247   8.252   9.447   5.477
 2669WAT      O 8248   6.166   7.012   1.205
 2669WAT     H1 8249   6.156   6.912   1.198
 2669WAT     H2 8250   6.257   7.034   1.239
 2670WAT      O 8251   1.148   4.222   3.684
 2670WAT     H1 8252   1.166   4.281   3.606
 2670WAT     H2 8253   1.230   4.167   3.704
 2671WAT      O 8254   4.834   1.828   3.603
 2671WAT     H1 8255   4.845   1.750   3.542
 2671WAT     H2 8256   4.829   1.912   3.549
 2672WAT      O 8257   2.083   6.210   9.347
 2672WAT     H1 8258   2.013   6.197   9.277
 2672WAT     H2 8259   2.166   6.161   9.321
 2673WAT      O 8260   3.637   6.171   8.909
 2673WAT     H1 8261   3.543   6.148   8.932
 2673WAT     H2 8262   3.689   6.186   8.993
 2674WAT      O 8263   6.935   9.687   0.275
 2674WAT     H1 8264   7.012   9.706   0.336
 2674WAT     H2 8265   6.873   9.622   0.319
 2675WAT      O 8266   1.477   0.979   2.496
 2675WAT     H1 8267   1.410   0.987   2.570
 2675WAT     H2 8268   1.508   0.884   2.490
 2676WAT      O 8269   6.767   5.836   1.901
 2676WAT     H1 8270   6.685   5.779   1.900
 2676WAT     H2 8271   6.743   5.928   1.933
 2677WAT      O 8272   9.530   8.268   2.259
 2677WAT     H1 8273   9.521   8.269   2.159
 2677WAT     H2 8274   9.475   8.194   2.297
 2678WAT      O 8275   1.562   2.957   5.996
 2678WAT     H1 8276   1.642   3.016   6.008
 2678WAT     H2 8277   1.479   3.012   6.001
 2679WAT      O 8278   6.793   8.052   2.836
 2679WAT     H1 8279   6.755   8.038   2.928
 2679WAT     H2 8280   6.871   7.991   2.823
 2680WAT      O 8281   3.718   1.474   1.219
 2680WAT     H1 8282   3.642   1.500   1.160
 2680WAT     H2 8283   3.765   1.556   1.251
 2681WAT      O 8284   6.754   0.852   4.596
 2681WAT     H1 8285   6.824   0.781   4.595
 2681WAT     H2 8286   6.667   0.814   4.565
 2682WAT      O 8287   2.818   0.465   7.592
 2682WAT     H1 8288   2.772   0.377   7.601
 2682WAT     H2 8289   2.756   0.531   7.549
 2683WAT      O 8290   4.049   8.648   1.694
 2683WAT     H1 8291   4.126   8.704   1.665
 2683WAT     H2 8292   3.974   8.708   1.724
 2684WAT      O 8293   3.463   3.623   2.329
 2684WAT     H1 8294   3.469   3.548   2.395
 2684WAT     H2 8295   3.548   3.675   2.331
 2685WAT      O 8296   7.883   1.670   3.035
 2685WAT     H1 8297   7.972   1.664   2.990
 2685WAT     H2 8298   7.829   1.743   2.993
 2686WAT      O 8299   2.458   6.504   6.093
 2686WAT     H1 8300   2.524   6.434   6.064
 2686WAT     H2 8301   2.498   6.595   6.079
 2687WAT      O 8302   8.245   6.687   7.435
 2687WAT     H1 8303   8.181   6.612   7.417
 2687WAT     H2 8304   8.195   6.772   7.450
 2688WAT      O 8305   8.817   1.632   3.674
 2688WAT     H1 8306   8.873   1.579   3.738
 2688WAT     H2 8307   8.875   1.668   3.601
 2689WAT      O 8308   9.271   9.019   3.598
 2689WAT     H1 8309   9.346   9.002   3.662
 2689WAT     H2 8310   9.195   8.957   3.617
 2690WAT      O 8311   7.851   4.854   5.688
 2690WAT     H1 8312   7.845   4.783   5.618
 2690WAT     H2 8313   7.823   4.815   5.776
 2691WAT      O 8314   1.126   5.823   3.321
 2691WAT     H1 8315   1.173   5.910   3.312
 2691WAT     H2 8316   1.117   5.800   3.418
 2692WAT      O 8317   5.610   6.351   5.964
 2692WAT     H1 8318   5.527   6.406   5.961
 2692WAT     H2 8319   5.595   6.263   5.918
 2693WAT      O 8320   1.879   4.846   1.050
 2693WAT     H1 8321   1.909   4.900   0.971
 2693WAT     H2 8322   1.958   4.828   1.109
 2694WAT      O 8323   1.027   9.759   4.148
 2694WAT     H1 8324   1.100   9.794   4.088
 2694WAT     H2 8325   0.988   9.677   4.108
 2695WAT      O 8326   0.436   1.077   0.625
 2695WAT     H1 8327   0.380   1.038   0.551
 2695WAT     H2 8328   0.516   1.121   0.586
 2696WAT      O 8329   7.741   6.643   8.011
 2696WAT     H1 8330   7.840   6.647   8.025
 2696WAT     H2 8331   7.701   6.579   8.076
 2697WAT      O 8332   6.591   8.398   7.527
 2697WAT     H1 8333   6.535   8.469   7.570
 2697WAT     H2 8334   6.565   8.309   7.564
 2698WAT      O 8335   1.800   0.957   3.577
 2698WAT     H1 8336   1.898   0.976   3.576
 2698WAT     H2 8337   1.765   0.965   3.670
 2699WAT      O 8338   7.177   4.565   4.380
 2699WAT     H1 8339   7.098   4.590   4.324
 2699WAT     H2 8340   7.192   4.634   4.450
 2700WAT      O 8341   4.099   0.177   0.742
 2700WAT     H1 8342   4.008   0.136   0.738
 2700WAT     H2 8343   4.099   0.250   0.811
 2701WAT      O 8344   1.823   7.915   5.079
 2701WAT     H1 8345   1.780   7.832   5.044
 2701WAT     H2 8346   1.906   7.891   5.130
 2702WAT      O 8347   0.600   2.657   0.397
 2702WAT     H1 8348   0.666   2.710   0.451
 2702WAT     H2 8349   0.512   2.706   0.396
 2703WAT      O 8350   0.128   3.806   5.421
 2703WAT     H1 8351   0.102   3.879   5.485
 2703WAT     H2 8352   0.196   3.841   5.356
 2704WAT      O 8353   8.903   6.982   5.277
 2704WAT     H1 8354   8.909   6.887   5.308
 2704WAT     H2 8355   8.877   7.040   5.354
 2705WAT      O 8356   2.030   9.041   8.576
 2705WAT     H1 8357   1.959   9.084   8.632
 2705WAT     H2 8358   2.088   8.984   8.634
 2706WAT      O 8359   8.105   5.204   1.274
 2706WAT     H1 8360   8.105   5.134   1.203
 2706WAT     H2 8361   8.192   5.203   1.323
 2707WAT      O 8362   4.248   2.090   7.373
 2707WAT     H1 8363   4.191   2.053   7.299
 2707WAT     H2 8364   4.333   2.039   7.377
 2708WAT      O 8365   8.961   7.226   6.661
 2708WAT     H1 8366   8.991   7.218   6.566
 2708WAT     H2 8367   8.887   7.293   6.667
 2709WAT      O 8368   0.598   5.282   8.370
 2709WAT     H1 8369   0.682   5.311   8.417
 2709WAT     H2 8370   0.531   5.251   8.437
 2710WAT      O 8371   4.991   8.059   9.293
 2710WAT     H1 8372   4.920   8.112   9.246
 2710WAT     H2 8373   4.955   7.970   9.318
 2711WAT      O 8374   3.180   4.423   5.937
 2711WAT     H1 8375   3.090   4.465   5.927
 2711WAT     H2 8376   3.247   4.493   5.962
 2712WAT      O 8377   5.601   4.250   1.484
 2712WAT     H1 8378   5.644   4.247   1.574
 2712WAT     H2 8379   5.569   4.158   1.459
 2713WAT      O 8380   4.966   3.877   3.935
 2713WAT     H1 8381   4.894   3.823   3.893
 2713WAT     H2 8382   4.956   3.973   3.908
 2714WAT      O 8383   4.818   2.626   9.462
 2714WAT     H1 8384   4.885   2.683   9.509
 2714WAT     H2 8385   4.735   2.618   9.517
 2715WAT      O 8386   6.394   2.056   4.369
 2715WAT     H1 8387   6.312   2.113   4.377
 2715WAT     H2 8388   6.474   2.115   4.357
 2716WAT      O 8389   9.459   8.278   7.332
 2716WAT     H1 8390   9.497   8.358   7.285
 2716WAT     H2 8391   9.518   8.199   7.316
 2717WAT      O 8392   5.504   5.781   2.536
 2717WAT     H1 8393   5.495   5.681   2.533
 2717WAT     H2 8394   5.534   5.814   2.447
 2718WAT      O 8395   9.592   9.734   3.299
 2718WAT     H1 8396   9.627   9.760   3.209
 2718WAT     H2 8397   9.573   9.636   3.301
 2719WAT      O 8398   7.505   1.898   6.076
 2719WAT     H1 8399   7.542   1.963   6.009
 2719WAT     H2 8400   7.443   1.835   6.031
 2720WAT      O 8401   0.211   6.578   1.494
 2720WAT     H1 8402   0.196   6.538   1.403
 2720WAT     H2 8403   0.302   6.551   1.527
 2721WAT      O 8404   2.531   2.148   7.978
 2721WAT     H1 8405   2.483   2.080   7.923
 2721WAT     H2 8406   2.527   2.122   8.075
 2722WAT      O 8407   0.055   4.365   5.772
 2722WAT     H1 8408   0.083   4.324   5.686
 2722WAT     H2 8409  -0.018   4.431   5.756
 2723WAT      O 8410   1.528   1.076   2.948
 2723WAT     H1 8411   1.486   1.108   3.033
 2723WAT     H2 8412   1.474   1.000   2.911
 2724WAT      O 8413   5.293   2.836   3.617
 2724WAT     H1 8414   5.352   2.865   3.542
 2724WAT     H2 8415   5.271   2.915   3.675
 2725WAT      O 8416   5.506   5.833   7.452
 2725WAT     H1 8417   5.434   5.836   7.384
 2725WAT     H2 8418   5.536   5.738   7.464
 2726WAT      O 8419   6.783   3.256   2.941
 2726WAT     H1 8420   6.806   3.163   2.970
 2726WAT     H2 8421   6.808   3.320   3.013
 2727WAT      O 8422   7.182   8.630   8.414
 2727WAT     H1 8423   7.227   8.573   8.482
 2727WAT     H2 8424   7.110   8.684   8.457
 2728WAT      O 8425   2.974   6.660   6.606
 2728WAT     H1 8426   3.047   6.641   6.541
 2728WAT     H2 8427   3.012   6.665   6.699
 2729WAT      O 8428   0.218   1.648   7.433
 2729WAT     H1 8429   0.130   1.686   7.403
 2729WAT     H2 8430   0.228   1.662   7.531
 2730WAT      O 8431   2.078   8.651   6.843
 2730WAT     H1 8432   2.170   8.653   6.805
 2730WAT     H2 8433   2.011   8.648   6.768
 2731WAT      O 8434   7.353   0.816   4.129
 2731WAT     H1 8435   7.354   0.749   4.055
 2731WAT     H2 8436   7.444   0.857   4.138
 2732WAT      O 8437   1.735   1.522   0.051
 2732WAT     H1 8438   1.826   1.504   0.088
 2732WAT     H2 8439   1.711   1.617   0.066
 2733WAT      O 8440   6.478   0.356   9.809
 2733WAT     H1 8441   6.556   0.323   9.755
 2733WAT     H2 8442   6.399   0.367   9.749
 2734WAT      O 8443   9.122   3.804   2.094
 2734WAT     H1 8444   9.101   3.879   2.156
 2734WAT     H2 8445   9.170   3.732   2.144
 2735WAT      O 8446   7.748   6.757   8.737
 2735WAT     H1 8447   7.650   6.737   8.730
 2735WAT     H2 8448   7.792   6.687   8.793
 2736WAT      O 8449   5.072   9.727   5.091
 2736WAT     H1 8450   5.098   9.823   5.101
 2736WAT     H2 8451   5.097   9.677   5.173
 2737WAT      O 8452   5.102   0.638   7.957
 2737WAT     H1 8453   5.138   0.720   8.002
 2737WAT     H2 8454   5.148   0.626   7.869
 2738WAT      O 8455   6.128   5.575   2.153
 2738WAT     H1 8456   6.051   5.515   2.176
 2738WAT     H2 8457   6.198   5.522   2.105
 2739WAT      O 8458   9.306   3.141   5.123
 2739WAT     H1 8459   9.234   3.075   5.144
 2739WAT     H2 8460   9.268   3.216   5.070
 2740WAT      O 8461   0.562   4.939   8.637
 2740WAT     H1 8462   0.625   4.950   8.560
 2740WAT     H2 8463   0.600   4.874   8.702
 2741WAT      O 8464   3.752   7.441   9.683
 2741WAT     H1 8465   3.706   7.414   9.598
 2741WAT     H2 8466   3.729   7.375   9.755
 2742WAT      O 8467   1.398   4.712   6.826
 2742WAT     H1 8468   1.478   4.771   6.836
 2742WAT     H2 8469   1.363   4.687   6.917
 2743WAT      O 8470   2.279   5.502   4.284
 2743WAT     H1 8471   2.297   5.451   4.200
 2743WAT     H2 8472   2.219   5.579   4.263
 2744WAT      O 8473   2.917   5.670   6.055
 2744WAT     H1 8474   2.950   5.629   6.140
 2744WAT     H2 8475   2.854   5.745   6.077
 2745WAT      O 8476   8.154   6.702   4.726
 2745WAT     H1 8477   8.091   6.726   4.800
 2745WAT     H2 8478   8.231   6.649   4.763
 2746WAT      O 8479   7.473   8.585   2.761
 2746WAT     H1 8480   7.446   8.663   2.704
 2746WAT     H2 8481   7.502   8.510   2.702
 2747WAT      O 8482   4.439   0.642   0.079
 2747WAT     H1 8483   4.510   0.585   0.038
 2747WAT     H2 8484   4.349   0.600   0.065
 2748WAT      O 8485   6.450   4.286   7.025
 2748WAT     H1 8486   6.358   4.251   7.010
 2748WAT     H2 8487   6.502   4.282   6.940
 2749WAT      O 8488   5.543   8.973   2.182
 2749WAT     H1 8489   5.448   8.952   2.155
 2749WAT     H2 8490   5.602   8.896   2.157
 2750WAT      O 8491   8.854   6.581   1.289
 2750WAT     H1 8492   8.943   6.625   1.295
 2750WAT     H2 8493   8.840   6.519   1.366
 2751WAT      O 8494   2.293   2.904   3.133
 2751WAT     H1 8495   2.262   2.867   3.220
 2751WAT     H2 8496   2.367   2.969   3.148
 2752WAT      O 8497   2.538   7.040   2.355
 2752WAT     H1 8498   2.583   7.043   2.266
 2752WAT     H2 8499   2.452   7.090   2.350
 2753WAT      O 8500   6.121   2.033   7.562
 2753WAT     H1 8501   6.130   2.094   7.641
 2753WAT     H2 8502   6.115   2.088   7.479
 2754WAT      O 8503   9.661   4.733   8.096
 2754WAT     H1 8504   9.613   4.680   8.166
 2754WAT     H2 8505   9.709   4.671   8.034
 2755WAT      O 8506   9.037   3.320   9.352
 2755WAT     H1 8507   9.001   3.413   9.359
 2755WAT     H2 8508   9.133   3.320   9.380
 2756WAT      O 8509   4.956   6.761   7.742
 2756WAT     H1 8510   4.926   6.707   7.664
 2756WAT     H2 8511   5.056   6.760   7.746
 2757WAT      O 8512   0.103   3.957   3.648
 2757WAT     H1 8513   0.075   3.996   3.561
 2757WAT     H2 8514   0.027   3.964   3.713
 2758WAT      O 8515   3.352   0.212   8.473
 2758WAT     H1 8516   3.291   0.138   8.443
 2758WAT     H2 8517   3.298   0.284   8.517
 2759WAT      O 8518   6.755   6.505   2.098
 2759WAT     H1 8519   6.722   6.551   2.180
 2759WAT     H2 8520   6.686   6.512   2.026
 2760WAT      O 8521   8.061   1.568   1.959
 2760WAT     H1 8522   8.121   1.599   1.885
 2760WAT     H2 8523   8.115   1.552   2.042
 2761WAT      O 8524   0.381   3.597   5.638
 2761WAT     H1 8525   0.296   3.549   5.615
 2761WAT     H2 8526   0.444   3.592   5.561
 2762WAT      O 8527  -0.000   7.571   4.161
 2762WAT     H1 8528   0.071   7.592   4.093
 2762WAT     H2 8529   0.001   7.473   4.182
 2763WAT      O 8530   4.491   8.592   9.285
 2763WAT     H1 8531   4.583   8.586   9.247
 2763WAT     H2 8532   4.441   8.508   9.264
 2764WAT      O 8533   5.348   7.359   7.582
 2764WAT     H1 8534   5.388   7.449   7.564
 2764WAT     H2 8535   5.417   7.288   7.567
 2765WAT      O 8536   4.254   1.793   3.654
 2765WAT     H1 8537   4.293   1.809   3.745
 2765WAT     H2 8538   4.324   1.752   3.595
 2766WAT      O 8539   0.046   3.319   7.033
 2766WAT     H1 8540   0.069   3.254   6.961
 2766WAT     H2 8541   0.034   3.270   7.120
 2767WAT      O 8542   2.907   3.492   1.919
 2767WAT     H1 8543   2.980   3.425   1.932
 2767WAT     H2 8544   2.944   3.584   1.930
 2768WAT      O 8545   6.015   1.419   7.958
 2768WAT     H1 8546   5.989   1.332   7.916
 2768WAT     H2 8547   6.115   1.427   7.959
 2769WAT      O 8548   4.574   4.517   9.243
 2769WAT     H1 8549   4.573   4.428   9.197
 2769WAT     H2 8550   4.605   4.587   9.179
 2770WAT      O 8551   2.132   1.864   3.094
 2770WAT     H1 8552   2.182   1.797   3.039
 2770WAT     H2 8553   2.112   1.945   3.039
 2771WAT      O 8554   8.925   6.082   9.492
 2771WAT     H1 8555   8.931   6.136   9.576
 2771WAT     H2 8556   8.945   6.139   9.413
 2772WAT      O 8557   7.979   0.218   6.101
 2772WAT     H1 8558   7.952   0.209   6.005
 2772WAT     H2 8559   8.078   0.231   6.106
 2773WAT      O 8560   4.661   6.588   1.719
 2773WAT     H1 8561   4.592   6.590   1.647
 2773WAT     H2 8562   4.721   6.667   1.711
 2774WAT      O 8563   6.796   2.082   8.077
 2774WAT     H1 8564   6.850   2.078   7.992
 2774WAT     H2 8565   6.730   2.007   8.078
 2775WAT      O 8566   5.650   4.337   2.444
 2775WAT     H1 8567   5.610   4.262   2.496
 2775WAT     H2 8568   5.599   4.350   2.359
 2776WAT      O 8569   4.904   6.197   7.356
 2776WAT     H1 8570   4.937   6.291   7.344
 2776WAT     H2 8571   4.805   6.198   7.366
 2777WAT      O 8572   9.817   2.006   7.950
 2777WAT     H1 8573   9.886   2.056   8.003
 2777WAT     H2 8574   9.813   1.911   7.980
 2778WAT      O 8575   3.941   6.543   2.063
 2778WAT     H1 8576   3.929   6.628   2.114
 2778WAT     H2 8577   3.978   6.564   1.972
 2779WAT      O 8578   5.328   1.699   6.980
 2779WAT     H1 8579   5.411   1.742   6.945
 2779WAT     H2 8580   5.258   1.697   6.909
 2780WAT      O 8581   0.987   9.205   6.235
 2780WAT     H1 8582   1.046   9.246   6.165
 2780WAT     H2 8583   1.044   9.158   6.303
 2781WAT      O 8584   1.328   0.200   2.393
 2781WAT     H1 8585   1.290   0.211   2.301
 2781WAT     H2 8586   1.358   0.106   2.406
 2782WAT      O 8587   2.818   9.754   3.805
 2782WAT     H1 8588   2.735   9.742   3.860
 2782WAT     H2 8589   2.833   9.851   3.787
 2783WAT      O 8590   3.440   4.634   1.938
 2783WAT     H1 8591   3.433   4.551   1.883
 2783WAT     H2 8592   3.359   4.691   1.923
 2784WAT      O 8593   6.938   2.449   3.994
 2784WAT     H1 8594   6.893   2.501   3.922
 2784WAT     H2 8595   6.955   2.509   4.072
 2785WAT      O 8596   0.411   5.065   8.849
 2785WAT     H1 8597   0.332   5.004   8.844
 2785WAT     H2 8598   0.476   5.041   8.778
 2786WAT      O 8599   4.968   5.373   5.322
 2786WAT     H1 8600   4.877   5.409   5.301
 2786WAT     H2 8601   4.962   5.306   5.396
 2787WAT      O 8602   2.121   8.461   7.090
 2787WAT     H1 8603   2.105   8.541   7.033
 2787WAT     H2 8604   2.219   8.454   7.110
 2788WAT      O 8605   2.557   5.609   5.046
 2788WAT     H1 8606   2.498   5.654   5.112
 2788WAT     H2 8607   2.576   5.671   4.970
 2789WAT      O 8608   0.287   3.938   0.244
 2789WAT     H1 8609   0.207   3.964   0.191
 2789WAT     H2 8610   0.327   3.855   0.205
 2790WAT      O 8611   8.468   7.132   8.070
 2790WAT     H1 8612   8.567   7.125   8.086
 2790WAT     H2 8613   8.424   7.169   8.152
 2791WAT      O 8614   2.509   3.298   4.993
 2791WAT     H1 8615   2.578   3.226   4.987
 2791WAT     H2 8616   2.476   3.320   4.901
 2792WAT      O 8617   7.688   5.295   7.433
 2792WAT     H1 8618   7.614   5.312   7.367
 2792WAT     H2 8619   7.773   5.279   7.383
 2793WAT      O 8620   9.119   3.162   7.269
 2793WAT     H1 8621   9.093   3.087   7.208
 2793WAT     H2 8622   9.130   3.246   7.216
 2794WAT      O 8623   9.322   3.032   4.649
 2794WAT     H1 8624   9.307   3.016   4.551
 2794WAT     H2 8625   9.235   3.057   4.692
 2795WAT      O 8626   8.808   3.616   1.411
 2795WAT     H1 8627   8.901   3.611   1.375
 2795WAT     H2 8628   8.764   3.699   1.378
 2796WAT      O 8629   9.069   6.299   6.054
 2796WAT     H1 8630   8.989   6.293   5.994
 2796WAT     H2 8631   9.050   6.253   6.140
 2797WAT      O 8632   9.435   3.052   9.702
 2797WAT     H1 8633   9.363   3.115   9.728
 2797WAT     H2 8634   9.522   3.101   9.692
 2798WAT      O 8635   9.082   1.339   2.390
 2798WAT     H1 8636   9.173   1.364   2.423
 2798WAT     H2 8637   9.019   1.334   2.468
 2799WAT      O 8638   5.509   0.463   3.147
 2799WAT     H1 8639   5.416   0.435   3.170
 2799WAT     H2 8640   5.506   0.544   3.089
 2800WAT      O 8641   7.347   3.244   2.490
 2800WAT     H1 8642   7.338   3.307   2.566
 2800WAT     H2 8643   7.334   3.293   2.404
 2801WAT      O 8644   9.304   2.617   1.252
 2801WAT     H1 8645   9.255   2.581   1.332
 2801WAT     H2 8646   9.381   2.558   1.231
 2802WAT      O 8647   5.086   0.245   4.275
 2802WAT     H1 8648   5.004   0.301   4.288
 2802WAT     H2 8649   5.164   0.291   4.318
 2803WAT      O 8650   1.279   1.063   1.917
 2803WAT     H1 8651   1.343   0.995   1.951
 2803WAT     H2 8652   1.189   1.047   1.959
 2804WAT      O 8653   0.150   1.254   3.615
 2804WAT     H1 8654   0.056   1.237   3.587
 2804WAT     H2 8655   0.160   1.349   3.644
 2805WAT      O 8656   4.526   4.629   2.755
 2805WAT     H1 8657   4.585   4.707   2.736
 2805WAT     H2 8658   4.583   4.551   2.781
 2806WAT      O 8659   6.769   3.691   6.174
 2806WAT     H1 8660   6.706   3.681   6.097
 2806WAT     H2 8661   6.854   3.643   6.154
 2807WAT      O 8662   2.975   1.945   0.100
 2807WAT     H1 8663   2.958   2.002   0.019
 2807WAT     H2 8664   2.888   1.919   0.141
 2808WAT      O 8665   4.044   9.297   0.578
 2808WAT     H1 8666   4.108   9.373   0.570
 2808WAT     H2 8667   4.017   9.286   0.674
 2809WAT      O 8668   4.572   0.018   2.375
 2809WAT     H1 8669   4.610   0.095   2.426
 2809WAT     H2 8670   4.563  -0.061   2.436
 2810WAT      O 8671   1.860   2.546   8.157
 2810WAT     H1 8672   1.846   2.644   8.170
 2810WAT     H2 8673   1.864   2.526   8.060
 2811WAT      O 8674   3.089   0.005   4.521
 2811WAT     H1 8675   3.007   0.056   4.546
 2811WAT     H2 8676   3.081  -0.028   4.427
 2812WAT      O 8677   8.959   9.166   0.828
 2812WAT     H1 8678   8.878   9.150   0.884
 2812WAT     H2 8679   9.002   9.252   0.856
 2813WAT      O 8680   3.874   6.617   7.016
 2813WAT     H1 8681   3.958   6.648   6.971
 2813WAT     H2 8682   3.797   6.673   6.986
 2814WAT      O 8683   7.330   6.317   1.431
 2814WAT     H1 8684   7.389   6.264   1.370
 2814WAT     H2 8685   7.384   6.385   1.479
 2815WAT      O 8686   5.539   1.832   6.884
 2815WAT     H1 8687   5.508   1.922   6.852
 2815WAT     H2 8688   5.613   1.845   6.951
 2816WAT      O 8689   7.284   0.576   8.575
 2816WAT     H1 8690   7.214   0.506   8.557
 2816WAT     H2 8691   7.239   0.660   8.606
 2817WAT      O 8692   1.874   8.209   0.716
 2817WAT     H1 8693   1.931   8.138   0.675
 2817WAT     H2 8694   1.782   8.203   0.679
 2818WAT      O 8695   3.074   5.405   3.357
 2818WAT     H1 8696   3.033   5.359   3.435
 2818WAT     H2 8697   3.114   5.338   3.295
 2819WAT      O 8698   0.252   0.060   9.008
 2819WAT     H1 8699   0.349   0.083   9.012
 2819WAT     H2 8700   0.205   0.098   9.087
 2820WAT      O 8701   0.487   6.206   0.599
 2820WAT     H1 8702   0.423   6.283   0.606
 2820WAT     H2 8703   0.462   6.136   0.666
 2821WAT      O 8704   2.520   8.380   8.884
 2821WAT     H1 8705   2.553   8.346   8.971
 2821WAT     H2 8706   2.581   8.349   8.811
 2822WAT      O 8707   1.660   9.719   1.164
 2822WAT     H1 8708   1.666   9.814   1.194
 2822WAT     H2 8709   1.725   9.663   1.216
 2823WAT      O 8710   7.221   1.823   5.405
 2823WAT     H1 8711   7.264   1.746   5.358
 2823WAT     H2 8712   7.130   1.840   5.366
 2824WAT      O 8713   1.383   7.509   8.828
 2824WAT     H1 8714   1.410   7.462   8.912
 2824WAT     H2 8715   1.380   7.608   8.845
 2825WAT      O 8716   0.125   2.069   6.159
 2825WAT     H1 8717   0.196   2.043   6.223
 2825WAT     H2 8718   0.037   2.033   6.189
 2826WAT      O 8719   6.729   4.305   7.839
 2826WAT     H1 8720   6.642   4.333   7.878
 2826WAT     H2 8721   6.802   4.362   7.875
 2827WAT      O 8722   0.757   5.102   1.247
 2827WAT     H1 8723   0.751   5.164   1.325
 2827WAT     H2 8724   0.680   5.117   1.186
 2828WAT      O 8725   6.120   1.076   2.069
 2828WAT     H1 8726   6.182   1.113   1.999
 2828WAT     H2 8727   6.174   1.032   2.141
 2829WAT      O 8728   1.699   9.382   7.720
 2829WAT     H1 8729   1.776   9.401   7.781
 2829WAT     H2 8730   1.721   9.413   7.628
 2830WAT      O 8731   9.022   3.973   0.884
 2830WAT     H1 8732   8.941   3.950   0.829
 2830WAT     H2 8733   9.000   4.050   0.945
 2831WAT      O 8734   9.010   4.780   4.871
 2831WAT     H1 8735   9.039   4.807   4.963
 2831WAT     H2 8736   8.914   4.807   4.857
 2832WAT      O 8737   7.872   6.934   4.905
 2832WAT     H1 8738   7.846   7.014   4.960
 2832WAT     H2 8739   7.965   6.907   4.926
 2833WAT      O 8740   1.660   6.588   6.696
 2833WAT     H1 8741   1.718   6.533   6.636
 2833WAT     H2 8742   1.625   6.531   6.770
 2834WAT      O 8743   7.463   5.580   1.349
 2834WAT     H1 8744   7.368   5.592   1.319
 2834WAT     H2 8745   7.464   5.544   1.442
 2835WAT      O 8746   3.378   4.924   0.687
 2835WAT     H1 8747   3.338   4.837   0.716
 2835WAT     H2 8748   3.361   4.939   0.590
 2836WAT      O 8749   1.150   1.103   8.688
 2836WAT     H1 8750   1.164   1.056   8.776
 2836WAT     H2 8751   1.209   1.062   8.619
 2837WAT      O 8752   4.981   3.386   0.410
 2837WAT     H1 8753   5.022   3.455   0.469
 2837WAT     H2 8754   5.007   3.403   0.315
 2838WAT      O 8755   9.020   2.125   0.242
 2838WAT     H1 8756   8.983   2.195   0.181
 2838WAT     H2 8757   8.965   2.122   0.326
 2839WAT      O 8758   0.346   8.625   6.884
 2839WAT     H1 8759   0.333   8.600   6.788
 2839WAT     H2 8760   0.409   8.561   6.928
 2840WAT      O 8761   2.962   1.394   4.850
 2840WAT     H1 8762   2.985   1.352   4.763
 2840WAT     H2 8763   3.043   1.436   4.891
 2841WAT      O 8764   9.870   7.484   2.081
 2841WAT     H1 8765   9.829   7.406   2.129
 2841WAT     H2 8766   9.963   7.461   2.052
 2842WAT      O 8767   9.721   0.739   3.736
 2842WAT     H1 8768   9.702   0.712   3.642
 2842WAT     H2 8769   9.718   0.838   3.744
 2843WAT      O 8770   6.870   6.839   4.721
 2843WAT     H1 8771   6.934   6.767   4.748
 2843WAT     H2 8772   6.778   6.817   4.754
 2844WAT      O 8773   5.031   8.788   1.862
 2844WAT     H1 8774   5.104   8.727   1.892
 2844WAT     H2 8775   4.977   8.818   1.941
 2845WAT      O 8776   8.915   8.138   3.179
 2845WAT     H1 8777   9.001   8.092   3.199
 2845WAT     H2 8778   8.918   8.231   3.215
 2846WAT      O 8779   6.536   1.485   8.954
 2846WAT     H1 8780   6.605   1.549   8.988
 2846WAT     H2 8781   6.472   1.462   9.027
 2847WAT      O 8782   6.993   0.770   3.565
 2847WAT     H1 8783   7.027   0.772   3.470
 2847WAT     H2 8784   7.060   0.813   3.625
 2848WAT      O 8785   2.079   8.899   9.367
 2848WAT     H1 8786   1.987   8.910   9.328
 2848WAT     H2 8787   2.073   8.899   9.467
 2849WAT      O 8788   7.672   6.766   6.455
 2849WAT     H1 8789   7.752   6.754   6.396
 2849WAT     H2 8790   7.701   6.762   6.551
 2850WAT      O 8791   8.974   5.556   3.989
 2850WAT     H1 8792   9.071   5.576   3.977
 2850WAT     H2 8793   8.920   5.635   3.960
 2851WAT      O 8794   1.191   1.019   7.181
 2851WAT     H1 8795   1.099   1.038   7.148
 2851WAT     H2 8796   1.223   0.932   7.143
 2852WAT      O 8797   7.886   7.747   0.700
 2852WAT     H1 8798   7.924   7.663   0.662
 2852WAT     H2 8799   7.830   7.792   0.630
 2853WAT      O 8800   0.723   9.756   1.492
 2853WAT     H1 8801   0.735   9.828   1.561
 2853WAT     H2 8802   0.632   9.715   1.503
 2854WAT      O 8803   2.610   7.715   9.501
 2854WAT     H1 8804   2.618   7.649   9.426
 2854WAT     H2 8805   2.604   7.666   9.588
 2855WAT      O 8806   7.294   6.467   4.270
 2855WAT     H1 8807   7.332   6.397   4.209
 2855WAT     H2 8808   7.340   6.554   4.252
 2856WAT      O 8809   1.540   6.327   1.972
 2856WAT     H1 8810   1.481   6.361   1.899
 2856WAT     H2 8811   1.629   6.300   1.933
 2857WAT      O 8812   7.781   3.753   6.525
 2857WAT     H1 8813   7.825   3.738   6.614
 2857WAT     H2 8814   7.702   3.692   6.516
 2858WAT      O 8815   4.894   3.435   8.589
 2858WAT     H1 8816   4.977   3.391   8.556
 2858WAT     H2 8817   4.918   3.517   8.640
 2859WAT      O 8818   5.975   1.513   1.244
 2859WAT     H1 8819   6.060   1.557   1.272
 2859WAT     H2 8820   5.922   1.576   1.188
 2860WAT      O 8821   7.959   0.661   1.270
 2860WAT     H1 8822   7.951   0.599   1.192
 2860WAT     H2 8823   7.867   0.678   1.307
 2861WAT      O 8824   5.943   6.122   5.675
 2861WAT     H1 8825   5.911   6.129   5.769
 2861WAT     H2 8826   6.042   6.140   5.672
 2862WAT      O 8827   7.148   5.057   4.523
 2862WAT     H1 8828   7.173   5.099   4.610
 2862WAT     H2 8829   7.054   5.081   4.500
 2863WAT      O 8830   1.561   1.397   1.891
 2863WAT     H1 8831   1.659   1.381   1.883
 2863WAT     H2 8832   1.515   1.363   1.810
 2864WAT      O 8833   6.932   1.150   1.589
 2864WAT     H1 8834   6.903   1.073   1.532
 2864WAT     H2 8835   6.882   1.149   1.675
 2865WAT      O 8836   4.530   4.879   0.744
 2865WAT     H1 8837   4.527   4.960   0.685
 2865WAT     H2 8838   4.607   4.887   0.807
 2866WAT      O 8839   0.860   0.098   2.689
 2866WAT     H1 8840   0.760   0.099   2.688
 2866WAT     H2 8841   0.892   0.048   2.770
 2867WAT      O 8842   8.071   9.248   8.242
 2867WAT     H1 8843   8.018   9.331   8.255
 2867WAT     H2 8844   8.091   9.207   8.331
 2868WAT      O 8845   9.604   1.563   2.118
 2868WAT     H1 8846   9.520   1.534   2.164
 2868WAT     H2 8847   9.644   1.640   2.166
 2869WAT      O 8848   4.655   6.921   2.648
 2869WAT     H1 8849   4.628   6.827   2.627
 2869WAT     H2 8850   4.754   6.926   2.657
 2870WAT      O 8851   6.917   7.455   1.277
 2870WAT     H1 8852   6.887   7.371   1.231
 2870WAT     H2 8853   7.016   7.465   1.266
 2871WAT      O 8854   7.737   2.731   6.397
 2871WAT     H1 8855   7.830   2.766   6.387
 2871WAT     H2 8856   7.733   2.638   6.359
 2872WAT      O 8857   6.676   6.467   5.497
 2872WAT     H1 8858   6.677   6.564   5.472
 2872WAT     H2 8859   6.743   6.450   5.569
 2873WAT      O 8860   8.294   3.409   9.881
 2873WAT     H1 8861   8.342   3.410   9.793
 2873WAT     H2 8862   8.283   3.503   9.914
 2874WAT      O 8863   7.491   7.799   0.833
 2874WAT     H1 8864   7.398   7.764   0.844
 2874WAT     H2 8865   7.522   7.840   0.919
 2875WAT      O 8866   1.053   6.595   8.835
 2875WAT     H1 8867   1.089   6.533   8.766
 2875WAT     H2 8868   1.118   6.604   8.911
 2876WAT      O 8869   1.909   7.334   2.217
 2876WAT     H1 8870   1.917   7.434   2.217
 2876WAT     H2 8871   1.985   7.295   2.269
 2877WAT      O 8872   8.489   7.069   1.067
 2877WAT     H1 8873   8.463   7.092   1.161
 2877WAT     H2 8874   8.407   7.066   1.009
 2878WAT      O 8875   5.635   4.144   3.121
 2878WAT     H1 8876   5.614   4.067   3.061
 2878WAT     H2 8877   5.720   4.188   3.091
 2879WAT      O 8878   0.486   8.286   0.231
 2879WAT     H1 8879   0.574   8.277   0.278
 2879WAT     H2 8880   0.481   8.219   0.157
 2880WAT      O 8881   9.423   8.929   9.803
 2880WAT     H1 8882   9.343   8.869   9.808
 2880WAT     H2 8883   9.472   8.926   9.891
 2881WAT      O 8884   0.640   5.593   7.789
 2881WAT     H1 8885   0.573   5.573   7.717
 2881WAT     H2 8886   0.728   5.553   7.764
 2882WAT      O 8887   6.795   4.857   2.618
 2882WAT     H1 8888   6.769   4.795   2.692
 2882WAT     H2 8889   6.789   4.809   2.531
 2883WAT      O 8890   0.405   3.659   8.033
 2883WAT     H1 8891   0.352   3.596   7.975
 2883WAT     H2 8892   0.472   3.606   8.086
 2884WAT      O 8893   9.090   6.272   6.838
 2884WAT     H1 8894   9.144   6.353   6.861
 2884WAT     H2 8895   8.997   6.299   6.814
 2885WAT      O 8896   4.215   5.290   1.973
 2885WAT     H1 8897   4.284   5.242   2.027
 2885WAT     H2 8898   4.147   5.331   2.034
 2886WAT      O 8899   4.994   0.279   9.813
 2886WAT     H1 8900   4.961   0.185   9.819
 2886WAT     H2 8901   4.944   0.336   9.878
 2887WAT      O 8902   8.337   9.537   9.281
 2887WAT     H1 8903   8.322   9.472   9.355
 2887WAT     H2 8904   8.416   9.595   9.303
 2888WAT      O 8905   5.500   2.098   8.122
 2888WAT     H1 8906   5.514   2.157   8.202
 2888WAT     H2 8907   5.425   2.134   8.067
 2889WAT      O 8908   6.305   4.405   2.066
 2889WAT     H1 8909   6.321   4.311   2.095
 2889WAT     H2 8910   6.383   4.437   2.012
 2890WAT      O 8911   4.575   3.949   2.176
 2890WAT     H1 8912   4.609   3.860   2.208
 2890WAT     H2 8913   4.652   4.011   2.162
 2891WAT      O 8914   1.859   0.230   0.124
 2891WAT     H1 8915   1.900   0.205   0.211
 2891WAT     H2 8916   1.890   0.167   0.053
 2892WAT      O 8917   1.970   6.839   8.374
 2892WAT     H1 8918   2.002   6.931   8.395
 2892WAT     H2 8919   1.887   6.845   8.319
 2893WAT      O 8920   6.771   1.862   2.192
 2893WAT     H1 8921   6.847   1.903   2.142
 2893WAT     H2 8922   6.685   1.886   2.147
 2894WAT      O 8923   7.226   1.585   5.756
 2894WAT     H1 8924   7.297   1.532   5.710
 2894WAT     H2 8925   7.145   1.590   5.697
 2895WAT      O 8926   0.454   7.512   7.214
 2895WAT     H1 8927   0.390   7.436   7.227
 2895WAT     H2 8928   0.418   7.574   7.145
 2896WAT      O 8929   5.800   7.271   5.895
 2896WAT     H1 8930   5.780   7.324   5.813
 2896WAT     H2 8931   5.889   7.300   5.932
 2897WAT      O 8932   1.068   0.482   2.400
 2897WAT     H1 8933   1.034   0.426   2.476
 2897WAT     H2 8934   1.049   0.436   2.314
 2898WAT      O 8935   0.122   3.209   5.820
 2898WAT     H1 8936   0.120   3.143   5.895
 2898WAT     H2 8937   0.154   3.163   5.736
 2899WAT      O 8938   6.625   3.724   6.660
 2899WAT     H1 8939   6.533   3.684   6.664
 2899WAT     H2 8940   6.620   3.815   6.618
 2900WAT      O 8941   7.620   5.208   0.906
 2900WAT     H1 8942   7.665   5.254   0.829
 2900WAT     H2 8943   7.595   5.276   0.975
 2901WAT      O 8944   1.019   8.068   1.673
 2901WAT     H1 8945   1.002   7.971   1.690
 2901WAT     H2 8946   1.113   8.081   1.642
 2902WAT      O 8947   3.770   9.001   4.931
 2902WAT     H1 8948   3.865   9.030   4.915
 2902WAT     H2 8949   3.768   8.933   5.004
 2903WAT      O 8950   1.735   1.812   2.564
 2903WAT     H1 8951   1.764   1.848   2.475
 2903WAT     H2 8952   1.640   1.839   2.581
 2904WAT      O 8953   2.977   9.150   5.791
 2904WAT     H1 8954   3.032   9.232   5.807
 2904WAT     H2 8955   3.037   9.073   5.769
 2905WAT      O 8956   7.310   8.417   2.943
 2905WAT     H1 8957   7.366   8.470   2.880
 2905WAT     H2 8958   7.345   8.324   2.950
 2906WAT      O 8959   6.466   2.263   9.010
 2906WAT     H1 8960   6.456   2.354   9.049
 2906WAT     H2 8961   6.560   2.251   8.978
 2907WAT      O 8962   8.793   0.212   2.070
 2907WAT     H1 8963   8.882   0.253   2.047
 2907WAT     H2 8964   8.794   0.115   2.046
 2908WAT      O 8965   7.704   2.419   7.015
 2908WAT     H1 8966   7.772   2.486   7.043
 2908WAT     H2 8967   7.709   2.339   7.076
 2909WAT      O 8968   2.090   3.218   1.165
 2909WAT     H1 8969   2.147   3.297   1.189
 2909WAT     H2 8970   2.091   3.152   1.240
 2910WAT      O 8971   3.204   3.274   9.830
 2910WAT     H1 8972   3.224   3.182   9.798
 2910WAT     H2 8973   3.143   3.269   9.910
 2911WAT      O 8974   6.998   6.980   5.812
 2911WAT     H1 8975   6.914   6.927   5.798
 2911WAT     H2 8976   6.977   7.078   5.806
 2912WAT      O 8977   4.095   1.636   5.946
 2912WAT     H1 8978   4.102   1.539   5.922
 2912WAT     H2 8979   4.184   1.680   5.933
 2913WAT      O 8980   9.178   7.360   1.241
 2913WAT     H1 8981   9.152   7.446   1.198
 2913WAT     H2 8982   9.140   7.356   1.333
 2914WAT      O 8983   1.607   0.469   4.700
 2914WAT     H1 8984   1.612   0.511   4.791
 2914WAT     H2 8985   1.697   0.470   4.657
 2915WAT      O 8986   3.313   5.217   0.704
 2915WAT     H1 8987   3.298   5.288   0.772
 2915WAT     H2 8988   3.232   5.159   0.697
 2916WAT      O 8989   2.845   0.236   2.412
 2916WAT     H1 8990   2.822   0.179   2.491
 2916WAT     H2 8991   2.762   0.257   2.362
 2917WAT      O 8992   5.784   2.213   1.555
 2917WAT     H1 8993   5.795   2.143   1.625
 2917WAT     H2 8994   5.805   2.174   1.465
 2918WAT      O 8995   0.878   5.404   8.483
 2918WAT     H1 8996   0.875   5.310   8.448
 2918WAT     H2 8997   0.905   5.403   8.579
 2919WAT      O 8998   2.501   6.609   6.381
 2919WAT     H1 8999   2.473   6.550   6.305
 2919WAT     H2 9000   2.472   6.703   6.364
 2920WAT      O 9001   6.732   8.870   6.420
 2920WAT     H1 9002   6.808   8.807   6.403
 2920WAT     H2 9003   6.708   8.917   6.335
 2921WAT      O 9004   6.350   1.992   3.805
 2921WAT     H1 9005   6.411   2.038   3.869
 2921WAT     H2 9006   6.371   2.021   3.712
 2922WAT      O 9007   1.474   6.249   6.271
 2922WAT     H1 9008   1.384   6.291   6.274
 2922WAT     H2 9009   1.543   6.315   6.299
 2923WAT      O 9010   5.219   6.689   8.876
 2923WAT     H1 9011   5.206   6.691   8.975
 2923WAT     H2 9012   5.193   6.777   8.837
 2924WAT      O 9013   2.028   0.488   0.668
 2924WAT     H1 9014   2.096   0.421   0.697
 2924WAT     H2 9015   2.049   0.520   0.576
 2925WAT      O 9016   3.673   1.668   7.843
 2925WAT     H1 9017   3.623   1.722   7.911
 2925WAT     H2 9018   3.618   1.660   7.760
 2926WAT      O 9019   7.340   4.876   5.986
 2926WAT     H1 9020   7.389   4.959   6.013
 2926WAT     H2 9021   7.246   4.880   6.021
 2927WAT      O 9022   9.258   7.868   2.694
 2927WAT     H1 9023   9.280   7.771   2.704
 2927WAT     H2 9024   9.189   7.879   2.623
 2928WAT      O 9025   5.446   7.536   1.514
 2928WAT     H1 9026   5.487   7.447   1.534
 2928WAT     H2 9027   5.506   7.609   1.547
 2929WAT      O 9028   1.290   7.783   3.256
 2929WAT     H1 9029   1.360   7.841   3.298
 2929WAT     H2 9030   1.202   7.799   3.302
 2930WAT      O 9031   8.133   0.889   3.020
 2930WAT     H1 9032   8.053   0.843   3.058
 2930WAT     H2 9033   8.213   0.831   3.029
 2931WAT      O 9034   2.167   8.015   6.157
 2931WAT     H1 9035   2.088   7.957   6.175
 2931WAT     H2 9036   2.159   8.099   6.211
 2932WAT      O 9037   4.240   0.107   1.039
 2932WAT     H1 9038   4.238   0.152   1.128
 2932WAT     H2 9039   4.274   0.013   1.049
 2933WAT      O 9040   1.132   8.068   9.587
 2933WAT     H1 9041   1.164   8.030   9.674
 2933WAT     H2 9042   1.091   7.995   9.532
 2934WAT      O 9043   0.067   6.046   3.651
 2934WAT     H1 9044   0.044   6.070   3.745
 2934WAT     H2 9045   0.007   5.973   3.620
 2935WAT      O 9046   9.525   8.458   7.941
 2935WAT     H1 9047   9.558   8.551   7.924
 2935WAT     H2 9048   9.425   8.458   7.938
 2936WAT      O 9049   2.318   0.862   7.490
 2936WAT     H1 9050   2.253   0.789   7.509
 2936WAT     H2 9051   2.362   0.892   7.575
 2937WAT      O 9052   8.690   4.468   9.700
 2937WAT     H1 9053   8.775   4.511   9.672
 2937WAT     H2 9054   8.710   4.376   9.736
 2938WAT      O 9055   0.829   2.522   8.902
 2938WAT     H1 9056   0.897   2.502   8.972
 2938WAT     H2 9057   0.849   2.469   8.820
 2939WAT      O 9058   5.882   2.459   0.144
 2939WAT     H1 9059   5.804   2.468   0.206
 2939WAT     H2 9060   5.859   2.499   0.055
 2940WAT      O 9061   5.347   8.142   1.231
 2940WAT     H1 9062   5.340   8.220   1.293
 2940WAT     H2 9063   5.419   8.159   1.164
 2941WAT      O 9064   8.017   4.783   5.045
 2941WAT     H1 9065   8.081   4.847   5.003
 2941WAT     H2 9066   7.926   4.825   5.048
 2942WAT      O 9067   9.443   0.636   1.567
 2942WAT     H1 9068   9.347   0.662   1.574
 2942WAT     H2 9069   9.489   0.694   1.499
 2943WAT      O 9070   3.716   4.475   4.638
 2943WAT     H1 9071   3.810   4.451   4.616
 2943WAT     H2 9072   3.714   4.531   4.721
 2944WAT      O 9073   9.324   2.496   7.296
 2944WAT     H1 9074   9.391   2.528   7.362
 2944WAT     H2 9075   9.365   2.495   7.205
 2945WAT      O 9076   5.836   0.917   9.358
 2945WAT     H1 9077   5.802   0.961   9.442
 2945WAT     H2 9078   5.858   0.987   9.290
 2946WAT      O 9079   5.289   1.334   1.461
 2946WAT     H1 9080   5.247   1.341   1.551
 2946WAT     H2 9081   5.307   1.238   1.439
 2947WAT      O 9082   0.584   7.881   2.922
 2947WAT     H1 9083   0.628   7.809   2.868
 2947WAT     H2 9084   0.582   7.965   2.869
 2948WAT      O 9085   9.489   0.322   1.421
 2948WAT     H1 9086   9.478   0.240   1.365
 2948WAT     H2 9087   9.523   0.296   1.512
 2949WAT      O 9088   7.005   5.275   3.106
 2949WAT     H1 9089   6.955   5.358   3.128
 2949WAT     H2 9090   6.973   5.238   3.019
 2950WAT      O 9091   7.781   7.216   2.440
 2950WAT     H1 9092   7.786   7.116   2.433
 2950WAT     H2 9093   7.812   7.245   2.531
 2951WAT      O 9094   2.021   8.709   0.520
 2951WAT     H1 9095   1.965   8.774   0.571
 2951WAT     H2 9096   1.975   8.687   0.434
 2952WAT      O 9097   6.979   5.965   2.713
 2952WAT     H1 9098   6.951   6.051   2.755
 2952WAT     H2 9099   6.904   5.929   2.657
 2953WAT      O 9100   0.654   8.901   2.015
 2953WAT     H1 9101   0.574   8.915   1.957
 2953WAT     H2 9102   0.714   8.981   2.010
 2954WAT      O 9103   2.269   5.754   8.899
 2954WAT     H1 9104   2.341   5.753   8.830
 2954WAT     H2 9105   2.235   5.661   8.913
 2955WAT      O 9106   5.977   0.049   4.957
 2955WAT     H1 9107   6.026   0.136   4.966
 2955WAT     H2 9108   5.900   0.047   5.020
 2956WAT      O 9109   6.242   2.145   2.970
 2956WAT     H1 9110   6.268   2.096   2.887
 2956WAT     H2 9111   6.169   2.094   3.017
 2957WAT      O 9112   4.534   0.851   9.263
 2957WAT     H1 9113   4.490   0.928   9.309
 2957WAT     H2 9114   4.551   0.778   9.328
 2958WAT      O 9115   4.453   3.410   9.431
 2958WAT     H1 9116   4.369   3.441   9.476
 2958WAT     H2 9117   4.525   3.477   9.447
 2959WAT      O 9118   6.481   6.594   6.824
 2959WAT     H1 9119   6.469   6.496   6.837
 2959WAT     H2 9120   6.566   6.623   6.868
 2960WAT      O 9121   5.326   5.887   3.248
 2960WAT     H1 9122   5.417   5.889   3.290
 2960WAT     H2 9123   5.327   5.939   3.163
 2961WAT      O 9124   6.760   3.271   7.997
 2961WAT     H1 9125   6.699   3.201   7.961
 2961WAT     H2 9126   6.842   3.277   7.939
 2962WAT      O 9127   5.561   1.474   1.065
 2962WAT     H1 9128   5.552   1.561   1.114
 2962WAT     H2 9129   5.470   1.439   1.043
 2963WAT      O 9130   2.407   7.232   2.210
 2963WAT     H1 9131   2.408   7.187   2.120
 2963WAT     H2 9132   2.436   7.327   2.199
 2964WAT      O 9133   4.409   4.030   2.380
 2964WAT     H1 9134   4.321   3.984   2.393
 2964WAT     H2 9135   4.445   4.008   2.289
 2965WAT      O 9136   9.807   1.822   4.686
 2965WAT     H1 9137   9.724   1.807   4.739
 2965WAT     H2 9138   9.887   1.814   4.747
 2966WAT      O 9139   4.755   5.700   2.572
 2966WAT     H1 9140   4.704   5.741   2.496
 2966WAT     H2 9141   4.827   5.642   2.535
 2967WAT      O 9142   0.742   2.242   2.341
 2967WAT     H1 9143   0.709   2.333   2.365
 2967WAT     H2 9144   0.670   2.192   2.292
 2968WAT      O 9145   9.293   7.765   3.425
 2968WAT     H1 9146   9.292   7.719   3.336
 2968WAT     H2 9147   9.270   7.862   3.413
 2969WAT      O 9148   3.073   2.856   0.212
 2969WAT     H1 9149   3.104   2.839   0.119
 2969WAT     H2 9150   2.981   2.896   0.210
 2970WAT      O 9151   8.363   6.324   1.689
 2970WAT     H1 9152   8.448   6.314   1.637
 2970WAT     H2 9153   8.362   6.414   1.732
 2971WAT      O 9154   0.218   3.312   1.534
 2971WAT     H1 9155   0.301   3.344   1.487
 2971WAT     H2 9156   0.169   3.249   1.474
 2972WAT      O 9157   5.105   8.961   3.862
 2972WAT     H1 9158   5.139   8.895   3.928
 2972WAT     H2 9159   5.123   8.927   3.769
 2973WAT      O 9160   9.323   7.374   3.474
 2973WAT     H1 9161   9.254   7.446   3.474
 2973WAT     H2 9162   9.342   7.345   3.567
 2974WAT      O 9163   2.330   9.372   0.110
 2974WAT     H1 9164   2.393   9.441   0.074
 2974WAT     H2 9165   2.256   9.417   0.160
 2975WAT      O 9166   4.101   2.437   6.517
 2975WAT     H1 9167   4.034   2.368   6.490
 2975WAT     H2 9168   4.157   2.462   6.437
 2976WAT      O 9169   1.011   5.591   3.231
 2976WAT     H1 9170   1.020   5.610   3.134
 2976WAT     H2 9171   1.036   5.672   3.284
 2977WAT      O 9172   8.135   3.506   1.604
 2977WAT     H1 9173   8.208   3.514   1.672
 2977WAT     H2 9174   8.060   3.568   1.628
 2978WAT      O 9175   5.946   3.761   8.328
 2978WAT     H1 9176   5.848   3.782   8.319
 2978WAT     H2 9177   5.966   3.735   8.423
 2979WAT      O 9178   2.587   7.832   5.223
 2979WAT     H1 9179   2.662   7.897   5.218
 2979WAT     H2 9180   2.609   7.752   5.167
 2980WAT      O 9181   5.030   5.466   9.759
 2980WAT     H1 9182   4.980   5.537   9.809
 2980WAT     H2 9183   4.970   5.424   9.692
 2981WAT      O 9184   4.232   6.205   5.888
 2981WAT     H1 9185   4.285   6.261   5.952
 2981WAT     H2 9186   4.137   6.199   5.920
 2982WAT      O 9187   6.255   9.786   5.273
 2982WAT     H1 9188   6.349   9.782   5.307
 2982WAT     H2 9189   6.197   9.833   5.340
 2983WAT      O 9190   1.129   6.315   0.513
 2983WAT     H1 9191   1.128   6.227   0.561
 2983WAT     H2 9192   1.036   6.351   0.508
 2984WAT      O 9193   9.278   3.005   1.082
 2984WAT     H1 9194   9.291   3.096   1.123
 2984WAT     H2 9195   9.192   3.004   1.031
 2985WAT      O 9196   7.563   1.574   8.902
 2985WAT     H1 9197   7.555   1.478   8.930
 2985WAT     H2 9198   7.542   1.634   8.979
 2986WAT      O 9199   8.517   6.116   0.240
 2986WAT     H1 9200   8.543   6.182   0.311
 2986WAT     H2 9201   8.573   6.033   0.249
 2987WAT      O 9202   5.953   3.793   2.776
 2987WAT     H1 9203   5.986   3.748   2.859
 2987WAT     H2 9204   6.031   3.817   2.718
 2988WAT      O 9205   5.730   9.025   7.256
 2988WAT     H1 9206   5.761   9.120   7.259
 2988WAT     H2 9207   5.747   8.987   7.166
 2989WAT      O 9208   3.920   8.084   5.301
 2989WAT     H1 9209   3.948   8.061   5.208
 2989WAT     H2 9210   3.845   8.024   5.328
 2990WAT      O 9211   5.363   4.441   6.805
 2990WAT     H1 9212   5.444   4.492   6.832
 2990WAT     H2 9213   5.359   4.433   6.706
 2991WAT      O 9214   1.400   3.411   8.931
 2991WAT     H1 9215   1.450   3.427   9.016
 2991WAT     H2 9216   1.424   3.322   8.895
 2992WAT      O 9217   8.472   2.718   1.504
 2992WAT     H1 9218   8.391   2.776   1.504
 2992WAT     H2 9219   8.496   2.695   1.409
 2993WAT      O 9220   0.354   1.604   1.825
 2993WAT     H1 9221   0.263   1.562   1.824
 2993WAT     H2 9222   0.399   1.590   1.737
 2994WAT      O 9223   4.207   3.612   1.452
 2994WAT     H1 9224   4.223   3.576   1.360
 2994WAT     H2 9225   4.168   3.540   1.509
 2995WAT      O 9226   8.561   6.229   3.689
 2995WAT     H1 9227   8.607   6.311   3.724
 2995WAT     H2 9228   8.573   6.225   3.589
 2996WAT      O 9229   0.888   3.434   4.656
 2996WAT     H1 9230   0.851   3.373   4.726
 2996WAT     H2 9231   0.830   3.516   4.650
 2997WAT      O 9232   5.762   4.559   5.509
 2997WAT     H1 9233   5.803   4.644   5.543
 2997WAT     H2 9234   5.833   4.502   5.469
 2998WAT      O 9235   0.171   4.721   7.050
 2998WAT     H1 9236   0.145   4.643   7.107
 2998WAT     H2 9237   0.181   4.691   6.955
 2999WAT      O 9238   8.561   3.284   7.397
 2999WAT     H1 9239   8.633   3.303   7.464
 2999WAT     H2 9240   8.575   3.194   7.357
 3000WAT      O 9241   9.177   2.774   4.562
 3000WAT     H1 9242   9.191   2.777   4.462
 3000WAT     H2 9243   9.134   2.688   4.587
 3001WAT      O 9244   9.878   5.022   0.432
 3001WAT     H1 9245   9.937   4.990   0.506
 3001WAT     H2 9246   9.929   5.085   0.373
 3002WAT      O 9247   3.693   3.298   9.355
 3002WAT     H1 9248   3.623   3.348   9.406
 3002WAT     H2 9249   3.753   3.250   9.419
 3003WAT      O 9250   4.390   2.923   5.831
 3003WAT     H1 9251   4.414   3.010   5.788
 3003WAT     H2 9252   4.462   2.856   5.814
 3004WAT      O 9253   7.337   2.464   3.757
 3004WAT     H1 9254   7.272   2.390   3.773
 3004WAT     H2 9255   7.339   2.487   3.660
 3005WAT      O 9256   4.850   2.632   4.040
 3005WAT     H1 9257   4.846   2.667   4.133
 3005WAT     H2 9258   4.763   2.651   3.993
 3006WAT      O 9259   7.892   0.561   3.652
 3006WAT     H1 9260   7.964   0.571   3.721
 3006WAT     H2 9261   7.929   0.578   3.561
 3007WAT      O 9262   7.020   9.610   3.212
 3007WAT     H1 9263   6.929   9.631   3.249
 3007WAT     H2 9264   7.009   9.559   3.126
 3008WAT      O 9265   9.352   6.602   4.717
 3008WAT     H1 9266   9.427   6.537   4.734
 3008WAT     H2 9267   9.267   6.566   4.756
 3009WAT      O 9268   3.828   0.541   9.667
 3009WAT     H1 9269   3.901   0.473   9.653
 3009WAT     H2 9270   3.775   0.516   9.748
 3010WAT      O 9271   8.592   7.062   0.042
 3010WAT     H1 9272   8.628   7.114  -0.035
 3010WAT     H2 9273   8.496   7.085   0.056
 3011WAT      O 9274   9.077   0.230   5.211
 3011WAT     H1 9275   9.039   0.319   5.184
 3011WAT     H2 9276   9.005   0.161   5.212
 3012WAT      O 9277   8.102   1.218   4.601
 3012WAT     H1 9278   8.015   1.202   4.554
 3012WAT     H2 9279   8.099   1.178   4.692
 3013WAT      O 9280   5.120   9.738   7.123
 3013WAT     H1 9281   5.122   9.782   7.213
 3013WAT     H2 9282   5.055   9.785   7.065
 3014WAT      O 9283   7.173   7.724   8.388
 3014WAT     H1 9284   7.219   7.736   8.476
 3014WAT     H2 9285   7.074   7.720   8.402
 3015WAT      O 9286   1.646   5.287   8.309
 3015WAT     H1 9287   1.635   5.368   8.367
 3015WAT     H2 9288   1.607   5.305   8.219
 3016WAT      O 9289   4.118   7.260   0.462
 3016WAT     H1 9290   4.102   7.174   0.414
 3016WAT     H2 9291   4.108   7.336   0.397
 3017WAT      O 9292   1.854   6.537   1.520
 3017WAT     H1 9293   1.835   6.464   1.454
 3017WAT     H2 9294   1.842   6.626   1.476
 3018WAT      O 9295   6.076   2.354   4.026
 3018WAT     H1 9296   6.092   2.452   4.042
 3018WAT     H2 9297   6.085   2.335   3.928
 3019WAT      O 9298   5.554   5.784   2.862
 3019WAT     H1 9299   5.565   5.761   2.959
 3019WAT     H2 9300   5.514   5.706   2.814
 3020WAT      O 9301   5.019   4.094   7.118
 3020WAT     H1 9302   5.115   4.119   7.109
 3020WAT     H2 9303   4.973   4.159   7.178
 3021WAT      O 9304   0.402   6.451   3.275
 3021WAT     H1 9305   0.437   6.403   3.195
 3021WAT     H2 9306   0.303   6.453   3.273
 3022WAT      O 9307   0.348   8.095   8.425
 3022WAT     H1 9308   0.326   8.012   8.475
 3022WAT     H2 9309   0.390   8.161   8.486
 3023WAT      O 9310   7.093   3.369   4.722
 3023WAT     H1 9311   7.180   3.330   4.691
 3023WAT     H2 9312   7.108   3.418   4.808
 3024WAT      O 9313   7.604   5.185   1.293
 3024WAT     H1 9314   7.692   5.218   1.328
 3024WAT     H2 9315   7.616   5.095   1.251
 3025WAT      O 9316   0.418   3.069   3.405
 3025WAT     H1 9317   0.505   3.117   3.393
 3025WAT     H2 9318   0.364   3.114   3.476
 3026WAT      O 9319   9.187   0.043   6.359
 3026WAT     H1 9320   9.134   0.001   6.433
 3026WAT     H2 9321   9.277   0.069   6.394
 3027WAT      O 9322   9.591   7.542   5.102
 3027WAT     H1 9323   9.590   7.448   5.069
 3027WAT     H2 9324   9.685   7.578   5.100
 3028WAT      O 9325   5.516   6.116   9.742
 3028WAT     H1 9326   5.574   6.039   9.769
 3028WAT     H2 9327   5.569   6.201   9.748
 3029WAT      O 9328   0.369   6.806   7.113
 3029WAT     H1 9329   0.467   6.823   7.099
 3029WAT     H2 9330   0.321   6.813   7.026
 3030WAT      O 9331   1.527   8.792   5.604
 3030WAT     H1 9332   1.468   8.757   5.530
 3030WAT     H2 9333   1.472   8.847   5.667
 3031WAT      O 9334   4.247   6.814   9.877
 3031WAT     H1 9335   4.346   6.827   9.870
 3031WAT     H2 9336   4.205   6.828   9.788
 3032WAT      O 9337   1.298   9.479   7.595
 3032WAT     H1 9338   1.300   9.423   7.678
 3032WAT     H2 9339   1.290   9.575   7.619
 3033WAT      O 9340   1.068   5.353   8.931
 3033WAT     H1 9341   1.073   5.254   8.917
 3033WAT     H2 9342   1.029   5.371   9.022
 3034WAT      O 9343   5.687   2.769   3.381
 3034WAT     H1 9344   5.706   2.677   3.346
 3034WAT     H2 9345   5.739   2.783   3.466
 3035WAT      O 9346   4.130   2.946   5.456
 3035WAT     H1 9347   4.145   2.853   5.492
 3035WAT     H2 9348   4.206   3.005   5.484
 3036WAT      O 9349   6.694   3.420   3.891
 3036WAT     H1 9350   6.619   3.356   3.908
 3036WAT     H2 9351   6.725   3.412   3.797
 3037WAT      O 9352   7.946   3.075   8.925
 3037WAT     H1 9353   7.866   3.014   8.923
 3037WAT     H2 9354   8.014   3.043   8.860
 3038WAT      O 9355   2.445   1.871   7.885
 3038WAT     H1 9356   2.395   1.795   7.844
 3038WAT     H2 9357   2.502   1.838   7.960
 3039WAT      O 9358   3.370   4.507   7.988
 3039WAT     H1 9359   3.347   4.592   8.035
 3039WAT     H2 9360   3.469   4.499   7.979
 3040WAT      O 9361   2.059   7.087   2.556
 3040WAT     H1 9362   1.961   7.096   2.540
 3040WAT     H2 9363   2.079   7.106   2.652
 3041WAT      O 9364   2.466   7.433   1.700
 3041WAT     H1 9365   2.419   7.350   1.668
 3041WAT     H2 9366   2.399   7.506   1.713
 3042WAT      O 9367   3.436   3.967   6.247
 3042WAT     H1 9368   3.450   3.869   6.239
 3042WAT     H2 9369   3.452   3.995   6.342
 3043WAT      O 9370   4.351   2.419   5.424
 3043WAT     H1 9371   4.406   2.354   5.372
 3043WAT     H2 9372   4.257   2.386   5.431
 3044WAT      O 9373   9.886   5.304   6.052
 3044WAT     H1 9374   9.931   5.361   5.984
 3044WAT     H2 9375   9.838   5.228   6.007
 3045WAT      O 9376   7.036   4.180   1.176
 3045WAT     H1 9377   7.053   4.170   1.078
 3045WAT     H2 9378   7.114   4.143   1.228
 3046WAT      O 9379   7.899   7.249   4.437
 3046WAT     H1 9380   7.838   7.267   4.359
 3046WAT     H2 9381   7.845   7.219   4.516
 3047WAT      O 9382   0.476   1.599   1.561
 3047WAT     H1 9383   0.409   1.628   1.493
 3047WAT     H2 9384   0.568   1.613   1.526
 3048WAT      O 9385   2.534   3.954   3.418
 3048WAT     H1 9386   2.439   3.924   3.423
 3048WAT     H2 9387   2.548   4.031   3.480
 3049WAT      O 9388   1.125   0.161   9.721
 3049WAT     H1 9389   1.110   0.074   9.676
 3049WAT     H2 9390   1.055   0.175   9.791
 3050WAT      O 9391   4.825   6.590   9.079
 3050WAT     H1 9392   4.877   6.533   9.143
 3050WAT     H2 9393   4.836   6.686   9.103
 3051WAT      O 9394   8.312   8.446   9.372
 3051WAT     H1 9395   8.245   8.384   9.332
 3051WAT     H2 9396   8.338   8.413   9.463
 3052WAT      O 9397   9.323   6.037   1.561
 3052WAT     H1 9398   9.407   6.082   1.528
 3052WAT     H2 9399   9.344   5.983   1.642
 3053WAT      O 9400   8.874   2.531   7.899
 3053WAT     H1 9401   8.884   2.490   7.808
 3053WAT     H2 9402   8.812   2.475   7.953
 3054WAT      O 9403   0.963   1.257   0.975
 3054WAT     H1 9404   1.014   1.327   1.025
 3054WAT     H2 9405   0.965   1.171   1.025
 3055WAT      O 9406   9.675   1.163   9.541
 3055WAT     H1 9407   9.597   1.195   9.595
 3055WAT     H2 9408   9.759   1.177   9.593
 3056WAT      O 9409   8.167   8.352   0.029
 3056WAT     H1 9410   8.229   8.277   0.003
 3056WAT     H2 9411   8.162   8.419  -0.045
 3057WAT      O 9412   2.254   0.110   2.276
 3057WAT     H1 9413   2.314   0.121   2.355
 3057WAT     H2 9414   2.239   0.199   2.232
 3058WAT      O 9415   2.032   1.719   6.614
 3058WAT     H1 9416   2.062   1.744   6.522
 3058WAT     H2 9417   2.091   1.646   6.649
 3059WAT      O 9418   0.302   5.413   2.714
 3059WAT     H1 9419   0.249   5.330   2.722
 3059WAT     H2 9420   0.248   5.484   2.668
 3060WAT      O 9421   7.544   2.618   7.462
 3060WAT     H1 9422   7.581   2.673   7.388
 3060WAT     H2 9423   7.444   2.625   7.462
 3061WAT      O 9424   4.854   9.451   4.972
 3061WAT     H1 9425   4.764   9.481   4.942
 3061WAT     H2 9426   4.917   9.528   4.968
 3062WAT      O 9427   8.064   1.382   6.539
 3062WAT     H1 9428   8.140   1.429   6.493
 3062WAT     H2 9429   8.009   1.332   6.472
 3063WAT      O 9430   9.354   3.644   4.360
 3063WAT     H1 9431   9.450   3.658   4.335
 3063WAT     H2 9432   9.334   3.695   4.444
 3064WAT      O 9433   9.216   2.866   3.634
 3064WAT     H1 9434   9.276   2.937   3.670
 3064WAT     H2 9435   9.156   2.833   3.707
 3065WAT      O 9436   3.280   1.737   8.018
 3065WAT     H1 9437   3.264   1.827   8.058
 3065WAT     H2 9438   3.325   1.678   8.085
 3066WAT      O 9439   8.834   3.366   5.412
 3066WAT     H1 9440   8.793   3.444   5.459
 3066WAT     H2 9441   8.929   3.355   5.440
 3067WAT      O 9442   0.791   0.359   6.233
 3067WAT     H1 9443   0.835   0.442   6.265
 3067WAT     H2 9444   0.857   0.302   6.183
 3068WAT      O 9445   7.955   5.823   3.204
 3068WAT     H1 9446   7.996   5.732   3.189
 3068WAT     H2 9447   7.982   5.856   3.294
 3069WAT      O 9448   3.979   3.571   3.003
 3069WAT     H1 9449   4.005   3.486   2.956
 3069WAT     H2 9450   4.055   3.636   2.999
 3070WAT      O 9451   8.165   4.840   1.535
 3070WAT     H1 9452   8.111   4.895   1.599
 3070WAT     H2 9453   8.249   4.809   1.579
 3071WAT      O 9454   3.259   4.965   7.619
 3071WAT     H1 9455   3.204   4.979   7.538
 3071WAT     H2 9456   3.210   4.999   7.699
 3072WAT      O 9457   7.708   1.235   9.203
 3072WAT     H1 9458   7.768   1.310   9.174
 3072WAT     H2 9459   7.656   1.263   9.283
 3073WAT      O 9460   3.251   7.125   4.074
 3073WAT     H1 9461   3.192   7.185   4.128
 3073WAT     H2 9462   3.195   7.062   4.019
 3074WAT      O 9463   0.418   2.325   7.134
 3074WAT     H1 9464   0.390   2.397   7.198
 3074WAT     H2 9465   0.501   2.281   7.168
 3075WAT      O 9466   6.673   6.933   6.042
 3075WAT     H1 9467   6.762   6.925   6.088
 3075WAT     H2 9468   6.651   6.847   5.996
 3076WAT      O 9469   5.483   8.424   8.465
 3076WAT     H1 9470   5.529   8.495   8.519
 3076WAT     H2 9471   5.481   8.339   8.518
 3077WAT      O 9472   1.879   4.045   9.790
 3077WAT     H1 9473   1.904   4.040   9.886
 3077WAT     H2 9474   1.928   4.122   9.747
 3078WAT      O 9475   4.547   7.103   2.471
 3078WAT     H1 9476   4.599   7.102   2.385
 3078WAT     H2 9477   4.581   7.031   2.531
 3079WAT      O 9478   0.852   9.492   2.402
 3079WAT     H1 9479   0.787   9.481   2.478
 3079WAT     H2 9480   0.831   9.576   2.352
 3080WAT      O 9481   2.615   8.554   8.322
 3080WAT     H1 9482   2.673   8.581   8.400
 3080WAT     H2 9483   2.668   8.561   8.238
 3081WAT      O 9484   8.889   3.537   3.610
 3081WAT     H1 9485   8.829   3.461   3.586
 3081WAT     H2 9486   8.903   3.596   3.530
 3082WAT      O 9487   9.677   0.748   1.710
 3082WAT     H1 9488   9.672   0.829   1.652
 3082WAT     H2 9489   9.590   0.698   1.704
 3083WAT      O 9490   4.116   6.063   4.118
 3083WAT     H1 9491   4.075   6.028   4.202
 3083WAT     H2 9492   4.108   6.163   4.117
 3084WAT      O 9493   6.263   1.553   8.654
 3084WAT     H1 9494   6.338   1.606   8.616
 3084WAT     H2 9495   6.251   1.577   8.751
 3085WAT      O 9496   1.425   1.480   6.517
 3085WAT     H1 9497   1.457   1.388   6.492
 3085WAT     H2 9498   1.428   1.539   6.436
 3086WAT      O 9499   6.404   0.044   2.863
 3086WAT     H1 9500   6.443   0.127   2.902
 3086WAT     H2 9501   6.392  -0.024   2.935
 3087WAT      O 9502   1.207   9.195   9.301
 3087WAT     H1 9503   1.302   9.212   9.324
 3087WAT     H2 9504   1.197   9.101   9.268
 3088WAT      O 9505   5.127   5.945   0.229
 3088WAT     H1 9506   5.187   6.010   0.275
 3088WAT     H2 9507   5.032   5.966   0.250
 3089WAT      O 9508   7.589   3.214   9.612
 3089WAT     H1 9509   7.645   3.285   9.655
 3089WAT     H2 9510   7.497   3.218   9.650
 3090WAT      O 9511   4.054   1.218   4.986
 3090WAT     H1 9512   4.035   1.151   4.915
 3090WAT     H2 9513   4.109   1.293   4.948
 3091WAT      O 9514   8.967   7.987   4.766
 3091WAT     H1 9515   8.938   8.082   4.779
 3091WAT     H2 9516   8.911   7.945   4.695
 3092WAT      O 9517   1.605   6.910   3.272
 3092WAT     H1 9518   1.668   6.873   3.340
 3092WAT     H2 9519   1.527   6.848   3.262
 3093WAT      O 9520   6.039   9.011   2.735
 3093WAT     H1 9521   6.017   8.925   2.688
 3093WAT     H2 9522   5.997   9.087   2.686
 3094WAT      O 9523   2.004   3.856   8.791
 3094WAT     H1 9524   1.988   3.757   8.797
 3094WAT     H2 9525   1.927   3.905   8.831
 3095WAT      O 9526   5.760   3.165   6.491
 3095WAT     H1 9527   5.753   3.070   6.461
 3095WAT     H2 9528   5.789   3.168   6.587
 3096WAT      O 9529   5.707   2.518   5.227
 3096WAT     H1 9530   5.635   2.450   5.238
 3096WAT     H2 9531   5.701   2.585   5.301
 3097WAT      O 9532   9.812   8.625   8.190
 3097WAT     H1 9533   9.801   8.634   8.289
 3097WAT     H2 9534   9.743   8.681   8.144
 3098WAT      O 9535   1.096   5.277   7.301
 3098WAT     H1 9536   1.142   5.271   7.390
 3098WAT     H2 9537   1.147   5.337   7.240
 3099WAT      O 9538   8.022   1.692   5.900
 3099WAT     H1 9539   8.122   1.692   5.893
 3099WAT     H2 9540   7.994   1.761   5.967
 3100WAT      O 9541   5.374   8.069   7.900
 3100WAT     H1 9542   5.443   8.069   7.827
 3100WAT     H2 9543   5.420   8.073   7.989
 3101WAT      O 9544   2.626   8.439   4.859
 3101WAT     H1 9545   2.679   8.404   4.936
 3101WAT     H2 9546   2.531   8.407   4.866
 3102WAT      O 9547   2.335   6.040   9.788
 3102WAT     H1 9548   2.348   6.114   9.722
 3102WAT     H2 9549   2.423   6.019   9.832
 3103WAT      O 9550   7.714   8.143   6.050
 3103WAT     H1 9551   7.777   8.197   6.105
 3103WAT     H2 9552   7.654   8.090   6.109
 3104WAT      O 9553   1.775   6.968   5.712
 3104WAT     H1 9554   1.787   6.914   5.795
 3104WAT     H2 9555   1.823   7.055   5.723
 3105WAT      O 9556   2.524   7.625   8.469
 3105WAT     H1 9557   2.470   7.628   8.553
 3105WAT     H2 9558   2.583   7.706   8.464
 3106WAT      O 9559   4.330   2.131   1.677
 3106WAT     H1 9560   4.230   2.135   1.671
 3106WAT     H2 9561   4.360   2.170   1.764
 3107WAT      O 9562   3.715   1.321   8.700
 3107WAT     H1 9563   3.733   1.273   8.615
 3107WAT     H2 9564   3.664   1.261   8.762
 3108WAT      O 9565   2.784   3.570   8.323
 3108WAT     H1 9566   2.758   3.476   8.299
 3108WAT     H2 9567   2.741   3.596   8.409
 3109WAT      O 9568   3.083   7.672   5.549
 3109WAT     H1 9569   3.088   7.684   5.450
 3109WAT     H2 9570   2.987   7.656   5.575
 3110WAT      O 9571   3.586   3.593   5.458
 3110WAT     H1 9572   3.623   3.686   5.462
 3110WAT     H2 9573   3.656   3.528   5.488
 3111WAT      O 9574   3.196   1.409   7.219
 3111WAT     H1 9575   3.210   1.338   7.149
 3111WAT     H2 9576   3.135   1.375   7.290
 3112WAT      O 9577   7.457   1.430   0.591
 3112WAT     H1 9578   7.412   1.395   0.673
 3112WAT     H2 9579   7.411   1.393   0.509
 3113WAT      O 9580   1.206   5.907   8.872
 3113WAT     H1 9581   1.230   5.875   8.780
 3113WAT     H2 9582   1.252   5.851   8.941
 3114WAT      O 9583   9.241   1.227   4.976
 3114WAT     H1 9584   9.193   1.146   4.941
 3114WAT     H2 9585   9.306   1.259   4.908
 3115WAT      O 9586   5.986   4.765   3.938
 3115WAT     H1 9587   6.074   4.803   3.965
 3115WAT     H2 9588   5.932   4.834   3.890
 3116WAT      O 9589   2.084   5.435   8.547
 3116WAT     H1 9590   2.007   5.406   8.491
 3116WAT     H2 9591   2.130   5.512   8.503
 3117WAT      O 9592   7.822   3.271   1.688
 3117WAT     H1 9593   7.810   3.214   1.769
 3117WAT     H2 9594   7.917   3.266   1.657
 3118WAT      O 9595   6.020   2.461   3.362
 3118WAT     H1 9596   6.016   2.397   3.284
 3118WAT     H2 9597   6.033   2.554   3.328
 3119WAT      O 9598   5.581   3.636   8.470
 3119WAT     H1 9599   5.663   3.579   8.475
 3119WAT     H2 9600   5.566   3.680   8.559
 3120WAT      O 9601   2.120   5.968   8.694
 3120WAT     H1 9602   2.041   6.020   8.724
 3120WAT     H2 9603   2.090   5.881   8.655
 3121WAT      O 9604   0.760   3.281   0.664
 3121WAT     H1 9605   0.809   3.206   0.708
 3121WAT     H2 9606   0.665   3.255   0.649
 3122WAT      O 9607   3.454   8.453   3.323
 3122WAT     H1 9608   3.371   8.414   3.363
 3122WAT     H2 9609   3.445   8.553   3.320
 3123WAT      O 9610   4.718   4.829   1.647
 3123WAT     H1 9611   4.795   4.831   1.583
 3123WAT     H2 9612   4.751   4.800   1.737
 3124WAT      O 9613   9.024   6.600   6.218
 3124WAT     H1 9614   9.021   6.673   6.287
 3124WAT     H2 9615   9.042   6.513   6.263
 3125WAT      O 9616   6.484   1.030   9.356
 3125WAT     H1 9617   6.438   1.048   9.269
 3125WAT     H2 9618   6.581   1.053   9.348
 3126WAT      O 9619   7.850   5.553   1.693
 3126WAT     H1 9620   7.765   5.530   1.741
 3126WAT     H2 9621   7.923   5.491   1.721
 3127WAT      O 9622   6.890   4.546   9.527
 3127WAT     H1 9623   6.791   4.561   9.528
 3127WAT     H2 9624   6.920   4.526   9.434
 3128WAT      O 9625   0.588   2.749   8.257
 3128WAT     H1 9626   0.653   2.703   8.197
 3128WAT     H2 9627   0.528   2.808   8.202
 3129WAT      O 9628   8.417   1.390   2.783
 3129WAT     H1 9629   8.350   1.322   2.815
 3129WAT     H2 9630   8.489   1.343   2.731
 3130WAT      O 9631   7.508   2.263   3.658
 3130WAT     H1 9632   7.598   2.253   3.699
 3130WAT     H2 9633   7.461   2.341   3.700
 3131WAT      O 9634   9.057   2.006   1.560
 3131WAT     H1 9635   9.135   2.033   1.615
 3131WAT     H2 9636   9.076   1.920   1.514
 3132WAT      O 9637   8.615   0.146   2.459
 3132WAT     H1 9638   8.563   0.089   2.523
 3132WAT     H2 9639   8.640   0.232   2.503
 3133WAT      O 9640   4.902   3.729   0.261
 3133WAT     H1 9641   4.986   3.771   0.295
 3133WAT     H2 9642   4.824   3.761   0.316
 3134WAT      O 9643   5.145   6.771   4.101
 3134WAT     H1 9644   5.191   6.859   4.117
 3134WAT     H2 9645   5.053   6.788   4.067
 3135WAT      O 9646   7.033   4.943   2.990
 3135WAT     H1 9647   6.943   4.970   3.024
 3135WAT     H2 9648   7.085   4.900   3.065
 3136WAT      O 9649   4.933   9.270   1.516
 3136WAT     H1 9650   4.845   9.247   1.475
 3136WAT     H2 9651   4.950   9.368   1.507
 3137WAT      O 9652   7.781   3.576   1.433
 3137WAT     H1 9653   7.879   3.586   1.419
 3137WAT     H2 9654   7.737   3.666   1.434
 3138WAT      O 9655   4.076   5.339   0.274
 3138WAT     H1 9656   4.024   5.353   0.358
 3138WAT     H2 9657   4.171   5.318   0.297
 3139WAT      O 9658   0.167   5.074   3.059
 3139WAT     H1 9659   0.181   4.982   3.021
 3139WAT     H2 9660   0.184   5.072   3.157
 3140WAT      O 9661   8.793   2.552   2.428
 3140WAT     H1 9662   8.737   2.634   2.415
 3140WAT     H2 9663   8.870   2.573   2.487
 3141WAT      O 9664   7.189   6.514   2.730
 3141WAT     H1 9665   7.236   6.575   2.667
 3141WAT     H2 9666   7.190   6.421   2.693
 3142WAT      O 9667   1.346   3.505   4.573
 3142WAT     H1 9668   1.308   3.419   4.608
 3142WAT     H2 9669   1.445   3.506   4.587
 3143WAT      O 9670   4.997   7.551   6.489
 3143WAT     H1 9671   4.975   7.467   6.440
 3143WAT     H2 9672   4.924   7.572   6.554
 3144WAT      O 9673   8.715   9.472   2.866
 3144WAT     H1 9674   8.747   9.565   2.885
 3144WAT     H2 9675   8.794   9.412   2.855
 3145WAT      O 9676   2.660   5.945   5.132
 3145WAT     H1 9677   2.601   5.954   5.052
 3145WAT     H2 9678   2.756   5.944   5.103
 3146WAT      O 9679   5.193   9.697   1.359
 3146WAT     H1 9680   5.224   9.792   1.363
 3146WAT     H2 9681   5.119   9.690   1.292
 3147WAT      O 9682   4.017   4.529   0.953
 3147WAT     H1 9683   3.955   4.560   1.025
 3147WAT     H2 9684   4.061   4.444   0.981
 3148WAT      O 9685   6.912   2.938   8.717
 3148WAT     H1 9686   6.967   3.010   8.674
 3148WAT     H2 9687   6.815   2.953   8.696
 3149WAT      O 9688   3.229   3.745   9.307
 3149WAT     H1 9689   3.245   3.800   9.389
 3149WAT     H2 9690   3.135   3.712   9.306
 3150WAT      O 9691   2.876   7.264   5.455
 3150WAT     H1 9692   2.929   7.236   5.374
 3150WAT     H2 9693   2.788   7.300   5.425
 3151WAT      O 9694   1.333   4.604   5.550
 3151WAT     H1 9695   1.334   4.696   5.590
 3151WAT     H2 9696   1.249   4.557   5.577
 3152WAT      O 9697   1.810   5.212   5.828
 3152WAT     H1 9698   1.833   5.206   5.925
 3152WAT     H2 9699   1.824   5.123   5.784
 3153WAT      O 9700   9.575   0.065   7.956
 3153WAT     H1 9701   9.659   0.117   7.940
 3153WAT     H2 9702   9.541   0.029   7.869
 3154WAT      O 9703   8.575   4.544   8.898
 3154WAT     H1 9704   8.519   4.538   8.981
 3154WAT     H2 9705   8.587   4.641   8.874
 3155WAT      O 9706   8.575   1.891   5.562
 3155WAT     H1 9707   8.565   1.976   5.614
 3155WAT     H2 9708   8.624   1.824   5.618
 3156WAT      O 9709   4.872   2.425   3.862
 3156WAT     H1 9710   4.943   2.359   3.887
 3156WAT     H2 9711   4.870   2.499   3.929
 3157WAT      O 9712   6.477   1.696   0.394
 3157WAT     H1 9713   6.446   1.778   0.441
 3157WAT     H2 9714   6.549   1.652   0.448
 3158WAT      O 9715   8.350   4.305   9.089
 3158WAT     H1 9716   8.434   4.256   9.109
 3158WAT     H2 9717   8.364   4.403   9.103
 3159WAT      O 9718   2.784   7.574   3.575
 3159WAT     H1 9719   2.746   7.555   3.665
 3159WAT     H2 9720   2.857   7.509   3.555
 3160WAT      O 9721   4.786   9.653   3.836
 3160WAT     H1 9722   4.839   9.737   3.850
 3160WAT     H2 9723   4.693   9.666   3.869
 3161WAT      O 9724   2.841   4.619   7.982
 3161WAT     H1 9725   2.864   4.547   7.917
 3161WAT     H2 9726   2.918   4.682   7.992
 3162WAT      O 9727   4.882   2.693   5.616
 3162WAT     H1 9728   4.880   2.595   5.598
 3162WAT     H2 9729   4.879   2.743   5.529
 3163WAT      O 9730   5.912   4.615   3.058
 3163WAT     H1 9731   5.904   4.598   3.156
 3163WAT     H2 9732   5.925   4.528   3.010
 3164WAT      O 9733   2.886   9.589   1.054
 3164WAT     H1 9734   2.888   9.493   1.083
 3164WAT     H2 9735   2.855   9.646   1.130
 3165WAT      O 9736   9.768   3.477   8.137
 3165WAT     H1 9737   9.865   3.470   8.114
 3165WAT     H2 9738   9.718   3.402   8.095
 3166WAT      O 9739   9.368   8.388   4.291
 3166WAT     H1 9740   9.463   8.412   4.310
 3166WAT     H2 9741   9.337   8.318   4.356
 3167WAT      O 9742   2.339   1.502   2.280
 3167WAT     H1 9743   2.431   1.501   2.241
 3167WAT     H2 9744   2.272   1.499   2.206
 3168WAT      O 9745   6.174   9.756   3.499
 3168WAT     H1 9746   6.257   9.734   3.549
 3168WAT     H2 9747   6.195   9.763   3.401
 3169WAT      O 9748   3.108   7.281   4.255
 3169WAT     H1 9749   3.109   7.374   4.217
 3169WAT     H2 9750   3.181   7.272   4.323
 3170WAT      O 9751   4.738   9.143   6.297
 3170WAT     H1 9752   4.787   9.115   6.380
 3170WAT     H2 9753   4.746   9.071   6.228
 3171WAT      O 9754   2.549   0.526   1.830
 3171WAT     H1 9755   2.632   0.580   1.815
 3171WAT     H2 9756   2.571   0.429   1.819
 3172WAT      O 9757   2.583   0.618   4.630
 3172WAT     H1 9758   2.592   0.533   4.683
 3172WAT     H2 9759   2.524   0.601   4.551
 3173WAT      O 9760   0.574   6.270   1.302
 3173WAT     H1 9761   0.661   6.225   1.320
 3173WAT     H2 9762   0.504   6.201   1.283
 3174WAT      O 9763   1.913   1.718   2.856
 3174WAT     H1 9764   1.845   1.786   2.831
 3174WAT     H2 9765   2.004   1.759   2.853
 3175WAT      O 9766   7.399   6.773   8.384
 3175WAT     H1 9767   7.327   6.704   8.379
 3175WAT     H2 9768   7.487   6.728   8.397
 3176WAT      O 9769   1.780   4.933   2.379
 3176WAT     H1 9770   1.831   4.867   2.436
 3176WAT     H2 9771   1.704   4.971   2.432
 3177WAT      O 9772   6.382   7.376   3.055
 3177WAT     H1 9773   6.430   7.396   3.140
 3177WAT     H2 9774   6.310   7.309   3.073
 3178WAT      O 9775   1.789   8.972   2.093
 3178WAT     H1 9776   1.733   8.991   2.174
 3178WAT     H2 9777   1.780   9.048   2.029
 3179WAT      O 9778   4.518   0.506   9.126
 3179WAT     H1 9779   4.470   0.593   9.127
 3179WAT     H2 9780   4.469   0.440   9.183
 3180WAT      O 9781   4.965   2.989   3.939
 3180WAT     H1 9782   4.927   2.920   3.877
 3180WAT     H2 9783   4.903   3.068   3.943
 3181WAT      O 9784   8.318   2.816   9.199
 3181WAT     H1 9785   8.247   2.879   9.169
 3181WAT     H2 9786   8.408   2.860   9.189
 3182WAT      O 9787   9.816   0.098   4.046
 3182WAT     H1 9788   9.728   0.133   4.077
 3182WAT     H2 9789   9.816  -0.002   4.049
 3183WAT      O 9790   4.888   7.321   1.984
 3183WAT     H1 9791   4.813   7.330   2.050
 3183WAT     H2 9792   4.954   7.395   2.000
 3184WAT      O 9793   5.134   8.182   7.951
 3184WAT     H1 9794   5.136   8.261   8.012
 3184WAT     H2 9795   5.227   8.157   7.925
 3185WAT      O 9796   9.820   1.431   3.894
 3185WAT     H1 9797   9.798   1.518   3.939
 3185WAT     H2 9798   9.886   1.447   3.821
 3186WAT      O 9799   4.132   3.535   6.214
 3186WAT     H1 9800   4.098   3.461   6.273
 3186WAT     H2 9801   4.162   3.612   6.271
 3187WAT      O 9802   3.282   2.271   2.486
 3187WAT     H1 9803   3.206   2.222   2.444
 3187WAT     H2 9804   3.250   2.322   2.566
 3188WAT      O 9805   5.694   6.126   8.566
 3188WAT     H1 9806   5.609   6.079   8.539
 3188WAT     H2 9807   5.771   6.063   8.558
 3189WAT      O 9808   2.668   0.506   6.336
 3189WAT     H1 9809   2.722   0.575   6.287
 3189WAT     H2 9810   2.728   0.433   6.367
 3190WAT      O 9811   0.068   9.321   3.004
 3190WAT     H1 9812  -0.031   9.329   2.992
 3190WAT     H2 9813   0.101   9.395   3.062
 3191WAT      O 9814   5.403   6.408   8.440
 3191WAT     H1 9815   5.350   6.490   8.463
 3191WAT     H2 9816   5.351   6.352   8.375
 3192WAT      O 9817   0.420   7.408   2.525
 3192WAT     H1 9818   0.365   7.421   2.442
 3192WAT     H2 9819   0.491   7.340   2.507
 3193WAT      O 9820   7.813   4.261   8.681
 3193WAT     H1 9821   7.859   4.243   8.595
 3193WAT     H2 9822   7.877   4.303   8.746
 3194WAT      O 9823   3.038   7.615   3.133
 3194WAT     H1 9824   3.062   7.711   3.117
 3194WAT     H2 9825   2.947   7.610   3.175
 3195WAT      O 9826   6.677   7.273   2.800
 3195WAT     H1 9827   6.598   7.334   2.796
 3195WAT     H2 9828   6.757   7.324   2.831
 3196WAT      O 9829   0.580   0.375   3.440
 3196WAT     H1 9830   0.611   0.312   3.511
 3196WAT     H2 9831   0.521   0.445   3.481
 3197WAT      O 9832   8.049   2.218   3.753
 3197WAT     H1 9833   8.055   2.315   3.729
 3197WAT     H2 9834   8.033   2.209   3.851
 3198WAT      O 9835   7.805   8.984   5.330
 3198WAT     H1 9836   7.897   8.986   5.370
 3198WAT     H2 9837   7.778   8.888   5.315
 3199WAT      O 9838   7.259   1.909   1.416
 3199WAT     H1 9839   7.252   1.811   1.438
 3199WAT     H2 9840   7.240   1.922   1.319
 3200WAT      O 9841   2.552   9.037   2.021
 3200WAT     H1 9842   2.535   9.060   2.116
 3200WAT     H2 9843   2.645   9.066   1.995
 3201WAT      O 9844   5.831   5.181   6.606
 3201WAT     H1 9845   5.895   5.258   6.609
 3201WAT     H2 9846   5.740   5.212   6.632
 3202WAT      O 9847   5.966   0.690   7.040
 3202WAT     H1 9848   5.928   0.766   7.092
 3202WAT     H2 9849   6.017   0.629   7.102
 3203WAT      O 9850   9.071   2.569   8.843
 3203WAT     H1 9851   9.104   2.640   8.781
 3203WAT     H2 9852   9.149   2.521   8.883
 3204WAT      O 9853   6.043   8.642   4.255
 3204WAT     H1 9854   6.074   8.590   4.175
 3204WAT     H2 9855   6.041   8.583   4.335
 3205WAT      O 9856   0.734   6.157   6.615
 3205WAT     H1 9857   0.744   6.196   6.706
 3205WAT     H2 9858   0.637   6.150   6.591
 3206WAT      O 9859   2.267   8.061   0.101
 3206WAT     H1 9860   2.367   8.063   0.100
 3206WAT     H2 9861   2.233   8.047   0.008
 3207WAT      O 9862   5.820   7.333   0.268
 3207WAT     H1 9863   5.832   7.406   0.335
 3207WAT     H2 9864   5.872   7.355   0.186
 3208WAT      O 9865   0.204   0.960   2.902
 3208WAT     H1 9866   0.154   1.046   2.902
 3208WAT     H2 9867   0.177   0.905   2.981
 3209WAT      O 9868   2.771   5.605   9.430
 3209WAT     H1 9869   2.774   5.660   9.347
 3209WAT     H2 9870   2.683   5.619   9.476
 3210WAT      O 9871   2.542   5.074   5.604
 3210WAT     H1 9872   2.590   5.153   5.642
 3210WAT     H2 9873   2.445   5.098   5.591
 3211WAT      O 9874   2.003   6.526   0.991
 3211WAT     H1 9875   1.942   6.522   0.912
 3211WAT     H2 9876   2.070   6.599   0.978
 3212WAT      O 9877   2.756   7.937   8.760
 3212WAT     H1 9878   2.849   7.968   8.740
 3212WAT     H2 9879   2.738   7.945   8.858
 3213WAT      O 9880   5.585   2.270   7.593
 3213WAT     H1 9881   5.556   2.213   7.670
 3213WAT     H2 9882   5.549   2.231   7.508
 3214WAT      O 9883   5.719   5.694   3.402
 3214WAT     H1 9884   5.753   5.643   3.323
 3214WAT     H2 9885   5.785   5.765   3.426
 3215WAT      O 9886   8.928   7.785   2.093
 3215WAT     H1 9887   8.861   7.711   2.086
 3215WAT     H2 9888   8.895   7.864   2.042
 3216WAT      O 9889   7.028   0.090   4.317
 3216WAT     H1 9890   7.024   0.154   4.393
 3216WAT     H2 9891   7.111   0.033   4.326
 3217WAT      O 9892   8.756   3.977   4.489
 3217WAT     H1 9893   8.804   4.060   4.459
 3217WAT     H2 9894   8.726   3.925   4.409
 3218WAT      O 9895   0.177   0.366   2.316
 3218WAT     H1 9896   0.207   0.434   2.383
 3218WAT     H2 9897   0.237   0.286   2.321
 3219WAT      O 9898   3.457   1.554   7.017
 3219WAT     H1 9899   3.532   1.588   7.073
 3219WAT     H2 9900   3.444   1.456   7.033
 3220WAT      O 9901   5.615   3.086   8.228
 3220WAT     H1 9902   5.547   3.159   8.237
 3220WAT     H2 9903   5.621   3.058   8.132
 3221WAT      O 9904   7.622   0.634   2.874
 3221WAT     H1 9905   7.529   0.646   2.841
 3221WAT     H2 9906   7.686   0.676   2.809
 3222WAT      O 9907   1.061   8.869   4.905
 3222WAT     H1 9908   1.135   8.882   4.839
 3222WAT     H2 9909   1.095   8.818   4.984
 3223WAT      O 9910   4.303   3.000   8.231
 3223WAT     H1 9911   4.276   2.936   8.303
 3223WAT     H2 9912   4.221   3.033   8.183
 3224WAT      O 9913   6.659   9.525   4.015
 3224WAT     H1 9914   6.669   9.623   4.025
 3224WAT     H2 9915   6.570   9.505   3.973
 3225WAT      O 9916   2.223   2.117   7.294
 3225WAT     H1 9917   2.314   2.090   7.325
 3225WAT     H2 9918   2.231   2.179   7.216
 3226WAT      O 9919   7.976   6.860   5.922
 3226WAT     H1 9920   8.059   6.912   5.939
 3226WAT     H2 9921   7.904   6.888   5.986
 3227WAT      O 9922   2.094   7.400   7.955
 3227WAT     H1 9923   2.071   7.343   7.877
 3227WAT     H2 9924   2.155   7.474   7.925
 3228WAT      O 9925   2.106   6.578   1.567
 3228WAT     H1 9926   2.147   6.591   1.477
 3228WAT     H2 9927   2.010   6.551   1.556
 3229WAT      O 9928   9.288   3.314   3.258
 3229WAT     H1 9929   9.329   3.230   3.294
 3229WAT     H2 9930   9.290   3.385   3.328
 3230WAT      O 9931   7.726   9.220   6.542
 3230WAT     H1 9932   7.656   9.212   6.472
 3230WAT     H2 9933   7.798   9.283   6.511
 3231WAT      O 9934   7.945   2.416   6.622
 3231WAT     H1 9935   7.963   2.514   6.617
 3231WAT     H2 9936   7.867   2.400   6.683
 3232WAT      O 9937   3.742   2.497   0.516
 3232WAT     H1 9938   3.685   2.560   0.569
 3232WAT     H2 9939   3.749   2.529   0.422
 3233WAT      O 9940   2.098   6.813   0.198
 3233WAT     H1 9941   2.147   6.795   0.283
 3233WAT     H2 9942   2.030   6.741   0.182
 3234WAT      O 9943   2.394   0.472   1.407
 3234WAT     H1 9944   2.439   0.543   1.354
 3234WAT     H2 9945   2.422   0.382   1.372
 3235WAT      O 9946   2.903   0.250   4.393
 3235WAT     H1 9947   2.900   0.180   4.321
 3235WAT     H2 9948   2.847   0.220   4.471
 3236WAT      O 9949   3.972   6.019   9.379
 3236WAT     H1 9950   3.977   6.117   9.360
 3236WAT     H2 9951   3.912   5.976   9.312
 3237WAT      O 9952   7.398   3.923   0.018
 3237WAT     H1 9953   7.357   3.848   0.069
 3237WAT     H2 9954   7.494   3.902  -0.000
 3238WAT      O 9955   6.602   3.442   1.203
 3238WAT     H1 9956   6.608   3.383   1.122
 3238WAT     H2 9957   6.518   3.421   1.253
 3239WAT      O 9958   3.765   6.610   7.462
 3239WAT     H1 9959   3.673   6.647   7.450
 3239WAT     H2 9960   3.765   6.544   7.537
 3240WAT      O 9961   4.681   6.902   7.324
 3240WAT     H1 9962   4.676   6.988   7.376
 3240WAT     H2 9963   4.600   6.847   7.344
 3241WAT      O 9964   3.139   0.308   1.468
 3241WAT     H1 9965   3.234   0.316   1.498
 3241WAT     H2 9966   3.102   0.400   1.451
 3242WAT      O 9967   2.326   4.303   1.730
 3242WAT     H1 9968   2.393   4.232   1.707
 3242WAT     H2 9969   2.289   4.285   1.821
 3243WAT      O 9970   6.961   8.013   0.572
 3243WAT     H1 9971   6.966   8.082   0.644
 3243WAT     H2 9972   6.924   7.928   0.609
 3244WAT      O 9973   9.701   7.975   7.977
 3244WAT     H1 9974   9.641   8.051   7.951
 3244WAT     H2 9975   9.697   7.904   7.906
 3245WAT      O 9976   1.146   4.815   7.276
 3245WAT     H1 9977   1.243   4.841   7.281
 3245WAT     H2 9978   1.090   4.888   7.317
 3246WAT      O 9979   2.189   0.367   0.455
 3246WAT     H1 9980   2.256   0.375   0.529
 3246WAT     H2 9981   2.233   0.329   0.374
 3247WAT      O 9982   5.929   0.573   1.267
 3247WAT     H1 9983   5.938   0.630   1.349
 3247WAT     H2 9984   5.936   0.476   1.293
 3248WAT      O 9985   6.713   3.159   5.223
 3248WAT     H1 9986   6.763   3.245   5.237
 3248WAT     H2 9987   6.762   3.084   5.268
 3249WAT      O 9988   9.174   4.227   4.703
 3249WAT     H1 9989   9.180   4.323   4.730
 3249WAT     H2 9990   9.236   4.209   4.627
 3250WAT      O 9991   7.597   6.778   9.000
 3250WAT     H1 9992   7.538   6.697   8.997
 3250WAT     H2 9993   7.552   6.854   8.953
 3251WAT      O 9994   9.613   8.792   6.441
 3251WAT     H1 9995   9.555   8.874   6.438
 3251WAT     H2 9996   9.680   8.802   6.514
 3252WAT      O 9997   8.542   0.465   4.872
 3252WAT     H1 9998   8.637   0.493   4.860
 3252WAT     H2 9999   8.482   0.529   4.824
 3253WAT      O10000   6.905   2.774   3.976
 3253WAT     H110001   6.952   2.703   4.027
 3253WAT     H210002   6.921   2.863   4.020
 3254WAT      O10003   3.214   7.123   6.958
 3254WAT     H110004   3.135   7.101   7.016
 3254WAT     H210005   3.238   7.219   6.970
 3255WAT      O10006   5.913   5.229   0.435
 3255WAT     H110007   5.884   5.263   0.525
 3255WAT     H210008   5.901   5.130   0.431
 3256WAT      O10009   2.878   6.881   6.864
 3256WAT     H110010   2.903   6.786   6.882
 3256WAT     H210011   2.779   6.888   6.852
 3257WAT      O10012   6.168   8.948   5.047
 3257WAT     H110013   6.226   8.901   4.980
 3257WAT     H210014   6.225   9.004   5.106
 3258WAT      O10015   2.841   8.450   9.340
 3258WAT     H110016   2.919   8.422   9.284
 3258WAT     H210017   2.809   8.372   9.394
 3259WAT      O10018   7.090   7.676   0.214
 3259WAT     H110019   7.112   7.736   0.291
 3259WAT     H210020   6.999   7.637   0.227
 3260WAT      O10021   1.054   0.519   5.192
 3260WAT     H110022   1.131   0.465   5.157
 3260WAT     H210023   1.033   0.593   5.128
 3261WAT      O10024   1.118   4.746   3.576
 3261WAT     H110025   1.143   4.737   3.479
 3261WAT     H210026   1.070   4.663   3.606
 3262WAT      O10027   4.819   7.593   0.465
 3262WAT     H110028   4.810   7.588   0.366
 3262WAT     H210029   4.739   7.553   0.509
 3263WAT      O10030   1.322   0.771   7.447
 3263WAT     H110031   1.289   0.863   7.430
 3263WAT     H210032   1.289   0.739   7.536
 3264WAT      O10033   9.157   8.800   6.819
 3264WAT     H110034   9.106   8.734   6.764
 3264WAT     H210035   9.125   8.796   6.913
 3265WAT      O10036   3.320   9.466   2.055
 3265WAT     H110037   3.266   9.550   2.052
 3265WAT     H210038   3.274   9.395   2.001
 3266WAT      O10039   2.726   5.738   6.338
 3266WAT     H110040   2.652   5.672   6.354
 3266WAT     H210041   2.813   5.689   6.336
 3267WAT      O10042   2.734   1.803   3.862
 3267WAT     H110043   2.666   1.853   3.915
 3267WAT     H210044   2.712   1.706   3.863
 3268WAT      O10045   5.128   3.307   3.203
 3268WAT     H110046   5.088   3.218   3.181
 3268WAT     H210047   5.065   3.380   3.176
 3269WAT      O10048   0.822   9.242   3.545
 3269WAT     H110049   0.855   9.317   3.602
 3269WAT     H210050   0.792   9.167   3.603
 3270WAT      O10051   7.877   2.372   2.204
 3270WAT     H110052   7.848   2.465   2.226
 3270WAT     H210053   7.950   2.375   2.136
 3271WAT      O10054   3.317   6.055   3.979
 3271WAT     H110055   3.258   5.995   4.034
 3271WAT     H210056   3.318   6.022   3.885
 3272WAT      O10057   7.394   6.887   6.458
 3272WAT     H110058   7.490   6.868   6.437
 3272WAT     H210059   7.346   6.911   6.373
 3273WAT      O10060   9.196   3.549   0.282
 3273WAT     H110061   9.258   3.618   0.320
 3273WAT     H210062   9.186   3.473   0.347
 3274WAT      O10063   6.869   1.178   9.135
 3274WAT     H110064   6.847   1.114   9.061
 3274WAT     H210065   6.964   1.210   9.125
 3275WAT      O10066   0.224   2.671   2.175
 3275WAT     H110067   0.176   2.758   2.184
 3275WAT     H210068   0.257   2.641   2.264
 3276WAT      O10069   3.972   2.760   9.631
 3276WAT     H110070   4.045   2.827   9.614
 3276WAT     H210071   3.964   2.699   9.553
 3277WAT      O10072   8.462   5.744   4.172
 3277WAT     H110073   8.517   5.680   4.117
 3277WAT     H210074   8.468   5.718   4.268
 3278WAT      O10075   6.994   7.355   0.805
 3278WAT     H110076   6.956   7.407   0.728
 3278WAT     H210077   6.951   7.386   0.890
 3279WAT      O10078   4.764   7.427   8.081
 3279WAT     H110079   4.738   7.429   8.178
 3279WAT     H210080   4.772   7.333   8.050
 3280WAT      O10081   9.001   0.672   6.858
 3280WAT     H110082   8.991   0.634   6.765
 3280WAT     H210083   9.029   0.599   6.921
 3281WAT      O10084   7.266   2.411   6.564
 3281WAT     H110085   7.228   2.459   6.484
 3281WAT     H210086   7.311   2.327   6.534
 3282WAT      O10087   8.099   3.761   6.702
 3282WAT     H110088   8.145   3.806   6.779
 3282WAT     H210089   8.012   3.724   6.733
 3283WAT      O10090   9.657   3.247   4.624
 3283WAT     H110091   9.592   3.182   4.663
 3283WAT     H210092   9.675   3.319   4.690
 3284WAT      O10093   7.833   2.427   1.789
 3284WAT     H110094   7.833   2.464   1.696
 3284WAT     H210095   7.764   2.354   1.795
 3285WAT      O10096   2.392   2.125   5.876
 3285WAT     H110097   2.336   2.181   5.937
 3285WAT     H210098   2.375   2.028   5.895
 3286WAT      O10099   4.918   5.134   5.149
 3286WAT     H110100   4.831   5.179   5.132
 3286WAT     H210101   4.938   5.136   5.247
 3287WAT      O10102   0.753   8.888   5.550
 3287WAT     H110103   0.846   8.865   5.577
 3287WAT     H210104   0.728   8.836   5.468
 3288WAT      O10105   7.762   2.923   2.512
 3288WAT     H110106   7.799   2.864   2.440
 3288WAT     H210107   7.738   2.868   2.592
 3289WAT      O10108   3.691   4.658   8.274
 3289WAT     H110109   3.665   4.680   8.180
 3289WAT     H210110   3.684   4.739   8.331
 3290WAT      O10111   8.795   2.960   7.913
 3290WAT     H110112   8.809   3.048   7.869
 3290WAT     H210113   8.727   2.908   7.862
 3291WAT      O10114   7.684   5.626   9.600
 3291WAT     H110115   7.624   5.564   9.650
 3291WAT     H210116   7.663   5.622   9.503
 3292WAT      O10117   0.933   1.552   7.346
 3292WAT     H110118   0.880   1.562   7.262
 3292WAT     H210119   0.894   1.479   7.402
 3293WAT      O10120   2.707   7.403   6.099
 3293WAT     H110121   2.785   7.463   6.083
 3293WAT     H210122   2.628   7.458   6.128
 3294WAT      O10123   6.377   5.125   7.315
 3294WAT     H110124   6.423   5.206   7.280
 3294WAT     H210125   6.281   5.124   7.286
 3295WAT      O10126   6.602   8.014   6.676
 3295WAT     H110127   6.606   7.920   6.709
 3295WAT     H210128   6.632   8.016   6.580
 3296WAT      O10129   7.143   2.424   7.824
 3296WAT     H110130   7.144   2.365   7.743
 3296WAT     H210131   7.052   2.464   7.835
 3297WAT      O10132   8.430   4.928   0.739
 3297WAT     H110133   8.527   4.950   0.727
 3297WAT     H210134   8.404   4.857   0.674
 3298WAT      O10135   6.874   7.253   8.201
 3298WAT     H110136   6.922   7.338   8.222
 3298WAT     H210137   6.921   7.206   8.126
 3299WAT      O10138   1.087   3.238   4.607
 3299WAT     H110139   1.168   3.238   4.666
 3299WAT     H210140   1.027   3.313   4.635
 3300WAT      O10141   2.142   6.581   7.575
 3300WAT     H110142   2.070   6.646   7.598
 3300WAT     H210143   2.228   6.630   7.561
 3301WAT      O10144   2.947   5.068   7.984
 3301WAT     H110145   2.944   5.148   7.925
 3301WAT     H210146   2.891   5.084   8.065
 3302WAT      O10147   4.312   3.458   4.441
 3302WAT     H110148   4.305   3.520   4.363
 3302WAT     H210149   4.357   3.374   4.412
 3303WAT      O10150   6.459   1.755   6.699
 3303WAT     H110151   6.529   1.818   6.731
 3303WAT     H210152   6.491   1.707   6.618
 3304WAT      O10153   7.277   0.245   6.111
 3304WAT     H110154   7.302   0.220   6.017
 3304WAT     H210155   7.217   0.325   6.109
 3305WAT      O10156   2.026   3.061   3.672
 3305WAT     H110157   2.075   3.148   3.678
 3305WAT     H210158   1.980   3.043   3.759
 3306WAT      O10159   1.313   5.352   3.119
 3306WAT     H110160   1.319   5.445   3.156
 3306WAT     H210161   1.243   5.349   3.048
 3307WAT      O10162   8.597   5.522   0.457
 3307WAT     H110163   8.589   5.622   0.466
 3307WAT     H210164   8.693   5.497   0.446
 3308WAT      O10165   2.301   0.509   5.678
 3308WAT     H110166   2.397   0.510   5.707
 3308WAT     H210167   2.258   0.595   5.703
 3309WAT      O10168   7.619   7.299   8.176
 3309WAT     H110169   7.662   7.342   8.097
 3309WAT     H210170   7.567   7.368   8.227
 3310WAT      O10171   5.616   4.122   2.585
 3310WAT     H110172   5.523   4.088   2.598
 3310WAT     H210173   5.669   4.105   2.668
 3311WAT      O10174   0.235   7.334   4.138
 3311WAT     H110175   0.268   7.240   4.144
 3311WAT     H210176   0.159   7.338   4.072
 3312WAT      O10177   1.996   4.559   9.723
 3312WAT     H110178   1.906   4.573   9.681
 3312WAT     H210179   2.049   4.495   9.668
 3313WAT      O10180   3.059   8.681   5.960
 3313WAT     H110181   3.103   8.676   6.049
 3313WAT     H210182   3.053   8.589   5.921
 3314WAT      O10183   7.676   8.862   1.354
 3314WAT     H110184   7.663   8.961   1.365
 3314WAT     H210185   7.733   8.845   1.274
 3315WAT      O10186   5.093   9.143   7.679
 3315WAT     H110187   5.129   9.051   7.696
 3315WAT     H210188   5.168   9.209   7.681
 3316WAT      O10189   6.409   3.020   4.062
 3316WAT     H110190   6.451   2.934   4.033
 3316WAT     H210191   6.357   3.006   4.146
 3317WAT      O10192   9.290   6.881   1.168
 3317WAT     H110193   9.266   6.946   1.096
 3317WAT     H210194   9.359   6.818   1.133
 3318WAT      O10195   2.393   6.078   1.557
 3318WAT     H110196   2.334   6.098   1.635
 3318WAT     H210197   2.470   6.022   1.588
 3319WAT      O10198   8.340   5.886   0.411
 3319WAT     H110199   8.304   5.971   0.449
 3319WAT     H210200   8.301   5.808   0.461
 3320WAT      O10201   2.318   9.194   0.314
 3320WAT     H110202   2.329   9.243   0.227
 3320WAT     H210203   2.319   9.259   0.390
 3321WAT      O10204   9.790   8.910   5.734
 3321WAT     H110205   9.835   8.874   5.652
 3321WAT     H210206   9.696   8.878   5.738
 3322WAT      O10207   2.445   0.226   8.797
 3322WAT     H110208   2.356   0.183   8.816
 3322WAT     H210209   2.431   0.322   8.774
 3323WAT      O10210   3.094   8.119   0.074
 3323WAT     H110211   3.131   8.073  -0.006
 3323WAT     H210212   3.034   8.194   0.045
 3324WAT      O10213   6.607   8.146   8.351
 3324WAT     H110214   6.577   8.096   8.432
 3324WAT     H210215   6.688   8.200   8.372
 3325WAT      O10216   7.136   0.160   4.026
 3325WAT     H110217   7.135   0.173   4.125
 3325WAT     H210218   7.042   0.160   3.991
 3326WAT      O10219   5.702   7.030   7.421
 3326WAT     H110220   5.764   7.101   7.387
 3326WAT     H210221   5.623   7.024   7.360
 3327WAT      O10222   3.993   9.696   0.207
 3327WAT     H110223   3.903   9.655   0.191
 3327WAT     H210224   4.011   9.765   0.137
 3328WAT      O10225   4.150   5.053   5.629
 3328WAT     H110226   4.198   5.135   5.596
 3328WAT     H210227   4.114   5.071   5.721
 3329WAT      O10228   6.174   0.763   1.783
 3329WAT     H110229   6.110   0.840   1.781
 3329WAT     H210230   6.136   0.690   1.841
 3330WAT      O10231   1.328   2.667   3.418
 3330WAT     H110232   1.269   2.598   3.461
 3330WAT     H210233   1.406   2.622   3.375
 3331WAT      O10234   7.877   0.510   5.617
 3331WAT     H110235   7.959   0.505   5.560
 3331WAT     H210236   7.904   0.517   5.713
 3332WAT      O10237   1.101   8.386   2.833
 3332WAT     H110238   1.123   8.464   2.775
 3332WAT     H210239   1.075   8.418   2.924
 3333WAT      O10240   8.708   4.360   1.014
 3333WAT     H110241   8.787   4.375   0.954
 3333WAT     H210242   8.702   4.435   1.080
 3334WAT      O10243   7.239   6.440   1.702
 3334WAT     H110244   7.254   6.346   1.734
 3334WAT     H210245   7.327   6.483   1.682
 3335WAT      O10246   1.960   8.588   9.252
 3335WAT     H110247   2.053   8.588   9.287
 3335WAT     H210248   1.962   8.589   9.152
 3336WAT      O10249   7.615   3.402   5.615
 3336WAT     H110250   7.700   3.356   5.589
 3336WAT     H210251   7.585   3.368   5.704
 3337WAT      O10252   6.824   6.013   7.828
 3337WAT     H110253   6.868   6.048   7.910
 3337WAT     H210254   6.736   5.972   7.853
 3338WAT      O10255   8.588   4.190   9.163
 3338WAT     H110256   8.632   4.226   9.246
 3338WAT     H210257   8.657   4.180   9.091
 3339WAT      O10258   5.913   6.263   0.642
 3339WAT     H110259   5.975   6.282   0.718
 3339WAT     H210260   5.905   6.344   0.584
 3340WAT      O10261   2.241   5.564   9.282
 3340WAT     H110262   2.261   5.585   9.378
 3340WAT     H210263   2.308   5.497   9.248
 3341WAT      O10264   9.821   5.372   2.459
 3341WAT     H110265   9.826   5.418   2.370
 3341WAT     H210266   9.744   5.409   2.511
 3342WAT      O10267   2.691   1.299   2.250
 3342WAT     H110268   2.669   1.219   2.306
 3342WAT     H210269   2.701   1.379   2.310
 3343WAT      O10270   4.405   7.537   4.511
 3343WAT     H110271   4.440   7.572   4.598
 3343WAT     H210272   4.368   7.445   4.525
 3344WAT      O10273   6.740   6.838   1.790
 3344WAT     H110274   6.707   6.809   1.700
 3344WAT     H210275   6.668   6.824   1.858
 3345WAT      O10276   8.600   1.950   9.554
 3345WAT     H110277   8.600   1.863   9.604
 3345WAT     H210278   8.663   2.014   9.598
 3346WAT      O10279   8.586   3.018   7.315
 3346WAT     H110280   8.523   2.983   7.247
 3346WAT     H210281   8.579   2.965   7.399
 3347WAT      O10282   9.189   3.012   2.807
 3347WAT     H110283   9.106   3.060   2.837
 3347WAT     H210284   9.184   2.996   2.708
 3348WAT      O10285   6.480   3.805   9.534
 3348WAT     H110286   6.537   3.831   9.456
 3348WAT     H210287   6.538   3.785   9.613
 3349WAT      O10288   7.028   1.921   2.083
 3349WAT     H110289   7.078   2.007   2.090
 3349WAT     H210290   6.981   1.917   1.995
 3350WAT      O10291   8.403   3.487   4.059
 3350WAT     H110292   8.437   3.528   3.974
 3350WAT     H210293   8.334   3.547   4.099
 3351WAT      O10294   6.134   1.074   6.429
 3351WAT     H110295   6.106   1.100   6.522
 3351WAT     H210296   6.219   1.121   6.406
 3352WAT      O10297   4.140   2.302   8.660
 3352WAT     H110298   4.140   2.231   8.590
 3352WAT     H210299   4.075   2.277   8.732
 3353WAT      O10300   4.547   1.571   4.753
 3353WAT     H110301   4.521   1.479   4.723
 3353WAT     H210302   4.572   1.570   4.850
 3354WAT      O10303   4.727   3.171   6.464
 3354WAT     H110304   4.639   3.212   6.489
 3354WAT     H210305   4.791   3.180   6.540
 3355WAT      O10306   2.116   7.068   0.867
 3355WAT     H110307   2.061   7.038   0.946
 3355WAT     H210308   2.210   7.085   0.896
 3356WAT      O10309   0.025   3.191   3.688
 3356WAT     H110310  -0.021   3.120   3.741
 3356WAT     H210311  -0.020   3.279   3.703
 3357WAT      O10312   9.082   6.360   3.698
 3357WAT     H110313   9.157   6.296   3.684
 3357WAT     H210314   9.008   6.340   3.633
 3358WAT      O10315   1.540   3.616   4.818
 3358WAT     H110316   1.593   3.658   4.891
 3358WAT     H210317   1.533   3.517   4.835
 3359WAT      O10318   2.595   1.705   2.132
 3359WAT     H110319   2.637   1.768   2.197
 3359WAT     H210320   2.600   1.744   2.040
 3360WAT      O10321   5.084   7.389   7.527
 3360WAT     H110322   5.168   7.350   7.565
 3360WAT     H210323   5.102   7.428   7.437
 3361WAT      O10324   0.298   0.417   1.403
 3361WAT     H110325   0.283   0.465   1.490
 3361WAT     H210326   0.335   0.481   1.335
 3362WAT      O10327   1.778   1.279   8.521
 3362WAT     H110328   1.775   1.213   8.596
 3362WAT     H210329   1.724   1.244   8.444
 3363WAT      O10330   5.237   3.114   9.626
 3363WAT     H110331   5.155   3.147   9.580
 3363WAT     H210332   5.214   3.038   9.686
 3364WAT      O10333   4.698   7.022   3.259
 3364WAT     H110334   4.675   6.929   3.230
 3364WAT     H210335   4.643   7.087   3.207
 3365WAT      O10336   7.129   8.549   4.417
 3365WAT     H110337   7.205   8.516   4.362
 3365WAT     H210338   7.159   8.628   4.471
 3366WAT      O10339   8.983   7.460   2.387
 3366WAT     H110340   8.938   7.545   2.416
 3366WAT     H210341   8.995   7.400   2.466
 3367WAT      O10342   8.458   2.791   0.095
 3367WAT     H110343   8.436   2.694   0.095
 3367WAT     H210344   8.374   2.845   0.109
 3368WAT      O10345   2.702   1.042   9.691
 3368WAT     H110346   2.731   1.007   9.781
 3368WAT     H210347   2.662   0.968   9.638
 3369WAT      O10348   1.601   6.242   4.928
 3369WAT     H110349   1.656   6.165   4.895
 3369WAT     H210350   1.597   6.312   4.857
 3370WAT      O10351   1.481   4.047   9.739
 3370WAT     H110352   1.569   4.035   9.694
 3370WAT     H210353   1.414   3.986   9.698
 3371WAT      O10354   4.719   7.922   8.278
 3371WAT     H110355   4.731   8.006   8.225
 3371WAT     H210356   4.800   7.864   8.268
 3372WAT      O10357   6.553   1.113   9.840
 3372WAT     H110358   6.587   1.050   9.910
 3372WAT     H210359   6.620   1.121   9.766
 3373WAT      O10360   1.180   4.979   8.620
 3373WAT     H110361   1.258   4.964   8.681
 3373WAT     H210362   1.212   4.984   8.526
 3374WAT      O10363   6.997   5.962   6.721
 3374WAT     H110364   7.063   6.001   6.784
 3374WAT     H210365   7.004   6.007   6.632
 3375WAT      O10366   4.584   3.111   5.494
 3375WAT     H110367   4.618   3.021   5.468
 3375WAT     H210368   4.494   3.100   5.537
 3376WAT      O10369   5.157   3.061   6.951
 3376WAT     H110370   5.240   3.046   6.899
 3376WAT     H210371   5.080   3.073   6.888
 3377WAT      O10372   4.327   3.558   8.815
 3377WAT     H110373   4.393   3.596   8.751
 3377WAT     H210374   4.234   3.568   8.778
 3378WAT      O10375   5.758   3.847   6.174
 3378WAT     H110376   5.715   3.760   6.195
 3378WAT     H210377   5.797   3.886   6.258
 3379WAT      O10378   9.078   4.143   1.910
 3379WAT     H110379   9.164   4.141   1.859
 3379WAT     H210380   9.016   4.072   1.875
 3380WAT      O10381   5.732   5.933   7.780
 3380WAT     H110382   5.687   5.845   7.773
 3380WAT     H210383   5.830   5.923   7.760
 3381WAT      O10384   5.998   8.537   6.969
 3381WAT     H110385   5.948   8.486   6.899
 3381WAT     H210386   6.095   8.541   6.945
 3382WAT      O10387   0.715   2.202   2.627
 3382WAT     H110388   0.733   2.203   2.529
 3382WAT     H210389   0.749   2.116   2.666
 3383WAT      O10390   6.039   6.563   9.430
 3383WAT     H110391   6.107   6.490   9.420
 3383WAT     H210392   6.064   6.639   9.369
 3384WAT      O10393   5.445   2.182   9.703
 3384WAT     H110394   5.406   2.227   9.783
 3384WAT     H210395   5.398   2.212   9.620
 3385WAT      O10396   3.493   8.565   1.043
 3385WAT     H110397   3.554   8.502   0.995
 3385WAT     H210398   3.509   8.559   1.141
 3386WAT      O10399   5.692   6.289   1.130
 3386WAT     H110400   5.598   6.263   1.105
 3386WAT     H210401   5.690   6.339   1.217
 3387WAT      O10402   3.107   3.175   8.056
 3387WAT     H110403   3.011   3.172   8.030
 3387WAT     H210404   3.160   3.225   7.987
 3388WAT      O10405   2.741   0.520   3.135
 3388WAT     H110406   2.765   0.574   3.215
 3388WAT     H210407   2.810   0.532   3.064
 3389WAT      O10408   3.321   3.382   1.891
 3389WAT     H110409   3.329   3.446   1.967
 3389WAT     H210410   3.380   3.412   1.816
 3390WAT      O10411   4.791   0.733   2.178
 3390WAT     H110412   4.883   0.694   2.167
 3390WAT     H210413   4.741   0.724   2.092
 3391WAT      O10414   1.727   3.969   0.809
 3391WAT     H110415   1.814   3.957   0.762
 3391WAT     H210416   1.740   3.958   0.908
 3392WAT      O10417   3.081   1.461   8.386
 3392WAT     H110418   3.036   1.547   8.408
 3392WAT     H210419   3.013   1.388   8.383
 3393WAT      O10420   4.254   0.547   5.655
 3393WAT     H110421   4.184   0.491   5.612
 3393WAT     H210422   4.285   0.503   5.739
 3394WAT      O10423   6.368   2.432   7.057
 3394WAT     H110424   6.411   2.464   7.141
 3394WAT     H210425   6.378   2.332   7.051
 3395WAT      O10426   9.292   4.883   8.466
 3395WAT     H110427   9.281   4.784   8.454
 3395WAT     H210428   9.389   4.906   8.464
 3396WAT      O10429   4.239   5.183   4.345
 3396WAT     H110430   4.261   5.281   4.344
 3396WAT     H210431   4.319   5.131   4.316
 3397WAT      O10432   5.908   7.744   3.166
 3397WAT     H110433   5.871   7.834   3.141
 3397WAT     H210434   6.004   7.738   3.139
 3398WAT      O10435   8.554   4.810   4.271
 3398WAT     H110436   8.636   4.761   4.241
 3398WAT     H210437   8.580   4.898   4.310
 3399WAT      O10438   5.197   6.167   1.832
 3399WAT     H110439   5.289   6.158   1.870
 3399WAT     H210440   5.159   6.077   1.814
 3400WAT      O10441   5.814   4.417   7.261
 3400WAT     H110442   5.873   4.414   7.342
 3400WAT     H210443   5.741   4.484   7.276
 3401WAT      O10444   1.727   2.713   0.885
 3401WAT     H110445   1.737   2.740   0.790
 3401WAT     H210446   1.639   2.668   0.898
 3402WAT      O10447   7.657   2.379   3.396
 3402WAT     H110448   7.574   2.414   3.438
 3402WAT     H210449   7.678   2.289   3.434
 3403WAT      O10450   6.825   2.743   3.386
 3403WAT     H110451   6.804   2.833   3.349
 3403WAT     H210452   6.758   2.676   3.352
 3404WAT      O10453   6.178   0.376   6.544
 3404WAT     H110454   6.182   0.463   6.593
 3404WAT     H210455   6.271   0.342   6.530
 3405WAT      O10456   0.674   5.820   4.682
 3405WAT     H110457   0.581   5.820   4.718
 3405WAT     H210458   0.675   5.780   4.590
 3406WAT      O10459   4.858   6.132   0.005
 3406WAT     H110460   4.891   6.057  -0.052
 3406WAT     H210461   4.765   6.113   0.036
 3407WAT      O10462   1.894   4.916   7.716
 3407WAT     H110463   1.963   4.951   7.779
 3407WAT     H210464   1.805   4.957   7.738
 3408WAT      O10465   8.167   7.174   8.900
 3408WAT     H110466   8.169   7.173   8.800
 3408WAT     H210467   8.188   7.083   8.935
 3409WAT      O10468   7.009   7.201   8.996
 3409WAT     H110469   7.031   7.208   9.093
 3409WAT     H210470   7.092   7.181   8.944
 3410WAT      O10471   3.768   5.603   7.261
 3410WAT     H110472   3.830   5.611   7.183
 3410WAT     H210473   3.676   5.633   7.234
 3411WAT      O10474   9.651   2.882   3.644
 3411WAT     H110475   9.704   2.899   3.727
 3411WAT     H210476   9.649   2.783   3.626
 3412WAT      O10477   3.548   9.589   8.126
 3412WAT     H110478   3.545   9.493   8.098
 3412WAT     H210479   3.457   9.618   8.157
 3413WAT      O10480   6.465   8.838   2.145
 3413WAT     H110481   6.375   8.872   2.121
 3413WAT     H210482   6.459   8.782   2.227
 3414WAT      O10483   5.789   7.982   0.687
 3414WAT     H110484   5.758   7.889   0.706
 3414WAT     H210485   5.763   8.008   0.593
 3415WAT      O10486   0.897   8.022   8.651
 3415WAT     H110487   0.822   7.996   8.711
 3415WAT     H210488   0.964   7.947   8.647
 3416WAT      O10489   2.780   9.679   8.765
 3416WAT     H110490   2.698   9.734   8.781
 3416WAT     H210491   2.756   9.595   8.716
 3417WAT      O10492   8.555   2.654   6.856
 3417WAT     H110493   8.459   2.650   6.886
 3417WAT     H210494   8.598   2.736   6.893
 3418WAT      O10495   6.276   9.090   1.387
 3418WAT     H110496   6.257   9.116   1.293
 3418WAT     H210497   6.374   9.073   1.398
 3419WAT      O10498   8.410   9.435   4.710
 3419WAT     H110499   8.400   9.445   4.809
 3419WAT     H210500   8.465   9.510   4.674
 3420WAT      O10501   0.615   2.214   3.966
 3420WAT     H110502   0.595   2.134   4.022
 3420WAT     H210503   0.593   2.195   3.870
 3421WAT      O10504   7.259   3.101   3.095
 3421WAT     H110505   7.289   3.040   3.022
 3421WAT     H210506   7.297   3.192   3.080
 3422WAT      O10507   3.712   6.213   3.742
 3422WAT     H110508   3.771   6.237   3.818
 3422WAT     H210509   3.703   6.114   3.736
 3423WAT      O10510   7.083   9.541   2.257
 3423WAT     H110511   7.097   9.450   2.218
 3423WAT     H210512   7.108   9.540   2.354
 3424WAT      O10513   2.186   2.174   6.809
 3424WAT     H110514   2.125   2.099   6.785
 3424WAT     H210515   2.217   2.162   6.904
 3425WAT      O10516   6.101   7.250   1.341
 3425WAT     H110517   6.091   7.166   1.287
 3425WAT     H210518   6.152   7.318   1.289
 3426WAT      O10519   9.165   5.873   6.077
 3426WAT     H110520   9.199   5.888   6.170
 3426WAT     H210521   9.153   5.961   6.031
 3427WAT      O10522   5.868   7.672   5.875
 3427WAT     H110523   5.818   7.613   5.811
 3427WAT     H210524   5.922   7.738   5.824
 3428WAT      O10525   2.572   4.356   5.484
 3428WAT     H110526   2.530   4.315   5.565
 3428WAT     H210527   2.552   4.299   5.404
 3429WAT      O10528   7.216   3.433   0.178
 3429WAT     H110529   7.155   3.359   0.151
 3429WAT     H210530   7.305   3.420   0.134
 3430WAT      O10531   8.114   6.953   7.437
 3430WAT     H110532   8.048   7.012   7.482
 3430WAT     H210533   8.083   6.931   7.344
 3431WAT      O10534   8.915   2.918   4.513
 3431WAT     H110535   8.889   2.921   4.609
 3431WAT     H210536   8.989   2.852   4.501
 3432WAT      O10537   9.799   0.104   1.312
 3432WAT     H110538   9.819   0.200   1.329
 3432WAT     H210539   9.825   0.081   1.218
 3433WAT      O10540   3.269   9.238   4.357
 3433WAT     H110541   3.234   9.151   4.390
 3433WAT     H210542   3.365   9.228   4.333
 3434WAT      O10543   8.524   4.507   6.785
 3434WAT     H110544   8.504   4.473   6.693
 3434WAT     H210545   8.596   4.452   6.826
 3435WAT      O10546   7.850   9.749   1.345
 3435WAT     H110547   7.811   9.743   1.253
 3435WAT     H210548   7.810   9.827   1.393
 3436WAT      O10549   6.021   7.880   2.659
 3436WAT     H110550   6.067   7.886   2.748
 3436WAT     H210551   5.929   7.842   2.672
 3437WAT      O10552   2.240   0.269   8.196
 3437WAT     H110553   2.149   0.307   8.176
 3437WAT     H210554   2.231   0.180   8.239
 3438WAT      O10555   2.961   2.813   5.021
 3438WAT     H110556   2.927   2.888   5.077
 3438WAT     H210557   2.973   2.731   5.078
 3439WAT      O10558   0.111   5.264   0.012
 3439WAT     H110559   0.160   5.351   0.003
 3439WAT     H210560   0.099   5.243   0.109
 3440WAT      O10561   8.730   6.763   9.089
 3440WAT     H110562   8.792   6.799   9.020
 3440WAT     H210563   8.750   6.666   9.104
 3441WAT      O10564   7.463   7.751   1.950
 3441WAT     H110565   7.555   7.789   1.938
 3441WAT     H210566   7.428   7.721   1.861
 3442WAT      O10567   2.383   9.580   5.253
 3442WAT     H110568   2.283   9.586   5.245
 3442WAT     H210569   2.418   9.668   5.286
 3443WAT      O10570   2.435   3.136   3.934
 3443WAT     H110571   2.457   3.190   3.853
 3443WAT     H210572   2.449   3.192   4.016
 3444WAT      O10573   3.711   2.797   7.582
 3444WAT     H110574   3.730   2.766   7.675
 3444WAT     H210575   3.762   2.881   7.564
 3445WAT      O10576   8.971   3.195   6.607
 3445WAT     H110577   8.935   3.159   6.521
 3445WAT     H210578   8.985   3.120   6.672
 3446WAT      O10579   0.946   6.849   8.811
 3446WAT     H110580   0.910   6.870   8.720
 3446WAT     H210581   0.962   6.751   8.819
 3447WAT      O10582   0.807   4.130   5.450
 3447WAT     H110583   0.841   4.182   5.371
 3447WAT     H210584   0.884   4.086   5.497
 3448WAT      O10585   5.852   1.054   5.340
 3448WAT     H110586   5.941   1.083   5.305
 3448WAT     H210587   5.784   1.059   5.266
 3449WAT      O10588   7.859   2.877   4.915
 3449WAT     H110589   7.839   2.781   4.935
 3449WAT     H210590   7.799   2.909   4.842
 3450WAT      O10591   9.706   9.240   1.490
 3450WAT     H110592   9.739   9.286   1.572
 3450WAT     H210593   9.783   9.201   1.440
 3451WAT      O10594   7.285   6.911   0.938
 3451WAT     H110595   7.339   6.851   0.996
 3451WAT     H210596   7.330   7.000   0.931
 3452WAT      O10597   5.383   3.249   3.319
 3452WAT     H110598   5.290   3.280   3.302
 3452WAT     H210599   5.419   3.295   3.400
 3453WAT      O10600   4.670   5.017   9.326
 3453WAT     H110601   4.578   4.997   9.293
 3453WAT     H210602   4.733   4.946   9.294
 3454WAT      O10603   2.671   7.260   6.955
 3454WAT     H110604   2.762   7.277   6.917
 3454WAT     H210605   2.643   7.337   7.013
 3455WAT      O10606   4.119   5.070   1.850
 3455WAT     H110607   4.148   5.158   1.886
 3455WAT     H210608   4.093   5.080   1.754
 3456WAT      O10609   5.270   4.457   8.835
 3456WAT     H110610   5.336   4.452   8.910
 3456WAT     H210611   5.311   4.503   8.756
 3457WAT      O10612   6.531   0.574   5.072
 3457WAT     H110613   6.575   0.536   4.990
 3457WAT     H210614   6.595   0.570   5.149
 3458WAT      O10615   8.210   6.045   6.544
 3458WAT     H110616   8.280   6.085   6.485
 3458WAT     H210617   8.120   6.057   6.502
 3459WAT      O10618   2.901   7.685   1.108
 3459WAT     H110619   2.857   7.645   1.188
 3459WAT     H210620   2.832   7.708   1.040
 3460WAT      O10621   8.713   0.231   0.203
 3460WAT     H110622   8.630   0.251   0.255
 3460WAT     H210623   8.777   0.182   0.262
 3461WAT      O10624   4.029   0.242   4.552
 3461WAT     H110625   4.078   0.314   4.602
 3461WAT     H210626   4.086   0.160   4.547
 3462WAT      O10627   8.889   7.706   2.619
 3462WAT     H110628   8.878   7.700   2.718
 3462WAT     H210629   8.825   7.644   2.574
 3463WAT      O10630   0.283   4.629   2.490
 3463WAT     H110631   0.191   4.663   2.510
 3463WAT     H210632   0.344   4.707   2.475
 3464WAT      O10633   4.388   1.215   6.662
 3464WAT     H110634   4.473   1.267   6.664
 3464WAT     H210635   4.394   1.139   6.727
 3465WAT      O10636   2.287   9.284   4.968
 3465WAT     H110637   2.338   9.200   4.948
 3465WAT     H210638   2.221   9.267   5.040
 3466WAT      O10639   6.896   8.019   5.051
 3466WAT     H110640   6.840   8.093   5.013
 3466WAT     H210641   6.965   8.057   5.112
 3467WAT      O10642   1.913   1.118   7.544
 3467WAT     H110643   1.868   1.101   7.631
 3467WAT     H210644   1.848   1.158   7.480
 3468WAT      O10645   6.396   1.197   3.817
 3468WAT     H110646   6.440   1.265   3.758
 3468WAT     H210647   6.314   1.237   3.857
 3469WAT      O10648   3.827   7.362   7.204
 3469WAT     H110649   3.737   7.340   7.164
 3469WAT     H210650   3.857   7.285   7.261
 3470WAT      O10651   9.217   6.228   8.542
 3470WAT     H110652   9.225   6.291   8.619
 3470WAT     H210653   9.292   6.163   8.543
 3471WAT      O10654   7.166   2.874   7.122
 3471WAT     H110655   7.221   2.934   7.180
 3471WAT     H210656   7.154   2.917   7.033
 3472WAT      O10657   6.897   0.768   2.236
 3472WAT     H110658   6.823   0.702   2.219
 3472WAT     H210659   6.985   0.721   2.230
 3473WAT      O10660   2.666   7.688   4.268
 3473WAT     H110661   2.706   7.714   4.356
 3473WAT     H210662   2.733   7.636   4.215
 3474WAT      O10663   5.359   4.368   1.407
 3474WAT     H110664   5.451   4.340   1.434
 3474WAT     H210665   5.348   4.354   1.309
 3475WAT      O10666   5.402   3.960   3.866
 3475WAT     H110667   5.330   3.891   3.859
 3475WAT     H210668   5.480   3.922   3.914
 3476WAT      O10669   0.773   0.291   1.091
 3476WAT     H110670   0.814   0.278   1.181
 3476WAT     H210671   0.693   0.351   1.099
 3477WAT      O10672   9.282   5.746   4.081
 3477WAT     H110673   9.322   5.835   4.059
 3477WAT     H210674   9.301   5.724   4.177
 3478WAT      O10675   8.031   0.544   2.178
 3478WAT     H110676   8.121   0.573   2.211
 3478WAT     H210677   7.984   0.622   2.136
 3479WAT      O10678   1.266   4.827   7.662
 3479WAT     H110679   1.185   4.881   7.686
 3479WAT     H210680   1.241   4.731   7.656
 3480WAT      O10681   6.211   9.258   1.933
 3480WAT     H110682   6.132   9.229   1.880
 3480WAT     H210683   6.274   9.309   1.874
 3481WAT      O10684   4.887   7.035   7.196
 3481WAT     H110685   4.971   7.041   7.250
 3481WAT     H210686   4.820   6.979   7.245
 3482WAT      O10687   9.466   5.848   5.495
 3482WAT     H110688   9.562   5.821   5.493
 3482WAT     H210689   9.413   5.779   5.546
 3483WAT      O10690   6.116   2.076   2.572
 3483WAT     H110691   6.209   2.106   2.589
 3483WAT     H210692   6.111   2.029   2.484
 3484WAT      O10693   4.172   3.193   3.109
 3484WAT     H110694   4.155   3.201   3.011
 3484WAT     H210695   4.086   3.206   3.159
 3485WAT      O10696   4.311   7.665   5.941
 3485WAT     H110697   4.211   7.677   5.934
 3485WAT     H210698   4.334   7.625   6.029
 3486WAT      O10699   2.717   4.059   4.607
 3486WAT     H110700   2.747   3.964   4.601
 3486WAT     H210701   2.796   4.118   4.625
 3487WAT      O10702   6.042   9.645   9.532
 3487WAT     H110703   6.028   9.627   9.434
 3487WAT     H210704   5.954   9.655   9.577
 3488WAT      O10705   3.621   1.952   3.348
 3488WAT     H110706   3.688   2.020   3.320
 3488WAT     H210707   3.605   1.960   3.446
 3489WAT      O10708   5.619   3.720   2.934
 3489WAT     H110709   5.685   3.661   2.979
 3489WAT     H210710   5.585   3.676   2.851
 3490WAT      O10711   7.091   3.102   5.968
 3490WAT     H110712   7.165   3.036   5.969
 3490WAT     H210713   7.035   3.088   5.886
 3491WAT      O10714   3.329   5.494   4.876
 3491WAT     H110715   3.311   5.586   4.840
 3491WAT     H210716   3.310   5.493   4.975
 3492WAT      O10717   2.643   9.553   7.978
 3492WAT     H110718   2.643   9.620   7.904
 3492WAT     H210719   2.726   9.497   7.973
 3493WAT      O10720   8.831   4.724   8.665
 3493WAT     H110721   8.832   4.651   8.597
 3493WAT     H210722   8.894   4.700   8.739
 3494WAT      O10723   5.175   6.609   9.138
 3494WAT     H110724   5.108   6.541   9.167
 3494WAT     H210725   5.153   6.697   9.179
 3495WAT      O10726   5.432   6.213   0.528
 3495WAT     H110727   5.430   6.273   0.607
 3495WAT     H210728   5.397   6.262   0.448
 3496WAT      O10729   1.094   4.900   2.969
 3496WAT     H110730   1.041   4.959   3.031
 3496WAT     H210731   1.154   4.841   3.023
 3497WAT      O10732   8.102   0.541   9.180
 3497WAT     H110733   8.125   0.449   9.211
 3497WAT     H210734   8.175   0.576   9.122
 3498WAT      O10735   2.455   3.736   2.132
 3498WAT     H110736   2.453   3.797   2.053
 3498WAT     H210737   2.530   3.670   2.122
 3499WAT      O10738   5.842   8.055   3.469
 3499WAT     H110739   5.896   8.101   3.399
 3499WAT     H210740   5.854   7.956   3.460
 3500WAT      O10741   4.396   9.684   0.306
 3500WAT     H110742   4.357   9.631   0.230
 3500WAT     H210743   4.495   9.691   0.294
 3501WAT      O10744   2.873   5.949   7.434
 3501WAT     H110745   2.881   5.998   7.521
 3501WAT     H210746   2.812   5.871   7.445
 3502WAT      O10747   9.689   6.257   0.997
 3502WAT     H110748   9.589   6.257   1.002
 3502WAT     H210749   9.719   6.331   0.936
 3503WAT      O10750   3.364   1.448   6.758
 3503WAT     H110751   3.410   1.505   6.827
 3503WAT     H210752   3.409   1.459   6.670
 3504WAT      O10753   7.014   9.256   5.472
 3504WAT     H110754   7.080   9.207   5.416
 3504WAT     H210755   6.980   9.195   5.544
 3505WAT      O10756   3.850   9.407   6.227
 3505WAT     H110757   3.926   9.346   6.207
 3505WAT     H210758   3.817   9.449   6.143
 3506WAT      O10759   6.773   3.015   9.479
 3506WAT     H110760   6.803   2.950   9.550
 3506WAT     H210761   6.833   3.008   9.400
 3507WAT      O10762   3.588   7.907   1.324
 3507WAT     H110763   3.680   7.938   1.349
 3507WAT     H210764   3.595   7.822   1.273
 3508WAT      O10765   5.779   0.827   6.866
 3508WAT     H110766   5.697   0.771   6.852
 3508WAT     H210767   5.852   0.770   6.902
 3509WAT      O10768   9.190   3.407   4.635
 3509WAT     H110769   9.228   3.381   4.547
 3509WAT     H210770   9.259   3.394   4.706
 3510WAT      O10771   1.272   6.419   6.349
 3510WAT     H110772   1.183   6.411   6.305
 3510WAT     H210773   1.274   6.363   6.432
 3511WAT      O10774   1.170   0.384   9.570
 3511WAT     H110775   1.253   0.420   9.614
 3511WAT     H210776   1.139   0.303   9.620
 3512WAT      O10777   2.302   5.571   5.468
 3512WAT     H110778   2.306   5.522   5.555
 3512WAT     H210779   2.256   5.514   5.400
 3513WAT      O10780   0.946   3.226   4.908
 3513WAT     H110781   0.923   3.267   4.996
 3513WAT     H210782   0.888   3.146   4.892
 3514WAT      O10783   0.276   9.480   0.412
 3514WAT     H110784   0.333   9.549   0.458
 3514WAT     H210785   0.300   9.389   0.446
 3515WAT      O10786   4.540   2.558   9.105
 3515WAT     H110787   4.635   2.566   9.135
 3515WAT     H210788   4.482   2.540   9.184
 3516WAT      O10789   2.959   5.520   6.701
 3516WAT     H110790   2.894   5.527   6.625
 3516WAT     H210791   3.026   5.594   6.695
 3517WAT      O10792   8.023   1.064   0.082
 3517WAT     H110793   8.056   1.155   0.107
 3517WAT     H210794   8.022   1.005   0.163
 3518WAT      O10795   4.049   2.385   3.208
 3518WAT     H110796   4.092   2.294   3.209
 3518WAT     H210797   3.957   2.378   3.247
 3519WAT      O10798   2.433   9.382   9.125
 3519WAT     H110799   2.518   9.396   9.075
 3519WAT     H210800   2.443   9.304   9.187
 3520WAT      O10801   9.475   3.907   0.947
 3520WAT     H110802   9.477   3.958   1.032
 3520WAT     H210803   9.399   3.939   0.890
 3521WAT      O10804   3.692   1.716   5.231
 3521WAT     H110805   3.755   1.659   5.178
 3521WAT     H210806   3.697   1.811   5.198
 3522WAT      O10807   9.128   2.818   1.214
 3522WAT     H110808   9.180   2.733   1.206
 3522WAT     H210809   9.174   2.890   1.162
 3523WAT      O10810   7.294   9.541   0.280
 3523WAT     H110811   7.273   9.623   0.333
 3523WAT     H210812   7.246   9.463   0.319
 3524WAT      O10813   6.883   0.307   4.127
 3524WAT     H110814   6.799   0.310   4.180
 3524WAT     H210815   6.876   0.235   4.057
 3525WAT      O10816   5.300   3.808   1.598
 3525WAT     H110817   5.250   3.760   1.670
 3525WAT     H210818   5.238   3.830   1.523
 3526WAT      O10819   8.040   8.981   5.489
 3526WAT     H110820   8.104   8.965   5.413
 3526WAT     H210821   8.061   9.068   5.533
 3527WAT      O10822   6.111   2.048   0.121
 3527WAT     H110823   6.196   1.997   0.128
 3527WAT     H210824   6.034   1.986   0.132
 3528WAT      O10825   5.370   3.966   5.076
 3528WAT     H110826   5.374   3.936   5.171
 3528WAT     H210827   5.427   4.048   5.064
 3529WAT      O10828   0.460   0.943   3.114
 3529WAT     H110829   0.516   0.955   3.032
 3529WAT     H210830   0.420   1.030   3.140
 3530WAT      O10831   3.330   8.811   6.961
 3530WAT     H110832   3.240   8.806   7.004
 3530WAT     H210833   3.341   8.900   6.917
 3531WAT      O10834   8.852   3.861   2.534
 3531WAT     H110835   8.805   3.811   2.461
 3531WAT     H210836   8.951   3.843   2.528
 3532WAT      O10837   5.612   4.686   8.461
 3532WAT     H110838   5.551   4.643   8.528
 3532WAT     H210839   5.558   4.745   8.401
 3533WAT      O10840   5.890   0.603   1.725
 3533WAT     H110841   5.863   0.661   1.801
 3533WAT     H210842   5.826   0.527   1.716
 3534WAT      O10843   1.051   6.257   8.187
 3534WAT     H110844   1.090   6.165   8.186
 3534WAT     H210845   1.067   6.301   8.099
 3535WAT      O10846   9.649   9.814   2.065
 3535WAT     H110847   9.600   9.899   2.045
 3535WAT     H210848   9.659   9.804   2.164
 3536WAT      O10849   7.816   6.478   6.157
 3536WAT     H110850   7.779   6.410   6.092
 3536WAT     H210851   7.891   6.437   6.208
 3537WAT      O10852   6.009   5.216   7.779
 3537WAT     H110853   6.032   5.238   7.874
 3537WAT     H210854   6.092   5.220   7.723
 3538WAT      O10855   8.667   3.237   9.627
 3538WAT     H110856   8.683   3.304   9.699
 3538WAT     H210857   8.635   3.151   9.668
 3539WAT      O10858   3.579   9.808   8.311
 3539WAT     H110859   3.549   9.718   8.279
 3539WAT     H210860   3.562   9.876   8.240
 3540WAT      O10861   5.632   2.645   5.458
 3540WAT     H110862   5.574   2.726   5.451
 3540WAT     H210863   5.579   2.568   5.492
 3541WAT      O10864   6.178   7.006   6.769
 3541WAT     H110865   6.199   6.919   6.813
 3541WAT     H210866   6.217   7.081   6.823
 3542WAT      O10867   8.723   0.830   7.824
 3542WAT     H110868   8.699   0.925   7.805
 3542WAT     H210869   8.686   0.804   7.913
 3543WAT      O10870   9.603   9.474   5.134
 3543WAT     H110871   9.533   9.452   5.202
 3543WAT     H210872   9.690   9.492   5.179
 3544WAT      O10873   7.031   6.184   9.069
 3544WAT     H110874   7.070   6.127   8.997
 3544WAT     H210875   7.041   6.138   9.157
 3545WAT      O10876   8.666   7.024   9.309
 3545WAT     H110877   8.695   7.050   9.217
 3545WAT     H210878   8.603   6.946   9.304
 3546WAT      O10879   6.721   1.359   8.366
 3546WAT     H110880   6.717   1.260   8.378
 3546WAT     H210881   6.762   1.400   8.448
 3547WAT      O10882   7.391   9.652   0.646
 3547WAT     H110883   7.407   9.734   0.700
 3547WAT     H210884   7.478   9.613   0.617
 3548WAT      O10885   8.998   8.361   4.482
 3548WAT     H110886   8.917   8.376   4.424
 3548WAT     H210887   9.056   8.291   4.441
 3549WAT      O10888   7.357   0.611   1.562
 3549WAT     H110889   7.356   0.709   1.583
 3549WAT     H210890   7.439   0.569   1.600
 3550WAT      O10891   1.769   9.812   1.510
 3550WAT     H110892   1.746   9.873   1.434
 3550WAT     H210893   1.702   9.738   1.514
 3551WAT      O10894   6.684   2.702   7.779
 3551WAT     H110895   6.633   2.693   7.864
 3551WAT     H210896   6.662   2.626   7.718
 3552WAT      O10897   5.773   3.901   1.561
 3552WAT     H110898   5.819   3.817   1.591
 3552WAT     H210899   5.841   3.974   1.553
 3553WAT      O10900   1.061   5.711   6.263
 3553WAT     H110901   1.125   5.634   6.267
 3553WAT     H210902   1.111   5.797   6.275
 3554WAT      O10903   7.758   5.475   8.150
 3554WAT     H110904   7.760   5.515   8.242
 3554WAT     H210905   7.836   5.413   8.139
 3555WAT      O10906   5.959   7.754   7.821
 3555WAT     H110907   5.914   7.787   7.738
 3555WAT     H210908   5.982   7.832   7.880
 3556WAT      O10909   8.618   2.311   2.415
 3556WAT     H110910   8.598   2.291   2.511
 3556WAT     H210911   8.665   2.399   2.408
 3557WAT      O10912   9.326   0.390   7.753
 3557WAT     H110913   9.298   0.364   7.845
 3557WAT     H210914   9.352   0.486   7.752
 3558WAT      O10915   6.514   1.564   7.373
 3558WAT     H110916   6.613   1.578   7.372
 3558WAT     H210917   6.493   1.469   7.350
 3559WAT      O10918   0.322   1.007   2.556
 3559WAT     H110919   0.370   1.009   2.468
 3559WAT     H210920   0.348   0.925   2.606
 3560WAT      O10921   6.300   2.149   1.721
 3560WAT     H110922   6.349   2.222   1.674
 3560WAT     H210923   6.270   2.081   1.654
 3561WAT      O10924   2.795   0.660   1.803
 3561WAT     H110925   2.805   0.753   1.837
 3561WAT     H210926   2.879   0.609   1.819
 3562WAT      O10927   1.014   4.000   4.095
 3562WAT     H110928   0.946   3.970   4.028
 3562WAT     H210929   1.054   3.920   4.139
 3563WAT      O10930   0.042   7.298   3.978
 3563WAT     H110931   0.034   7.198   3.971
 3563WAT     H210932   0.021   7.339   3.889
 3564WAT      O10933   0.610   2.363   5.464
 3564WAT     H110934   0.698   2.404   5.488
 3564WAT     H210935   0.539   2.399   5.524
 3565WAT      O10936   3.153   8.945   8.913
 3565WAT     H110937   3.119   8.928   9.005
 3565WAT     H210938   3.164   8.858   8.865
 3566WAT      O10939   3.675   9.111   1.336
 3566WAT     H110940   3.632   9.198   1.316
 3566WAT     H210941   3.775   9.121   1.333
 3567WAT      O10942   7.847   0.153   8.182
 3567WAT     H110943   7.917   0.150   8.110
 3567WAT     H210944   7.797   0.240   8.176
 3568WAT      O10945   8.399   9.634   1.430
 3568WAT     H110946   8.467   9.564   1.451
 3568WAT     H210947   8.346   9.607   1.350
 3569WAT      O10948   4.957   1.496   8.475
 3569WAT     H110949   5.043   1.500   8.526
 3569WAT     H210950   4.922   1.402   8.478
 3570WAT      O10951   7.031   0.029   0.717
 3570WAT     H110952   7.063   0.079   0.637
 3570WAT     H210953   7.070   0.070   0.800
 3571WAT      O10954   2.627   4.846   5.505
 3571WAT     H110955   2.595   4.939   5.522
 3571WAT     H210956   2.719   4.849   5.467
 3572WAT      O10957   2.907   4.082   1.306
 3572WAT     H110958   2.949   3.993   1.292
 3572WAT     H210959   2.976   4.147   1.337
 3573WAT      O10960   2.213   5.809   4.596
 3573WAT     H110961   2.177   5.734   4.652
 3573WAT     H210962   2.281   5.860   4.648
 3574WAT      O10963   7.030   1.407   3.790
 3574WAT     H110964   6.949   1.397   3.732
 3574WAT     H210965   7.014   1.364   3.878
 3575WAT      O10966   9.396   5.927   4.591
 3575WAT     H110967   9.336   5.964   4.520
 3575WAT     H210968   9.445   5.847   4.556
 3576WAT      O10969   2.731   6.131   5.357
 3576WAT     H110970   2.798   6.136   5.432
 3576WAT     H210971   2.752   6.053   5.299
 3577WAT      O10972   2.568   4.936   9.421
 3577WAT     H110973   2.618   4.964   9.503
 3577WAT     H210974   2.630   4.931   9.343
 3578WAT      O10975   7.844   9.315   3.442
 3578WAT     H110976   7.874   9.308   3.347
 3578WAT     H210977   7.776   9.388   3.450
 3579WAT      O10978   4.149   1.432   2.237
 3579WAT     H110979   4.057   1.454   2.203
 3579WAT     H210980   4.147   1.423   2.337
 3580WAT      O10981   3.055   1.514   0.518
 3580WAT     H110982   3.050   1.576   0.596
 3580WAT     H210983   3.023   1.561   0.435
 3581WAT      O10984   2.659   2.834   7.106
 3581WAT     H110985   2.716   2.799   7.031
 3581WAT     H210986   2.708   2.909   7.151
 3582WAT      O10987   0.841   0.558   7.650
 3582WAT     H110988   0.930   0.515   7.666
 3582WAT     H210989   0.784   0.497   7.595
 3583WAT      O10990   8.567   6.684   0.304
 3583WAT     H110991   8.536   6.746   0.376
 3583WAT     H210992   8.532   6.716   0.216
 3584WAT      O10993   2.804   5.795   1.826
 3584WAT     H110994   2.848   5.735   1.893
 3584WAT     H210995   2.753   5.867   1.873
 3585WAT      O10996   3.178   0.355   3.473
 3585WAT     H110997   3.100   0.331   3.531
 3585WAT     H210998   3.263   0.334   3.521
 3586WAT      O10999   5.000   2.098   3.659
 3586WAT     H111000   5.041   2.018   3.615
 3586WAT     H211001   5.067   2.172   3.664
 3587WAT      O11002   5.917   0.820   6.573
 3587WAT     H111003   5.830   0.782   6.603
 3587WAT     H211004   5.977   0.831   6.652
 3588WAT      O11005   1.996   5.707   5.316
 3588WAT     H111006   2.071   5.772   5.320
 3588WAT     H211007   1.917   5.749   5.272
 3589WAT      O11008   7.702   0.838   3.458
 3589WAT     H111009   7.774   0.906   3.473
 3589WAT     H211010   7.732   0.771   3.391
 3590WAT      O11011   6.516   2.660   3.658
 3590WAT     H111012   6.538   2.625   3.749
 3590WAT     H211013   6.535   2.590   3.589
 3591WAT      O11014   2.230   5.823   1.166
 3591WAT     H111015   2.326   5.795   1.171
 3591WAT     H211016   2.225   5.920   1.143
 3592WAT      O11017   7.369   7.037   9.238
 3592WAT     H111018   7.288   6.979   9.240
 3592WAT     H211019   7.364   7.100   9.161
 3593WAT      O11020   7.098   4.547   9.724
 3593WAT     H111021   7.040   4.602   9.785
 3593WAT     H211022   7.057   4.544   9.633
 3594WAT      O11023   2.761   7.502   0.628
 3594WAT     H111024   2.758   7.602   0.634
 3594WAT     H211025   2.746   7.463   0.719
 3595WAT      O11026   6.976   8.166   7.982
 3595WAT     H111027   7.004   8.133   8.072
 3595WAT     H211028   7.057   8.178   7.924
 3596WAT      O11029   1.219   6.780   9.708
 3596WAT     H111030   1.201   6.770   9.806
 3596WAT     H211031   1.294   6.844   9.694
 3597WAT      O11032   6.514   4.908   5.405
 3597WAT     H111033   6.537   4.993   5.357
 3597WAT     H211034   6.560   4.907   5.494
 3598WAT      O11035   6.417   8.328   9.230
 3598WAT     H111036   6.452   8.298   9.141
 3598WAT     H211037   6.414   8.250   9.293
 3599WAT      O11038   4.397   8.791   1.435
 3599WAT     H111039   4.361   8.884   1.429
 3599WAT     H211040   4.380   8.755   1.527
 3600WAT      O11041   0.374   4.024   6.986
 3600WAT     H111042   0.385   3.931   7.021
 3600WAT     H211043   0.433   4.036   6.906
 3601WAT      O11044   8.062   0.579   7.711
 3601WAT     H111045   7.984   0.552   7.768
 3601WAT     H211046   8.094   0.501   7.659
 3602WAT      O11047   6.384   4.507   7.587
 3602WAT     H111048   6.417   4.532   7.496
 3602WAT     H211049   6.333   4.420   7.581
 3603WAT      O11050   2.886   0.710   5.736
 3603WAT     H111051   2.802   0.733   5.687
 3603WAT     H211052   2.909   0.783   5.800
 3604WAT      O11053   0.187   4.146   6.301
 3604WAT     H111054   0.249   4.075   6.333
 3604WAT     H211055   0.231   4.235   6.310
 3605WAT      O11056   9.251   7.818   0.953
 3605WAT     H111057   9.259   7.758   0.873
 3605WAT     H211058   9.170   7.875   0.944
 3606WAT      O11059   1.804   7.394   6.891
 3606WAT     H111060   1.902   7.380   6.901
 3606WAT     H211061   1.785   7.441   6.805
 3607WAT      O11062   4.382   8.437   6.030
 3607WAT     H111063   4.438   8.448   6.113
 3607WAT     H211064   4.308   8.503   6.031
 3608WAT      O11065   2.639   5.744   2.171
 3608WAT     H111066   2.616   5.681   2.246
 3608WAT     H211067   2.624   5.838   2.201
 3609WAT      O11068   3.435   8.246   6.196
 3609WAT     H111069   3.517   8.219   6.247
 3609WAT     H211070   3.354   8.216   6.246
 3610WAT      O11071   7.057   7.800   5.562
 3610WAT     H111072   7.052   7.869   5.490
 3610WAT     H211073   6.965   7.776   5.593
 3611WAT      O11074   6.349   8.477   2.036
 3611WAT     H111075   6.422   8.543   2.018
 3611WAT     H211076   6.376   8.387   2.002
 3612WAT      O11077   6.663   7.042   9.287
 3612WAT     H111078   6.564   7.035   9.275
 3612WAT     H211079   6.709   6.995   9.212
 3613WAT      O11080   0.596   1.214   0.022
 3613WAT     H111081   0.671   1.187  -0.038
 3613WAT     H211082   0.522   1.147   0.015
 3614WAT      O11083   4.121   4.617   6.486
 3614WAT     H111084   4.197   4.668   6.526
 3614WAT     H211085   4.124   4.625   6.386
 3615WAT      O11086   9.336   5.873   5.269
 3615WAT     H111087   9.387   5.902   5.351
 3615WAT     H211088   9.355   5.777   5.251
 3616WAT      O11089   0.489   1.158   4.916
 3616WAT     H111090   0.514   1.115   5.003
 3616WAT     H211091   0.538   1.112   4.842
 3617WAT      O11092   1.124   3.609   8.062
 3617WAT     H111093   1.040   3.569   8.098
 3617WAT     H211094   1.101   3.686   8.003
 3618WAT      O11095   0.494   3.743   5.838
 3618WAT     H111096   0.586   3.721   5.807
 3618WAT     H211097   0.428   3.686   5.789
 3619WAT      O11098   1.028   8.687   0.549
 3619WAT     H111099   1.096   8.760   0.542
 3619WAT     H211100   1.068   8.610   0.598
 3620WAT      O11101   0.705   4.192   3.828
 3620WAT     H111102   0.713   4.283   3.868
 3620WAT     H211103   0.728   4.196   3.731
 3621WAT      O11104   5.716   0.532   5.297
 3621WAT     H111105   5.682   0.626   5.309
 3621WAT     H211106   5.760   0.502   5.382
 3622WAT      O11107   7.038   3.335   7.204
 3622WAT     H111108   7.032   3.294   7.295
 3622WAT     H211109   7.127   3.314   7.165
 3623WAT      O11110   8.260   1.782   6.963
 3623WAT     H111111   8.234   1.865   6.914
 3623WAT     H211112   8.346   1.747   6.926
 3624WAT      O11113   0.049   9.731   3.211
 3624WAT     H111114  -0.027   9.795   3.225
 3624WAT     H211115   0.012   9.640   3.189
 3625WAT      O11116   0.015   8.722   1.789
 3625WAT     H111117   0.112   8.714   1.814
 3625WAT     H211118  -0.040   8.730   1.872
 3626WAT      O11119   1.942   7.975   7.901
 3626WAT     H111120   1.860   7.992   7.848
 3626WAT     H211121   1.971   7.880   7.888
 3627WAT      O11122   8.609   4.632   6.174
 3627WAT     H111123   8.553   4.704   6.131
 3627WAT     H211124   8.698   4.670   6.200
 3628WAT      O11125   3.778   4.254   1.492
 3628WAT     H111126   3.777   4.285   1.588
 3628WAT     H211127   3.868   4.273   1.453
 3629WAT      O11128   5.557   3.414   7.797
 3629WAT     H111129   5.603   3.326   7.796
 3629WAT     H211130   5.469   3.405   7.844
 3630WAT      O11131   1.167   3.401   6.275
 3630WAT     H111132   1.224   3.328   6.238
 3630WAT     H211133   1.122   3.370   6.358
 3631WAT      O11134   6.704   3.134   5.591
 3631WAT     H111135   6.613   3.137   5.632
 3631WAT     H211136   6.715   3.048   5.541
 3632WAT      O11137   1.347   4.286   7.521
 3632WAT     H111138   1.293   4.203   7.539
 3632WAT     H211139   1.286   4.360   7.493
 3633WAT      O11140   2.595   1.993   4.024
 3633WAT     H111141   2.531   2.014   4.097
 3633WAT     H211142   2.671   2.059   4.025
 3634WAT      O11143   8.161   5.366   7.799
 3634WAT     H111144   8.240   5.414   7.836
 3634WAT     H211145   8.079   5.419   7.815
 3635WAT      O11146   0.209   8.636   5.335
 3635WAT     H111147   0.154   8.561   5.299
 3635WAT     H211148   0.300   8.602   5.359
 3636WAT      O11149   2.090   9.173   0.485
 3636WAT     H111150   2.141   9.156   0.401
 3636WAT     H211151   2.059   9.268   0.487
 3637WAT      O11152   9.174   5.837   1.081
 3637WAT     H111153   9.148   5.840   0.985
 3637WAT     H211154   9.103   5.881   1.136
 3638WAT      O11155   8.270   9.002   6.087
 3638WAT     H111156   8.269   8.905   6.062
 3638WAT     H211157   8.298   9.012   6.182
 3639WAT      O11158   3.212   8.513   9.631
 3639WAT     H111159   3.130   8.463   9.658
 3639WAT     H211160   3.186   8.604   9.599
 3640WAT      O11161   1.065   7.729   5.091
 3640WAT     H111162   1.055   7.745   5.189
 3640WAT     H211163   0.989   7.773   5.042
 3641WAT      O11164   5.299   8.212   8.612
 3641WAT     H111165   5.279   8.130   8.559
 3641WAT     H211166   5.213   8.261   8.631
 3642WAT      O11167   3.746   9.550   6.013
 3642WAT     H111168   3.807   9.588   5.943
 3642WAT     H211169   3.710   9.624   6.069
 3643WAT      O11170   5.767   6.654   1.039
 3643WAT     H111171   5.751   6.622   0.945
 3643WAT     H211172   5.684   6.641   1.093
 3644WAT      O11173   9.753   8.260   9.670
 3644WAT     H111174   9.805   8.175   9.668
 3644WAT     H211175   9.663   8.244   9.631
 3645WAT      O11176   5.333   8.754   5.014
 3645WAT     H111177   5.320   8.736   5.112
 3645WAT     H211178   5.290   8.842   4.991
 3646WAT      O11179   4.091   5.175   7.387
 3646WAT     H111180   3.995   5.161   7.363
 3646WAT     H211181   4.146   5.100   7.351
 3647WAT      O11182   6.674   8.731   8.934
 3647WAT     H111183   6.624   8.694   8.855
 3647WAT     H211184   6.692   8.828   8.919
 3648WAT      O11185   8.184   2.166   8.789
 3648WAT     H111186   8.138   2.251   8.762
 3648WAT     H211187   8.240   2.133   8.713
 3649WAT      O11188   9.409   8.002   2.900
 3649WAT     H111189   9.351   7.962   2.830
 3649WAT     H211190   9.494   7.950   2.908
 3650WAT      O11191   7.899   8.015   1.769
 3650WAT     H111192   7.967   7.974   1.708
 3650WAT     H211193   7.943   8.042   1.854
 3651WAT      O11194   9.351   4.028   7.355
 3651WAT     H111195   9.410   4.091   7.406
 3651WAT     H211196   9.264   4.018   7.403
 3652WAT      O11197   1.055   5.962   9.318
 3652WAT     H111198   1.038   5.926   9.226
 3652WAT     H211199   1.132   5.914   9.359
 3653WAT      O11200   6.598   9.342   6.181
 3653WAT     H111201   6.634   9.293   6.259
 3653WAT     H211202   6.554   9.278   6.118
 3654WAT      O11203   7.774   9.215   6.905
 3654WAT     H111204   7.798   9.129   6.861
 3654WAT     H211205   7.675   9.221   6.916
 3655WAT      O11206   2.892   4.960   7.616
 3655WAT     H111207   2.951   5.036   7.642
 3655WAT     H211208   2.943   4.874   7.621
 3656WAT      O11209   8.161   8.494   1.872
 3656WAT     H111210   8.175   8.572   1.932
 3656WAT     H211211   8.068   8.459   1.885
 3657WAT      O11212   0.835   4.190   7.485
 3657WAT     H111213   0.904   4.162   7.552
 3657WAT     H211214   0.757   4.127   7.490
 3658WAT      O11215   3.658   6.865   7.672
 3658WAT     H111216   3.730   6.892   7.608
 3658WAT     H211217   3.573   6.849   7.623
 3659WAT      O11218   5.462   2.078   4.183
 3659WAT     H111219   5.435   2.087   4.087
 3659WAT     H211220   5.409   2.142   4.239
 3660WAT      O11221   6.120   6.737   8.546
 3660WAT     H111222   6.076   6.687   8.472
 3660WAT     H211223   6.081   6.829   8.553
 3661WAT      O11224   6.347   8.291   2.616
 3661WAT     H111225   6.339   8.381   2.574
 3661WAT     H211226   6.259   8.244   2.613
 3662WAT      O11227   9.262   9.328   2.902
 3662WAT     H111228   9.204   9.266   2.849
 3662WAT     H211229   9.311   9.276   2.972
 3663WAT      O11230   6.433   4.768   3.379
 3663WAT     H111231   6.455   4.708   3.457
 3663WAT     H211232   6.476   4.732   3.296
 3664WAT      O11233   7.744   7.654   6.273
 3664WAT     H111234   7.786   7.696   6.354
 3664WAT     H211235   7.651   7.626   6.294
 3665WAT      O11236   9.363   1.229   6.920
 3665WAT     H111237   9.391   1.313   6.966
 3665WAT     H211238   9.283   1.190   6.966
 3666WAT      O11239   6.352   3.699   7.385
 3666WAT     H111240   6.345   3.606   7.421
 3666WAT     H211241   6.282   3.757   7.427
 3667WAT      O11242   0.758   6.097   0.005
 3667WAT     H111243   0.793   6.095   0.099
 3667WAT     H211244   0.832   6.120  -0.058
 3668WAT      O11245   1.023   7.812   1.758
 3668WAT     H111246   1.061   7.789   1.848
 3668WAT     H211247   0.955   7.743   1.733
 3669WAT      O11248   7.312   6.149   6.586
 3669WAT     H111249   7.351   6.059   6.604
 3669WAT     H211250   7.213   6.145   6.599
 3670WAT      O11251   2.262   8.788   6.136
 3670WAT     H111252   2.283   8.825   6.045
 3670WAT     H211253   2.208   8.856   6.187
 3671WAT      O11254   4.239   8.986   2.396
 3671WAT     H111255   4.291   8.901   2.394
 3671WAT     H211256   4.142   8.966   2.378
 3672WAT      O11257   8.027   6.914   7.173
 3672WAT     H111258   8.065   6.973   7.102
 3672WAT     H211259   8.050   6.818   7.153
 3673WAT      O11260   1.116   7.442   7.962
 3673WAT     H111261   1.086   7.376   7.893
 3673WAT     H211262   1.066   7.528   7.951
 3674WAT      O11263   6.980   2.262   8.766
 3674WAT     H111264   6.904   2.212   8.807
 3674WAT     H211265   7.041   2.295   8.838
 3675WAT      O11266   5.177   6.020   6.362
 3675WAT     H111267   5.190   6.096   6.426
 3675WAT     H211268   5.157   5.936   6.413
 3676WAT      O11269   8.047   6.498   3.584
 3676WAT     H111270   8.079   6.592   3.588
 3676WAT     H211271   8.116   6.441   3.540
 3677WAT      O11272   4.316   9.148   4.730
 3677WAT     H111273   4.240   9.136   4.795
 3677WAT     H211274   4.305   9.235   4.683
 3678WAT      O11275   5.177   0.666   6.319
 3678WAT     H111276   5.174   0.607   6.400
 3678WAT     H211277   5.104   0.639   6.256
 3679WAT      O11278   2.187   6.753   3.501
 3679WAT     H111279   2.116   6.752   3.430
 3679WAT     H211280   2.144   6.776   3.589
 3680WAT      O11281   1.653   3.191   2.820
 3680WAT     H111282   1.612   3.106   2.853
 3680WAT     H211283   1.581   3.258   2.802
 3681WAT      O11284   6.902   1.316   3.519
 3681WAT     H111285   7.001   1.327   3.522
 3681WAT     H211286   6.879   1.219   3.523
 3682WAT      O11287   4.969   5.608   2.298
 3682WAT     H111288   4.872   5.611   2.276
 3682WAT     H211289   4.993   5.686   2.355
 3683WAT      O11290   5.858   4.621   0.867
 3683WAT     H111291   5.847   4.526   0.897
 3683WAT     H211292   5.772   4.671   0.884
 3684WAT      O11293   0.608   9.309   6.329
 3684WAT     H111294   0.705   9.322   6.345
 3684WAT     H211295   0.574   9.379   6.266
 3685WAT      O11296   5.016   2.684   2.977
 3685WAT     H111297   4.953   2.743   3.029
 3685WAT     H211298   4.983   2.677   2.883
 3686WAT      O11299   1.933   3.378   0.699
 3686WAT     H111300   1.914   3.296   0.645
 3686WAT     H211301   1.964   3.352   0.790
 3687WAT      O11302   7.774   9.608   0.287
 3687WAT     H111303   7.829   9.648   0.214
 3687WAT     H211304   7.679   9.599   0.257
 3688WAT      O11305   7.401   0.889   1.613
 3688WAT     H111306   7.485   0.895   1.667
 3688WAT     H211307   7.346   0.970   1.628
 3689WAT      O11308   2.575   8.401   5.197
 3689WAT     H111309   2.502   8.398   5.130
 3689WAT     H211310   2.651   8.343   5.167
 3690WAT      O11311   4.873   7.266   8.719
 3690WAT     H111312   4.790   7.211   8.714
 3690WAT     H211313   4.953   7.208   8.704
 3691WAT      O11314   1.112   7.690   8.333
 3691WAT     H111315   1.126   7.777   8.286
 3691WAT     H211316   1.108   7.705   8.432
 3692WAT      O11317   4.946   2.383   8.122
 3692WAT     H111318   4.856   2.372   8.164
 3692WAT     H211319   4.988   2.467   8.156
 3693WAT      O11320   5.186   1.210   4.363
 3693WAT     H111321   5.190   1.224   4.462
 3693WAT     H211322   5.271   1.168   4.331
 3694WAT      O11323   2.976   1.920   3.406
 3694WAT     H111324   3.024   1.842   3.365
 3694WAT     H211325   2.948   1.897   3.499
 3695WAT      O11326   7.446   3.257   6.190
 3695WAT     H111327   7.481   3.314   6.265
 3695WAT     H211328   7.522   3.213   6.142
 3696WAT      O11329   7.504   1.762   5.716
 3696WAT     H111330   7.574   1.722   5.775
 3696WAT     H211331   7.424   1.787   5.771
 3697WAT      O11332   3.720   2.436   5.175
 3697WAT     H111333   3.772   2.504   5.122
 3697WAT     H211334   3.656   2.389   5.115
 3698WAT      O11335   6.841   4.617   7.451
 3698WAT     H111336   6.810   4.592   7.360
 3698WAT     H211337   6.877   4.710   7.450
 3699WAT      O11338   1.856   3.910   9.119
 3699WAT     H111339   1.823   3.820   9.150
 3699WAT     H211340   1.955   3.907   9.108
 3700WAT      O11341   3.726   9.670   9.429
 3700WAT     H111342   3.682   9.730   9.495
 3700WAT     H211343   3.783   9.724   9.367
 3701WAT      O11344   1.758   4.888   5.940
 3701WAT     H111345   1.810   4.920   6.018
 3701WAT     H211346   1.727   4.794   5.956
 3702WAT      O11347   1.349   7.142   6.594
 3702WAT     H111348   1.366   7.141   6.495
 3702WAT     H211349   1.332   7.048   6.625
 3703WAT      O11350   1.373   8.125   5.432
 3703WAT     H111351   1.453   8.140   5.491
 3703WAT     H211352   1.404   8.107   5.339
 3704WAT      O11353   3.253   6.500   5.428
 3704WAT     H111354   3.341   6.543   5.449
 3704WAT     H211355   3.181   6.546   5.481
 3705WAT      O11356   3.668   6.776   4.468
 3705WAT     H111357   3.663   6.734   4.377
 3705WAT     H211358   3.752   6.831   4.474
 3706WAT      O11359   0.708   5.500   5.750
 3706WAT     H111360   0.798   5.459   5.734
 3706WAT     H211361   0.708   5.548   5.837
 3707WAT      O11362   9.635   3.892   2.712
 3707WAT     H111363   9.678   3.982   2.703
 3707WAT     H211364   9.689   3.824   2.663
 3708WAT      O11365   5.359   0.063   2.018
 3708WAT     H111366   5.363   0.019   2.108
 3708WAT     H211367   5.429   0.133   2.012
 3709WAT      O11368   8.400   0.784   7.113
 3709WAT     H111369   8.351   0.734   7.184
 3709WAT     H211370   8.359   0.875   7.101
 3710WAT      O11371   5.470   2.692   4.834
 3710WAT     H111372   5.484   2.758   4.760
 3710WAT     H211373   5.552   2.688   4.892
 3711WAT      O11374   5.987   8.842   8.489
 3711WAT     H111375   5.910   8.783   8.462
 3711WAT     H211376   6.065   8.785   8.516
 3712WAT      O11377   0.934   0.404   8.849
 3712WAT     H111378   0.958   0.488   8.801
 3712WAT     H211379   1.018   0.361   8.885
 3713WAT      O11380   7.318   5.984   2.427
 3713WAT     H111381   7.230   5.964   2.470
 3713WAT     H211382   7.391   5.942   2.482
 3714WAT      O11383   8.609   2.349   4.917
 3714WAT     H111384   8.578   2.383   4.828
 3714WAT     H211385   8.692   2.399   4.944
 3715WAT      O11386   9.738   3.612   5.465
 3715WAT     H111387   9.794   3.596   5.547
 3715WAT     H211388   9.797   3.612   5.384
 3716WAT      O11389   0.699   4.552   1.918
 3716WAT     H111390   0.723   4.611   1.840
 3716WAT     H211391   0.734   4.592   2.002
 3717WAT      O11392   2.278   3.417   3.470
 3717WAT     H111393   2.323   3.482   3.530
 3717WAT     H211394   2.213   3.362   3.523
 3718WAT      O11395   4.592   4.102   8.544
 3718WAT     H111396   4.620   4.133   8.454
 3718WAT     H211397   4.616   4.171   8.612
 3719WAT      O11398   3.066   5.276   6.744
 3719WAT     H111399   3.054   5.269   6.843
 3719WAT     H211400   3.025   5.362   6.712
 3720WAT      O11401   7.580   0.718   7.504
 3720WAT     H111402   7.527   0.650   7.452
 3720WAT     H211403   7.519   0.771   7.562
 3721WAT      O11404   3.920   7.597   2.452
 3721WAT     H111405   3.961   7.508   2.432
 3721WAT     H211406   3.990   7.657   2.490
 3722WAT      O11407   9.856   5.229   6.519
 3722WAT     H111408   9.858   5.148   6.460
 3722WAT     H211409   9.936   5.286   6.500
 3723WAT      O11410   9.837   0.796   7.635
 3723WAT     H111411   9.827   0.741   7.719
 3723WAT     H211412   9.902   0.751   7.574
 3724WAT      O11413   8.193   2.427   9.096
 3724WAT     H111414   8.278   2.441   9.148
 3724WAT     H211415   8.187   2.496   9.024
 3725WAT      O11416   3.714   0.613   4.993
 3725WAT     H111417   3.667   0.538   4.947
 3725WAT     H211418   3.648   0.663   5.050
 3726WAT      O11419   7.636   0.980   8.386
 3726WAT     H111420   7.708   0.911   8.385
 3726WAT     H211421   7.559   0.948   8.331
 3727WAT      O11422   8.017   4.508   3.910
 3727WAT     H111423   8.044   4.412   3.902
 3727WAT     H211424   8.090   4.566   3.874
 3728WAT      O11425   6.928   3.274   4.527
 3728WAT     H111426   6.991   3.315   4.592
 3728WAT     H211427   6.886   3.346   4.471
 3729WAT      O11428   5.474   0.983   8.457
 3729WAT     H111429   5.472   0.947   8.550
 3729WAT     H211430   5.554   0.947   8.409
 3730WAT      O11431   9.543   3.338   3.676
 3730WAT     H111432   9.637   3.373   3.670
 3730WAT     H211433   9.535   3.256   3.620
 3731WAT      O11434   8.956   2.748   5.805
 3731WAT     H111435   9.049   2.752   5.768
 3731WAT     H211436   8.959   2.740   5.904
 3732WAT      O11437   6.700   7.370   6.358
 3732WAT     H111438   6.660   7.294   6.308
 3732WAT     H211439   6.648   7.384   6.443
 3733WAT      O11440   8.170   8.685   2.590
 3733WAT     H111441   8.219   8.648   2.668
 3733WAT     H211442   8.206   8.776   2.568
 3734WAT      O11443   3.527   6.144   1.570
 3734WAT     H111444   3.534   6.136   1.470
 3734WAT     H211445   3.474   6.225   1.593
 3735WAT      O11446   0.585   4.982   9.472
 3735WAT     H111447   0.651   4.947   9.406
 3735WAT     H211448   0.519   4.911   9.495
 3736WAT      O11449   6.630   0.021   4.033
 3736WAT     H111450   6.631  -0.034   4.117
 3736WAT     H211451   6.549   0.080   4.033
 3737WAT      O11452   1.750   7.170   0.121
 3737WAT     H111453   1.679   7.118   0.073
 3737WAT     H211454   1.827   7.110   0.142
 3738WAT      O11455   4.369   8.444   3.118
 3738WAT     H111456   4.449   8.483   3.165
 3738WAT     H211457   4.291   8.445   3.180
 3739WAT      O11458   7.701   9.129   2.708
 3739WAT     H111459   7.718   9.037   2.742
 3739WAT     H211460   7.757   9.194   2.759
 3740WAT      O11461   5.365   9.743   8.304
 3740WAT     H111462   5.415   9.770   8.222
 3740WAT     H211463   5.313   9.821   8.339
 3741WAT      O11464   4.229   3.246   8.489
 3741WAT     H111465   4.176   3.210   8.412
 3741WAT     H211466   4.269   3.170   8.541
 3742WAT      O11467   0.901   1.699   3.934
 3742WAT     H111468   0.851   1.632   3.988
 3742WAT     H211469   0.854   1.714   3.847
 3743WAT      O11470   5.508   8.835   6.191
 3743WAT     H111471   5.484   8.854   6.096
 3743WAT     H211472   5.455   8.895   6.251
 3744WAT      O11473   2.473   1.434   6.575
 3744WAT     H111474   2.496   1.513   6.633
 3744WAT     H211475   2.553   1.374   6.568
 3745WAT      O11476   5.303   2.150   9.360
 3745WAT     H111477   5.281   2.231   9.305
 3745WAT     H211478   5.284   2.068   9.306
 3746WAT      O11479   6.758   5.941   2.542
 3746WAT     H111480   6.769   6.035   2.509
 3746WAT     H211481   6.754   5.879   2.464
 3747WAT      O11482   0.963   0.847   5.498
 3747WAT     H111483   0.935   0.785   5.571
 3747WAT     H211484   0.962   0.941   5.532
 3748WAT      O11485   5.440   7.731   5.424
 3748WAT     H111486   5.458   7.664   5.496
 3748WAT     H211487   5.342   7.735   5.406
 3749WAT      O11488   8.408   7.208   2.361
 3749WAT     H111489   8.474   7.135   2.380
 3749WAT     H211490   8.315   7.171   2.369
 3750WAT      O11491   6.352   9.082   9.057
 3750WAT     H111492   6.357   9.175   9.094
 3750WAT     H211493   6.400   9.079   8.970
 3751WAT      O11494   5.129   4.785   5.968
 3751WAT     H111495   5.058   4.851   5.946
 3751WAT     H211496   5.163   4.743   5.883
 3752WAT      O11497   2.088   8.204   5.043
 3752WAT     H111498   2.075   8.153   5.129
 3752WAT     H211499   2.097   8.139   4.967
 3753WAT      O11500   0.794   4.431   6.585
 3753WAT     H111501   0.879   4.383   6.564
 3753WAT     H211502   0.744   4.447   6.500
 3754WAT      O11503   5.197   9.766   6.641
 3754WAT     H111504   5.098   9.751   6.633
 3754WAT     H211505   5.245   9.693   6.594
 3755WAT      O11506   4.889   6.156   9.548
 3755WAT     H111507   4.967   6.183   9.491
 3755WAT     H211508   4.916   6.081   9.608
 3756WAT      O11509   1.328   3.942   1.543
 3756WAT     H111510   1.318   3.885   1.625
 3756WAT     H211511   1.351   3.884   1.465
 3757WAT      O11512   9.628   4.545   6.749
 3757WAT     H111513   9.613   4.632   6.702
 3757WAT     H211514   9.639   4.563   6.847
 3758WAT      O11515   4.923   8.703   9.367
 3758WAT     H111516   4.993   8.632   9.368
 3758WAT     H211517   4.870   8.696   9.283
 3759WAT      O11518   1.053   2.094   6.253
 3759WAT     H111519   0.996   2.045   6.188
 3759WAT     H211520   1.142   2.049   6.261
 3760WAT      O11521   4.471   7.082   2.754
 3760WAT     H111522   4.518   7.166   2.780
 3760WAT     H211523   4.535   7.022   2.706
 3761WAT      O11524   3.381   3.838   7.756
 3761WAT     H111525   3.348   3.773   7.688
 3761WAT     H211526   3.304   3.875   7.807
 3762WAT      O11527   8.184   2.365   1.252
 3762WAT     H111528   8.094   2.407   1.239
 3762WAT     H211529   8.204   2.360   1.350
 3763WAT      O11530   6.288   4.373   2.772
 3763WAT     H111531   6.202   4.360   2.820
 3763WAT     H211532   6.271   4.409   2.681
 3764WAT      O11533   5.949   7.731   2.251
 3764WAT     H111534   6.030   7.682   2.286
 3764WAT     H211535   5.926   7.695   2.160
 3765WAT      O11536   2.740   6.218   8.541
 3765WAT     H111537   2.765   6.129   8.502
 3765WAT     H211538   2.786   6.230   8.629
 3766WAT      O11539   3.482   7.414   4.296
 3766WAT     H111540   3.430   7.499   4.302
 3766WAT     H211541   3.428   7.339   4.334
 3767WAT      O11542   8.779   2.273   6.429
 3767WAT     H111543   8.856   2.305   6.484
 3767WAT     H211544   8.763   2.337   6.353
 3768WAT      O11545   9.555   8.808   8.134
 3768WAT     H111546   9.474   8.748   8.137
 3768WAT     H211547   9.559   8.862   8.218
 3769WAT      O11548   7.769   4.343   1.797
 3769WAT     H111549   7.751   4.358   1.700
 3769WAT     H211550   7.799   4.248   1.811
 3770WAT      O11551   4.416   1.553   4.370
 3770WAT     H111552   4.482   1.539   4.444
 3770WAT     H211553   4.324   1.554   4.408
 3771WAT      O11554   7.619   3.192   4.276
 3771WAT     H111555   7.617   3.217   4.373
 3771WAT     H211556   7.703   3.227   4.235
 3772WAT      O11557   1.980   1.962   3.462
 3772WAT     H111558   2.038   1.967   3.543
 3772WAT     H211559   1.897   2.015   3.477
 3773WAT      O11560   0.902   8.491   5.668
 3773WAT     H111561   0.884   8.554   5.744
 3773WAT     H211562   0.911   8.398   5.704
 3774WAT      O11563   4.490   6.401   0.877
 3774WAT     H111564   4.519   6.497   0.880
 3774WAT     H211565   4.401   6.395   0.832
 3775WAT      O11566   1.986   4.345   3.978
 3775WAT     H111567   1.977   4.283   4.056
 3775WAT     H211568   1.940   4.432   3.999
 3776WAT      O11569   8.778   9.544   1.828
 3776WAT     H111570   8.729   9.553   1.915
 3776WAT     H211571   8.798   9.635   1.792
 3777WAT      O11572   2.646   3.989   1.346
 3777WAT     H111573   2.714   4.049   1.303
 3777WAT     H211574   2.554   4.024   1.328
 3778WAT      O11575   4.503   3.462   0.261
 3778WAT     H111576   4.528   3.540   0.204
 3778WAT     H211577   4.571   3.451   0.334
 3779WAT      O11578   4.488   8.689   4.495
 3779WAT     H111579   4.439   8.637   4.425
 3779WAT     H211580   4.471   8.787   4.482
 3780WAT      O11581   2.279   6.001   3.686
 3780WAT     H111582   2.242   5.919   3.731
 3780WAT     H211583   2.206   6.069   3.677
 3781WAT      O11584   4.682   1.520   4.501
 3781WAT     H111585   4.675   1.581   4.580
 3781WAT     H211586   4.676   1.425   4.532
 3782WAT      O11587   1.314   5.053   2.863
 3782WAT     H111588   1.217   5.029   2.861
 3782WAT     H211589   1.327   5.141   2.817
 3783WAT      O11590   1.945   6.941   2.799
 3783WAT     H111591   1.950   6.877   2.722
 3783WAT     H211592   1.976   6.895   2.882
 3784WAT      O11593   7.577   4.464   3.139
 3784WAT     H111594   7.533   4.409   3.211
 3784WAT     H211595   7.506   4.502   3.079
 3785WAT      O11596   7.252   3.728   6.476
 3785WAT     H111597   7.256   3.794   6.551
 3785WAT     H211598   7.181   3.757   6.412
 3786WAT      O11599   2.634   5.411   1.535
 3786WAT     H111600   2.672   5.503   1.535
 3786WAT     H211601   2.635   5.375   1.629
 3787WAT      O11602   8.695   2.203   1.923
 3787WAT     H111603   8.764   2.268   1.956
 3787WAT     H211604   8.606   2.249   1.919
 3788WAT      O11605   1.877   2.391   8.377
 3788WAT     H111606   1.875   2.443   8.291
 3788WAT     H211607   1.949   2.322   8.372
 3789WAT      O11608   0.354   8.444   9.495
 3789WAT     H111609   0.311   8.368   9.446
 3789WAT     H211610   0.289   8.521   9.500
 3790WAT      O11611   8.289   4.847   4.195
 3790WAT     H111612   8.378   4.815   4.226
 3790WAT     H211613   8.271   4.810   4.103
 3791WAT      O11614   2.587   6.428   1.585
 3791WAT     H111615   2.549   6.425   1.677
 3791WAT     H211616   2.515   6.405   1.519
 3792WAT      O11617   1.472   0.723   8.948
 3792WAT     H111618   1.509   0.730   9.041
 3792WAT     H211619   1.397   0.657   8.947
 3793WAT      O11620   3.632   2.113   0.496
 3793WAT     H111621   3.637   2.029   0.443
 3793WAT     H211622   3.544   2.158   0.479
 3794WAT      O11623   3.663   3.174   7.882
 3794WAT     H111624   3.751   3.215   7.855
 3794WAT     H211625   3.613   3.145   7.800
 3795WAT      O11626   9.284   4.588   9.490
 3795WAT     H111627   9.342   4.512   9.518
 3795WAT     H211628   9.315   4.672   9.536
 3796WAT      O11629   9.581   6.029   7.496
 3796WAT     H111630   9.623   5.940   7.484
 3796WAT     H211631   9.512   6.043   7.425
 3797WAT      O11632   2.845   7.184   7.791
 3797WAT     H111633   2.777   7.121   7.827
 3797WAT     H211634   2.907   7.213   7.864
 3798WAT      O11635   9.098   3.733   4.201
 3798WAT     H111636   9.150   3.710   4.119
 3798WAT     H211637   9.146   3.698   4.282
 3799WAT      O11638   0.174   4.128   7.134
 3799WAT     H111639   0.126   4.178   7.061
 3799WAT     H211640   0.260   4.091   7.099
 3800WAT      O11641   2.184   4.100   3.501
 3800WAT     H111642   2.092   4.084   3.536
 3800WAT     H211643   2.228   4.012   3.480
 3801WAT      O11644   2.687   1.510   6.901
 3801WAT     H111645   2.612   1.500   6.966
 3801WAT     H211646   2.762   1.449   6.927
 3802WAT      O11647   0.750   5.112   0.484
 3802WAT     H111648   0.708   5.042   0.426
 3802WAT     H211649   0.701   5.198   0.474
 3803WAT      O11650   0.099   1.108   4.690
 3803WAT     H111651   0.053   1.193   4.664
 3803WAT     H211652   0.150   1.071   4.612
 3804WAT      O11653   8.203   6.247   4.748
 3804WAT     H111654   8.145   6.323   4.720
 3804WAT     H211655   8.189   6.170   4.686
 3805WAT      O11656   8.487   2.513   4.743
 3805WAT     H111657   8.443   2.486   4.657
 3805WAT     H211658   8.514   2.609   4.737
 3806WAT      O11659   7.602   9.450   8.660
 3806WAT     H111660   7.595   9.371   8.600
 3806WAT     H211661   7.572   9.532   8.611
 3807WAT      O11662   9.810   8.838   1.148
 3807WAT     H111663   9.870   8.916   1.134
 3807WAT     H211664   9.735   8.841   1.082
 3808WAT      O11665   0.032   1.193   2.347
 3808WAT     H111666  -0.063   1.204   2.319
 3808WAT     H211667   0.061   1.275   2.397
 3809WAT      O11668   5.068   2.993   1.786
 3809WAT     H111669   5.013   2.956   1.711
 3809WAT     H211670   5.138   3.054   1.748
 3810WAT      O11671   9.862   2.361   4.170
 3810WAT     H111672   9.961   2.380   4.165
 3810WAT     H211673   9.845   2.290   4.237
 3811WAT      O11674   2.036   2.661   1.262
 3811WAT     H111675   1.937   2.653   1.249
 3811WAT     H211676   2.083   2.612   1.188
 3812WAT      O11677   5.157   1.740   6.782
 3812WAT     H111678   5.195   1.701   6.698
 3812WAT     H211679   5.061   1.712   6.792
 3813WAT      O11680   6.743   9.153   0.255
 3813WAT     H111681   6.686   9.117   0.181
 3813WAT     H211682   6.828   9.100   0.261
 3814WAT      O11683   4.362   2.495   9.301
 3814WAT     H111684   4.371   2.396   9.300
 3814WAT     H211685   4.350   2.526   9.396
 3815WAT      O11686   4.831   9.204   7.718
 3815WAT     H111687   4.780   9.120   7.737
 3815WAT     H211688   4.927   9.182   7.702
 3816WAT      O11689   4.270   2.239   4.560
 3816WAT     H111690   4.341   2.289   4.610
 3816WAT     H211691   4.181   2.255   4.604
 3817WAT      O11692   2.418   1.213   6.331
 3817WAT     H111693   2.393   1.303   6.368
 3817WAT     H211694   2.346   1.180   6.270
 3818WAT      O11695   5.303   2.007   0.311
 3818WAT     H111696   5.234   2.011   0.239
 3818WAT     H211697   5.269   2.054   0.392
 3819WAT      O11698   3.208   1.959   8.154
 3819WAT     H111699   3.184   1.908   8.236
 3819WAT     H211700   3.216   2.056   8.176
 3820WAT      O11701   0.643   2.798   5.376
 3820WAT     H111702   0.618   2.755   5.289
 3820WAT     H211703   0.565   2.850   5.411
 3821WAT      O11704   0.090   1.928   4.408
 3821WAT     H111705   0.140   1.881   4.481
 3821WAT     H211706   0.102   2.027   4.417
 3822WAT      O11707   9.753   0.984   9.359
 3822WAT     H111708   9.718   1.053   9.423
 3822WAT     H211709   9.843   0.954   9.391
 3823WAT      O11710   3.837   4.171   4.205
 3823WAT     H111711   3.919   4.177   4.262
 3823WAT     H211712   3.759   4.142   4.261
 3824WAT      O11713   8.832   2.159   9.691
 3824WAT     H111714   8.841   2.252   9.656
 3824WAT     H211715   8.919   2.111   9.682
 3825WAT      O11716   5.519   3.933   1.747
 3825WAT     H111717   5.452   3.912   1.676
 3825WAT     H211718   5.604   3.965   1.703
 3826WAT      O11719   6.204   7.071   7.886
 3826WAT     H111720   6.300   7.042   7.885
 3826WAT     H211721   6.189   7.133   7.963
 3827WAT      O11722   3.695   7.820   1.765
 3827WAT     H111723   3.774   7.881   1.766
 3827WAT     H211724   3.621   7.862   1.712
 3828WAT      O11725   1.790   6.486   1.782
 3828WAT     H111726   1.756   6.573   1.816
 3828WAT     H211727   1.794   6.488   1.682
 3829WAT      O11728   0.287   3.057   0.520
 3829WAT     H111729   0.261   2.966   0.489
 3829WAT     H211730   0.223   3.124   0.484
 3830WAT      O11731   3.691   4.405   2.567
 3830WAT     H111732   3.776   4.401   2.621
 3830WAT     H211733   3.707   4.457   2.483
 3831WAT      O11734   0.981   8.634   9.102
 3831WAT     H111735   0.950   8.540   9.082
 3831WAT     H211736   0.934   8.667   9.184
 3832WAT      O11737   8.661   5.023   1.923
 3832WAT     H111738   8.658   5.038   2.022
 3832WAT     H211739   8.716   4.942   1.903
 3833WAT      O11740   5.869   9.712   6.607
 3833WAT     H111741   5.890   9.702   6.509
 3833WAT     H211742   5.779   9.754   6.617
 3834WAT      O11743   8.689   1.941   8.017
 3834WAT     H111744   8.780   1.951   7.976
 3834WAT     H211745   8.631   2.017   7.989
 3835WAT      O11746   7.565   3.041   2.863
 3835WAT     H111747   7.648   2.986   2.867
 3835WAT     H211748   7.537   3.052   2.768
 3836WAT      O11749   1.003   0.582   6.012
 3836WAT     H111750   0.935   0.530   5.960
 3836WAT     H211751   1.014   0.541   6.102
 3837WAT      O11752   5.560   2.604   2.845
 3837WAT     H111753   5.637   2.588   2.783
 3837WAT     H211754   5.580   2.564   2.934
 3838WAT      O11755   7.098   5.025   5.833
 3838WAT     H111756   7.042   5.095   5.876
 3838WAT     H211757   7.077   4.936   5.874
 3839WAT      O11758   5.838   5.099   0.009
 3839WAT     H111759   5.744   5.066  -0.000
 3839WAT     H211760   5.844   5.163   0.085
 3840WAT      O11761   6.495   8.101   2.712
 3840WAT     H111762   6.594   8.093   2.702
 3840WAT     H211763   6.465   8.188   2.673
 3841WAT      O11764   6.832   7.915   1.743
 3841WAT     H111765   6.783   7.958   1.820
 3841WAT     H211766   6.924   7.890   1.772
 3842WAT      O11767   1.691   5.479   3.862
 3842WAT     H111768   1.615   5.463   3.798
 3842WAT     H211769   1.662   5.545   3.931
 3843WAT      O11770   2.171   6.056   1.402
 3843WAT     H111771   2.264   6.049   1.437
 3843WAT     H211772   2.168   6.024   1.307
 3844WAT      O11773   8.049   5.146   7.905
 3844WAT     H111774   8.094   5.059   7.926
 3844WAT     H211775   8.114   5.207   7.860
 3845WAT      O11776   7.864   6.842   0.147
 3845WAT     H111777   7.949   6.795   0.121
 3845WAT     H211778   7.852   6.923   0.089
 3846WAT      O11779   7.023   1.706   9.379
 3846WAT     H111780   7.016   1.791   9.328
 3846WAT     H211781   7.057   1.634   9.319
 3847WAT      O11782   7.999   4.178   7.871
 3847WAT     H111783   8.051   4.261   7.892
 3847WAT     H211784   7.926   4.200   7.806
 3848WAT      O11785   1.965   8.103   4.232
 3848WAT     H111786   2.054   8.116   4.275
 3848WAT     H211787   1.969   8.026   4.169
 3849WAT      O11788   1.081   5.251   3.723
 3849WAT     H111789   0.987   5.263   3.755
 3849WAT     H211790   1.099   5.316   3.649
 3850WAT      O11791   8.552   0.266   2.207
 3850WAT     H111792   8.639   0.246   2.163
 3850WAT     H211793   8.555   0.238   2.303
 3851WAT      O11794   5.968   0.886   5.065
 3851WAT     H111795   6.032   0.909   4.992
 3851WAT     H211796   6.017   0.884   5.152
 3852WAT      O11797   0.696   9.643   0.358
 3852WAT     H111798   0.627   9.602   0.299
 3852WAT     H211799   0.700   9.742   0.343
 3853WAT      O11800   8.732   6.796   1.704
 3853WAT     H111801   8.830   6.791   1.685
 3853WAT     H211802   8.687   6.713   1.669
 3854WAT      O11803   8.988   7.050   2.994
 3854WAT     H111804   9.087   7.040   2.981
 3854WAT     H211805   8.940   6.998   2.923
 3855WAT      O11806   2.998   2.163   5.399
 3855WAT     H111807   3.088   2.184   5.361
 3855WAT     H211808   3.001   2.075   5.446
 3856WAT      O11809   4.247   1.245   0.713
 3856WAT     H111810   4.321   1.275   0.654
 3856WAT     H211811   4.273   1.259   0.809
 3857WAT      O11812   9.353   0.645   7.798
 3857WAT     H111813   9.391   0.712   7.735
 3857WAT     H211814   9.371   0.674   7.892
 3858WAT      O11815   9.416   6.309   7.323
 3858WAT     H111816   9.452   6.387   7.375
 3858WAT     H211817   9.356   6.343   7.250
 3859WAT      O11818   0.556   0.153   3.260
 3859WAT     H111819   0.570   0.238   3.311
 3859WAT     H211820   0.628   0.087   3.285
 3860WAT      O11821   4.357   0.873   2.022
 3860WAT     H111822   4.333   0.922   2.106
 3860WAT     H211823   4.285   0.887   1.954
 3861WAT      O11824   2.921   8.314   7.852
 3861WAT     H111825   2.896   8.217   7.848
 3861WAT     H211826   3.021   8.322   7.855
 3862WAT      O11827   8.439   0.910   5.683
 3862WAT     H111828   8.503   0.980   5.650
 3862WAT     H211829   8.357   0.955   5.719
 3863WAT      O11830   8.664   7.355   9.111
 3863WAT     H111831   8.749   7.406   9.116
 3863WAT     H211832   8.588   7.414   9.140
 3864WAT      O11833   7.746   4.265   5.370
 3864WAT     H111834   7.818   4.313   5.320
 3864WAT     H211835   7.740   4.171   5.338
 3865WAT      O11836   4.280   3.064   2.476
 3865WAT     H111837   4.345   3.066   2.551
 3865WAT     H211838   4.320   3.109   2.396
 3866WAT      O11839   7.325   2.887   2.929
 3866WAT     H111840   7.293   2.810   2.873
 3866WAT     H211841   7.414   2.918   2.896
 3867WAT      O11842   8.616   6.944   5.796
 3867WAT     H111843   8.636   6.864   5.739
 3867WAT     H211844   8.663   6.935   5.884
 3868WAT      O11845   9.762   3.105   2.635
 3868WAT     H111846   9.693   3.174   2.614
 3868WAT     H211847   9.826   3.097   2.559
 3869WAT      O11848   9.507   4.345   6.551
 3869WAT     H111849   9.529   4.410   6.478
 3869WAT     H211850   9.513   4.391   6.639
 3870WAT      O11851   7.766   3.941   2.425
 3870WAT     H111852   7.748   3.894   2.339
 3870WAT     H211853   7.683   3.988   2.456
 3871WAT      O11854   1.805   0.425   0.820
 3871WAT     H111855   1.749   0.393   0.743
 3871WAT     H211856   1.872   0.492   0.788
 3872WAT      O11857   0.032   6.933   1.258
 3872WAT     H111858  -0.067   6.925   1.250
 3872WAT     H211859   0.059   6.911   1.352
 3873WAT      O11860   2.100   8.400   4.502
 3873WAT     H111861   2.062   8.360   4.586
 3873WAT     H211862   2.190   8.439   4.521
 3874WAT      O11863   4.463   6.141   8.066
 3874WAT     H111864   4.420   6.083   7.998
 3874WAT     H211865   4.400   6.216   8.090
 3875WAT      O11866   5.606   8.207   7.146
 3875WAT     H111867   5.602   8.126   7.204
 3875WAT     H211868   5.659   8.278   7.192
 3876WAT      O11869   1.673   2.498   4.844
 3876WAT     H111870   1.684   2.585   4.893
 3876WAT     H211871   1.722   2.503   4.757
 3877WAT      O11872   9.498   5.069   4.764
 3877WAT     H111873   9.561   5.038   4.835
 3877WAT     H211874   9.407   5.082   4.804
 3878WAT      O11875   7.879   1.941   2.143
 3878WAT     H111876   7.866   1.880   2.065
 3878WAT     H211877   7.953   2.005   2.123
 3879WAT      O11878   5.070   8.499   2.178
 3879WAT     H111879   5.025   8.448   2.252
 3879WAT     H211880   5.031   8.472   2.090
 3880WAT      O11881   9.493   2.362   4.931
 3880WAT     H111882   9.492   2.328   5.025
 3880WAT     H211883   9.578   2.334   4.886
 3881WAT      O11884   7.950   7.501   5.567
 3881WAT     H111885   8.031   7.560   5.567
 3881WAT     H211886   7.972   7.414   5.610
 3882WAT      O11887   0.359   4.114   9.538
 3882WAT     H111888   0.305   4.105   9.622
 3882WAT     H211889   0.307   4.076   9.462
 3883WAT      O11890   6.823   4.883   0.974
 3883WAT     H111891   6.726   4.862   0.961
 3883WAT     H211892   6.835   4.983   0.973
 3884WAT      O11893   6.995   7.056   7.210
 3884WAT     H111894   7.020   6.981   7.148
 3884WAT     H211895   6.972   7.019   7.300
 3885WAT      O11896   5.202   7.493   3.423
 3885WAT     H111897   5.286   7.452   3.459
 3885WAT     H211898   5.132   7.494   3.494
 3886WAT      O11899   2.507   1.661   1.221
 3886WAT     H111900   2.492   1.713   1.305
 3886WAT     H211901   2.499   1.722   1.142
 3887WAT      O11902   7.835   7.254   3.479
 3887WAT     H111903   7.839   7.163   3.439
 3887WAT     H211904   7.792   7.249   3.570
 3888WAT      O11905   8.508   8.256   8.388
 3888WAT     H111906   8.577   8.328   8.395
 3888WAT     H211907   8.418   8.296   8.404
 3889WAT      O11908   3.473   6.792   7.494
 3889WAT     H111909   3.495   6.810   7.397
 3889WAT     H211910   3.394   6.847   7.520
 3890WAT      O11911   5.702   3.160   1.239
 3890WAT     H111912   5.790   3.146   1.192
 3890WAT     H211913   5.656   3.072   1.252
 3891WAT      O11914   9.362   9.825   8.150
 3891WAT     H111915   9.431   9.862   8.088
 3891WAT     H211916   9.272   9.861   8.125
 3892WAT      O11917   4.647   9.016   3.832
 3892WAT     H111918   4.650   8.975   3.923
 3892WAT     H211919   4.553   9.045   3.812
 3893WAT      O11920   5.591   0.579   0.433
 3893WAT     H111921   5.678   0.573   0.384
 3893WAT     H211922   5.580   0.670   0.471
 3894WAT      O11923   5.039   7.321   2.852
 3894WAT     H111924   4.981   7.289   2.777
 3894WAT     H211925   4.986   7.323   2.937
 3895WAT      O11926   9.210   2.820   2.336
 3895WAT     H111927   9.132   2.763   2.310
 3895WAT     H211928   9.255   2.780   2.416
 3896WAT      O11929   3.557   9.095   4.448
 3896WAT     H111930   3.509   9.031   4.507
 3896WAT     H211931   3.535   9.076   4.352
 3897WAT      O11932   0.439   0.379   5.418
 3897WAT     H111933   0.403   0.326   5.495
 3897WAT     H211934   0.406   0.339   5.332
 3898WAT      O11935   6.603   1.539   9.390
 3898WAT     H111936   6.658   1.491   9.322
 3898WAT     H211937   6.652   1.622   9.419
 3899WAT      O11938   1.550   1.756   5.936
 3899WAT     H111939   1.588   1.839   5.975
 3899WAT     H211940   1.535   1.770   5.838
 3900WAT      O11941   2.405   4.399   8.414
 3900WAT     H111942   2.501   4.386   8.440
 3900WAT     H211943   2.367   4.313   8.379
 3901WAT      O11944   7.903   6.300   0.020
 3901WAT     H111945   7.813   6.345   0.020
 3901WAT     H211946   7.934   6.288  -0.074
 3902WAT      O11947   3.755   0.221   1.017
 3902WAT     H111948   3.729   0.311   1.051
 3902WAT     H211949   3.675   0.161   1.016
 3903WAT      O11950   7.119   6.852   2.975
 3903WAT     H111951   7.050   6.785   3.004
 3903WAT     H211952   7.154   6.826   2.885
 3904WAT      O11953   6.397   7.069   9.213
 3904WAT     H111954   6.374   7.030   9.302
 3904WAT     H211955   6.314   7.103   9.170
 3905WAT      O11956   8.074   7.117   2.171
 3905WAT     H111957   7.986   7.070   2.161
 3905WAT     H211958   8.102   7.114   2.267
 3906WAT      O11959   5.118   2.317   1.554
 3906WAT     H111960   5.160   2.346   1.468
 3906WAT     H211961   5.175   2.347   1.631
 3907WAT      O11962   4.883   6.756   3.413
 3907WAT     H111963   4.814   6.739   3.343
 3907WAT     H211964   4.892   6.675   3.471
 3908WAT      O11965   1.651   9.602   8.196
 3908WAT     H111966   1.663   9.629   8.291
 3908WAT     H211967   1.728   9.543   8.168
 3909WAT      O11968   3.394   2.147   0.172
 3909WAT     H111969   3.298   2.153   0.148
 3909WAT     H211970   3.408   2.186   0.263
 3910WAT      O11971   0.866   5.522   6.958
 3910WAT     H111972   0.919   5.446   6.995
 3910WAT     H211973   0.928   5.592   6.923
 3911WAT      O11974   1.121   4.266   8.161
 3911WAT     H111975   1.055   4.248   8.234
 3911WAT     H211976   1.109   4.360   8.128
 3912WAT      O11977   1.955   4.255   9.649
 3912WAT     H111978   1.903   4.324   9.598
 3912WAT     H211979   1.988   4.185   9.587
 3913WAT      O11980   7.096   9.163   8.619
 3913WAT     H111981   7.098   9.205   8.529
 3913WAT     H211982   7.133   9.071   8.614
 3914WAT      O11983   0.209   5.342   9.169
 3914WAT     H111984   0.207   5.317   9.072
 3914WAT     H211985   0.209   5.259   9.225
 3915WAT      O11986   1.159   8.163   6.055
 3915WAT     H111987   1.137   8.249   6.008
 3915WAT     H211988   1.236   8.179   6.117
 3916WAT      O11989   9.067   2.841   9.113
 3916WAT     H111990   9.135   2.853   9.041
 3916WAT     H211991   9.102   2.777   9.182
 3917WAT      O11992   0.328   0.072   4.179
 3917WAT     H111993   0.303  -0.025   4.169
 3917WAT     H211994   0.427   0.080   4.189
 3918WAT      O11995   9.834   4.875   8.237
 3918WAT     H111996   9.919   4.829   8.210
 3918WAT     H211997   9.758   4.836   8.186
 3919WAT      O11998   8.920   4.980   4.090
 3919WAT     H111999   8.940   4.999   3.994
 3919WAT     H212000   8.854   5.047   4.125
 3920WAT      O12001   6.477   3.815   2.381
 3920WAT     H112002   6.501   3.910   2.363
 3920WAT     H212003   6.394   3.791   2.329
 3921WAT      O12004   7.087   4.184   6.727
 3921WAT     H112005   7.110   4.278   6.703
 3921WAT     H212006   6.987   4.174   6.731
 3922WAT      O12007   1.132   5.538   4.010
 3922WAT     H112008   1.177   5.451   4.029
 3922WAT     H212009   1.041   5.538   4.051
 3923WAT      O12010   7.108   5.501   2.852
 3923WAT     H112011   7.031   5.509   2.915
 3923WAT     H212012   7.076   5.515   2.758
 3924WAT      O12013   7.280   1.636   9.156
 3924WAT     H112014   7.220   1.607   9.081
 3924WAT     H212015   7.368   1.666   9.118
 3925WAT      O12016   2.778   0.846   3.916
 3925WAT     H112017   2.820   0.898   3.991
 3925WAT     H212018   2.847   0.825   3.847
 3926WAT      O12019   1.673   4.188   8.464
 3926WAT     H112020   1.645   4.152   8.553
 3926WAT     H212021   1.652   4.286   8.459
 3927WAT      O12022   7.811   7.847   6.827
 3927WAT     H112023   7.739   7.834   6.895
 3927WAT     H212024   7.838   7.759   6.789
 3928WAT      O12025   6.056   2.761   3.674
 3928WAT     H112026   5.994   2.831   3.709
 3928WAT     H212027   6.003   2.683   3.642
 3929WAT      O12028   6.652   7.654   6.336
 3929WAT     H112029   6.721   7.693   6.397
 3929WAT     H212030   6.657   7.554   6.340
 3930WAT      O12031   6.158   0.258   5.662
 3930WAT     H112032   6.070   0.277   5.706
 3930WAT     H212033   6.232   0.279   5.725
 3931WAT      O12034   9.522   0.331   6.874
 3931WAT     H112035   9.600   0.378   6.833
 3931WAT     H212036   9.525   0.342   6.973
 3932WAT      O12037   3.209   0.384   8.612
 3932WAT     H112038   3.233   0.441   8.691
 3932WAT     H212039   3.136   0.320   8.639
 3933WAT      O12040   1.387   1.388   3.834
 3933WAT     H112041   1.415   1.316   3.771
 3933WAT     H212042   1.292   1.412   3.816
 3934WAT      O12043   3.490   4.610   7.595
 3934WAT     H112044   3.553   4.532   7.605
 3934WAT     H212045   3.397   4.578   7.609
 3935WAT      O12046   7.663   7.762   7.073
 3935WAT     H112047   7.618   7.783   7.160
 3935WAT     H212048   7.595   7.760   7.000
 3936WAT      O12049   5.525   6.435   0.659
 3936WAT     H112050   5.549   6.447   0.563
 3936WAT     H212051   5.571   6.505   0.714
 3937WAT      O12052   0.707   9.786   0.047
 3937WAT     H112053   0.700   9.886   0.050
 3937WAT     H212054   0.619   9.745   0.068
 3938WAT      O12055   9.230   5.601   3.874
 3938WAT     H112056   9.252   5.662   3.951
 3938WAT     H212057   9.238   5.651   3.788
 3939WAT      O12058   3.785   7.405   3.742
 3939WAT     H112059   3.797   7.394   3.644
 3939WAT     H212060   3.692   7.380   3.768
 3940WAT      O12061   7.523   4.444   2.470
 3940WAT     H112062   7.470   4.428   2.553
 3940WAT     H212063   7.597   4.509   2.489
 3941WAT      O12064   1.110   5.388   6.106
 3941WAT     H112065   1.159   5.466   6.066
 3941WAT     H212066   1.168   5.343   6.174
 3942WAT      O12067   6.976   5.101   2.393
 3942WAT     H112068   6.933   5.069   2.309
 3942WAT     H212069   7.019   5.024   2.441
 3943WAT      O12070   4.227   9.072   4.026
 3943WAT     H112071   4.132   9.086   4.053
 3943WAT     H212072   4.287   9.125   4.085
 3944WAT      O12073   6.463   3.424   7.828
 3944WAT     H112074   6.364   3.426   7.834
 3944WAT     H212075   6.499   3.347   7.880
 3945WAT      O12076   4.421   7.465   9.207
 3945WAT     H112077   4.430   7.458   9.108
 3945WAT     H212078   4.324   7.459   9.232
 3946WAT      O12079   3.029   7.700   7.189
 3946WAT     H112080   2.958   7.644   7.232
 3946WAT     H212081   3.078   7.752   7.259
 3947WAT      O12082   1.972   7.377   9.628
 3947WAT     H112083   2.003   7.325   9.548
 3947WAT     H212084   1.878   7.408   9.614
 3948WAT      O12085   2.706   7.257   1.311
 3948WAT     H112086   2.615   7.220   1.291
 3948WAT     H212087   2.750   7.200   1.381
 3949WAT      O12088   5.252   7.303   9.872
 3949WAT     H112089   5.288   7.387   9.915
 3949WAT     H212090   5.193   7.328   9.796
 3950WAT      O12091   9.792   9.245   3.907
 3950WAT     H112092   9.789   9.182   3.984
 3950WAT     H212093   9.884   9.245   3.868
 3951WAT      O12094   7.193   2.357   1.556
 3951WAT     H112095   7.236   2.447   1.565
 3951WAT     H212096   7.210   2.321   1.464
 3952WAT      O12097   1.885   1.919   9.670
 3952WAT     H112098   1.984   1.906   9.665
 3952WAT     H212099   1.841   1.877   9.590
 3953WAT      O12100   7.396   7.912   4.391
 3953WAT     H112101   7.370   7.854   4.468
 3953WAT     H212102   7.471   7.972   4.419
 3954WAT      O12103   3.382   6.589   2.827
 3954WAT     H112104   3.303   6.534   2.802
 3954WAT     H212105   3.410   6.566   2.921
 3955WAT      O12106   4.085   5.577   9.307
 3955WAT     H112107   4.065   5.620   9.394
 3955WAT     H212108   4.177   5.537   9.310
 3956WAT      O12109   4.204   3.269   5.280
 3956WAT     H112110   4.180   3.364   5.266
 3956WAT     H212111   4.130   3.210   5.249
 3957WAT      O12112   4.320   9.633   5.968
 3957WAT     H112113   4.282   9.552   6.013
 3957WAT     H212114   4.254   9.669   5.903
 3958WAT      O12115   6.265   0.543   1.998
 3958WAT     H112116   6.275   0.459   2.051
 3958WAT     H212117   6.330   0.611   2.032
 3959WAT      O12118   0.289   8.101   9.229
 3959WAT     H112119   0.196   8.095   9.266
 3959WAT     H212120   0.300   8.190   9.183
 3960WAT      O12121   2.741   3.790   4.597
 3960WAT     H112122   2.683   3.738   4.660
 3960WAT     H212123   2.830   3.746   4.590
 3961WAT      O12124   5.353   1.633   5.954
 3961WAT     H112125   5.263   1.665   5.983
 3961WAT     H212126   5.424   1.685   6.001
 3962WAT      O12127   5.561   9.148   9.719
 3962WAT     H112128   5.576   9.121   9.814
 3962WAT     H212129   5.463   9.139   9.697
 3963WAT      O12130   2.453   2.717   6.927
 3963WAT     H112131   2.515   2.678   6.858
 3963WAT     H212132   2.508   2.761   6.999
 3964WAT      O12133   0.838   1.927   0.478
 3964WAT     H112134   0.750   1.905   0.436
 3964WAT     H212135   0.828   1.927   0.578
 3965WAT      O12136   6.150   5.841   8.085
 3965WAT     H112137   6.152   5.742   8.098
 3965WAT     H212138   6.132   5.861   7.989
 3966WAT      O12139   8.551   1.799   2.216
 3966WAT     H112140   8.489   1.757   2.281
 3966WAT     H212141   8.498   1.845   2.144
 3967WAT      O12142   3.177   5.477   9.523
 3967WAT     H112143   3.210   5.422   9.600
 3967WAT     H212144   3.203   5.432   9.438
 3968WAT      O12145   1.844   8.602   2.916
 3968WAT     H112146   1.928   8.642   2.878
 3968WAT     H212147   1.800   8.669   2.975
 3969WAT      O12148   3.961   3.700   7.991
 3969WAT     H112149   3.895   3.728   8.062
 3969WAT     H212150   4.050   3.739   8.012
 3970WAT      O12151   0.438   8.955   9.110
 3970WAT     H112152   0.494   8.872   9.106
 3970WAT     H212153   0.401   8.965   9.203
 3971WAT      O12154   5.929   6.017   2.598
 3971WAT     H112155   5.859   6.088   2.596
 3971WAT     H212156   6.018   6.057   2.576
 3972WAT      O12157   4.254   3.516   8.031
 3972WAT     H112158   4.161   3.499   7.997
 3972WAT     H212159   4.251   3.535   8.129
 3973WAT      O12160   8.532   8.176   3.709
 3973WAT     H112161   8.476   8.171   3.792
 3973WAT     H212162   8.548   8.272   3.686
 3974WAT      O12163   3.479   6.204   0.002
 3974WAT     H112164   3.559   6.147  -0.019
 3974WAT     H212165   3.495   6.255   0.086
 3975WAT      O12166   1.712   9.548   0.260
 3975WAT     H112167   1.667   9.461   0.237
 3975WAT     H212168   1.721   9.604   0.178
 3976WAT      O12169   1.917   4.312   0.766
 3976WAT     H112170   1.918   4.276   0.860
 3976WAT     H212171   1.844   4.379   0.757
 3977WAT      O12172   1.428   6.856   4.075
 3977WAT     H112173   1.512   6.805   4.090
 3977WAT     H212174   1.350   6.803   4.110
 3978WAT      O12175   6.356   0.486   0.838
 3978WAT     H112176   6.288   0.555   0.817
 3978WAT     H212177   6.355   0.415   0.766
 3979WAT      O12178   0.889   0.796   7.149
 3979WAT     H112179   0.967   0.853   7.123
 3979WAT     H212180   0.845   0.834   7.230
 3980WAT      O12181   8.991   1.298   8.676
 3980WAT     H112182   9.015   1.209   8.638
 3980WAT     H212183   8.894   1.299   8.700
 3981WAT      O12184   3.894   9.768   8.313
 3981WAT     H112185   3.799   9.793   8.334
 3981WAT     H212186   3.955   9.842   8.339
 3982WAT      O12187   5.094   1.450   6.336
 3982WAT     H112188   5.127   1.429   6.244
 3982WAT     H212189   5.145   1.396   6.403
 3983WAT      O12190   1.761   6.839   7.902
 3983WAT     H112191   1.679   6.858   7.847
 3983WAT     H212192   1.827   6.913   7.888
 3984WAT      O12193   7.042   6.070   2.194
 3984WAT     H112194   7.088   5.998   2.141
 3984WAT     H212195   7.061   6.159   2.153
 3985WAT      O12196   2.351   0.029   0.645
 3985WAT     H112197   2.393   0.115   0.615
 3985WAT     H212198   2.272   0.009   0.587
 3986WAT      O12199   1.572   3.078   5.730
 3986WAT     H112200   1.517   3.068   5.813
 3986WAT     H212201   1.664   3.108   5.754
 3987WAT      O12202   1.694   3.657   1.076
 3987WAT     H112203   1.724   3.593   1.005
 3987WAT     H212204   1.731   3.748   1.056
 3988WAT      O12205   7.158   0.843   8.598
 3988WAT     H112206   7.105   0.842   8.514
 3988WAT     H212207   7.097   0.851   8.677
 3989WAT      O12208   4.300   5.435   3.771
 3989WAT     H112209   4.351   5.362   3.818
 3989WAT     H212210   4.351   5.521   3.780
 3990WAT      O12211   3.628   2.806   0.437
 3990WAT     H112212   3.547   2.844   0.392
 3990WAT     H212213   3.604   2.774   0.528
 3991WAT      O12214   3.325   3.940   5.882
 3991WAT     H112215   3.326   3.996   5.799
 3991WAT     H212216   3.236   3.893   5.889
 3992WAT      O12217   0.124   2.914   2.150
 3992WAT     H112218   0.189   2.971   2.199
 3992WAT     H212219   0.124   2.939   2.053
 3993WAT      O12220   3.274   0.178   8.901
 3993WAT     H112221   3.344   0.196   8.969
 3993WAT     H212222   3.236   0.265   8.868
 3994WAT      O12223   0.895   6.441   5.169
 3994WAT     H112224   0.835   6.463   5.092
 3994WAT     H212225   0.844   6.445   5.254
 3995WAT      O12226   8.942   5.315   8.132
 3995WAT     H112227   8.983   5.405   8.118
 3995WAT     H212228   8.923   5.273   8.043
 3996WAT      O12229   5.197   6.888   0.949
 3996WAT     H112230   5.276   6.901   1.010
 3996WAT     H212231   5.188   6.967   0.889
 3997WAT      O12232   3.416   6.749   9.736
 3997WAT     H112233   3.323   6.747   9.699
 3997WAT     H212234   3.432   6.838   9.778
 3998WAT      O12235   3.212   8.131   4.318
 3998WAT     H112236   3.150   8.203   4.287
 3998WAT     H212237   3.195   8.110   4.414
 3999WAT      O12238   8.422   4.146   0.601
 3999WAT     H112239   8.469   4.178   0.683
 3999WAT     H212240   8.490   4.116   0.533
 4000WAT      O12241   4.211   2.337   3.657
 4000WAT     H112242   4.126   2.315   3.705
 4000WAT     H212243   4.258   2.252   3.632
 4001WAT      O12244   4.978   1.378   5.715
 4001WAT     H112245   4.903   1.313   5.710
 4001WAT     H212246   5.025   1.383   5.627
 4002WAT      O12247   6.668   2.267   3.521
 4002WAT     H112248   6.728   2.191   3.544
 4002WAT     H212249   6.716   2.353   3.539
 4003WAT      O12250   2.241   2.432   1.878
 4003WAT     H112251   2.202   2.512   1.924
 4003WAT     H212252   2.226   2.439   1.779
 4004WAT      O12253   5.106   0.649   9.762
 4004WAT     H112254   5.191   0.692   9.732
 4004WAT     H212255   5.028   0.698   9.721
 4005WAT      O12256   7.209   7.512   6.283
 4005WAT     H112257   7.147   7.445   6.241
 4005WAT     H212258   7.162   7.601   6.287
 4006WAT      O12259   0.388   2.215   5.803
 4006WAT     H112260   0.444   2.289   5.839
 4006WAT     H212261   0.312   2.254   5.750
 4007WAT      O12262   4.171   2.141   3.158
 4007WAT     H112263   4.242   2.070   3.165
 4007WAT     H212264   4.165   2.173   3.064
 4008WAT      O12265   7.216   7.451   0.110
 4008WAT     H112266   7.173   7.539   0.134
 4008WAT     H212267   7.150   7.396   0.058
 4009WAT      O12268   1.114   2.674   1.867
 4009WAT     H112269   1.088   2.737   1.940
 4009WAT     H212270   1.196   2.623   1.894
 4010WAT      O12271   8.592   8.194   7.699
 4010WAT     H112272   8.584   8.292   7.682
 4010WAT     H212273   8.689   8.169   7.704
 4011WAT      O12274   7.517   4.571   7.741
 4011WAT     H112275   7.489   4.666   7.731
 4011WAT     H212276   7.439   4.511   7.720
 4012WAT      O12277   7.129   0.625   2.269
 4012WAT     H112278   7.161   0.555   2.333
 4012WAT     H212279   7.180   0.710   2.285
 4013WAT      O12280   4.985   3.516   2.652
 4013WAT     H112281   5.031   3.577   2.717
 4013WAT     H212282   4.892   3.499   2.683
 4014WAT      O12283   2.930   0.880   5.995
 4014WAT     H112284   3.007   0.931   5.957
 4014WAT     H212285   2.846   0.932   5.980
 4015WAT      O12286   8.433   4.564   9.147
 4015WAT     H112287   8.522   4.565   9.193
 4015WAT     H212288   8.383   4.648   9.168
 4016WAT      O12289   9.473   4.507   7.012
 4016WAT     H112290   9.405   4.480   7.080
 4016WAT     H212291   9.562   4.519   7.056
 4017WAT      O12292   8.633   5.603   4.028
 4017WAT     H112293   8.697   5.669   3.989
 4017WAT     H212294   8.678   5.515   4.040
 4018WAT      O12295   6.195   3.380   7.818
 4018WAT     H112296   6.227   3.289   7.791
 4018WAT     H212297   6.110   3.400   7.771
 4019WAT      O12298   4.906   7.816   3.195
 4019WAT     H112299   4.971   7.747   3.163
 4019WAT     H212300   4.880   7.796   3.289
 4020WAT      O12301   0.594   1.226   1.498
 4020WAT     H112302   0.663   1.290   1.530
 4020WAT     H212303   0.520   1.221   1.564
 4021WAT      O12304   0.153   0.715   3.381
 4021WAT     H112305   0.223   0.710   3.452
 4021WAT     H212306   0.072   0.760   3.417
 4022WAT      O12307   1.394   0.274   8.293
 4022WAT     H112308   1.400   0.352   8.230
 4022WAT     H212309   1.307   0.278   8.343
 4023WAT      O12310   4.401   5.871   0.919
 4023WAT     H112311   4.485   5.827   0.885
 4023WAT     H212312   4.419   5.967   0.939
 4024WAT      O12313   6.564   3.324   7.578
 4024WAT     H112314   6.523   3.369   7.658
 4024WAT     H212315   6.498   3.261   7.537
 4025WAT      O12316   0.886   5.664   0.427
 4025WAT     H112317   0.913   5.568   0.414
 4025WAT     H212318   0.904   5.716   0.344
 4026WAT      O12319   3.308   3.477   9.409
 4026WAT     H112320   3.278   3.568   9.381
 4026WAT     H212321   3.251   3.445   9.485
 4027WAT      O12322   0.490   3.776   6.799
 4027WAT     H112323   0.582   3.737   6.801
 4027WAT     H212324   0.494   3.867   6.759
 4028WAT      O12325   3.373   8.437   6.038
 4028WAT     H112326   3.456   8.492   6.027
 4028WAT     H212327   3.393   8.358   6.096
 4029WAT      O12328   3.060   3.255   1.926
 4029WAT     H112329   3.154   3.286   1.909
 4029WAT     H212330   3.041   3.260   2.024
 4030WAT      O12331   9.234   6.748   2.713
 4030WAT     H112332   9.234   6.649   2.699
 4030WAT     H212333   9.296   6.791   2.648
 4031WAT      O12334   1.468   8.086   6.994
 4031WAT     H112335   1.394   8.087   7.062
 4031WAT     H212336   1.532   8.013   7.018
 4032WAT      O12337   6.880   5.605   0.534
 4032WAT     H112338   6.840   5.692   0.504
 4032WAT     H212339   6.853   5.532   0.472
 4033WAT      O12340   6.713   1.319   2.239
 4033WAT     H112341   6.741   1.404   2.283
 4033WAT     H212342   6.625   1.289   2.277
 4034WAT      O12343   3.463   3.627   0.801
 4034WAT     H112344   3.371   3.592   0.786
 4034WAT     H212345   3.501   3.585   0.884
 4035WAT      O12346   8.381   3.204   6.701
 4035WAT     H112347   8.471   3.210   6.659
 4035WAT     H212348   8.316   3.259   6.648
 4036WAT      O12349   2.831   6.286   9.352
 4036WAT     H112350   2.779   6.227   9.414
 4036WAT     H212351   2.805   6.381   9.369
 4037WAT      O12352   3.512   9.333   8.089
 4037WAT     H112353   3.578   9.320   8.014
 4037WAT     H212354   3.526   9.262   8.158
 4038WAT      O12355   5.630   2.592   6.277
 4038WAT     H112356   5.621   2.493   6.270
 4038WAT     H212357   5.544   2.636   6.250
 4039WAT      O12358   9.517   3.771   8.386
 4039WAT     H112359   9.614   3.758   8.368
 4039WAT     H212360   9.496   3.743   8.480
 4040WAT      O12361   7.067   6.903   8.176
 4040WAT     H112362   6.982   6.909   8.228
 4040WAT     H212363   7.133   6.970   8.211
 4041WAT      O12364   5.713   7.845   8.081
 4041WAT     H112365   5.780   7.804   8.144
 4041WAT     H212366   5.661   7.915   8.129
 4042WAT      O12367   8.960   8.224   0.397
 4042WAT     H112368   8.872   8.255   0.359
 4042WAT     H212369   9.021   8.199   0.322
 4043WAT      O12370   3.519   7.601   1.377
 4043WAT     H112371   3.559   7.511   1.358
 4043WAT     H212372   3.425   7.590   1.408
 4044WAT      O12373   6.536   2.528   0.507
 4044WAT     H112374   6.546   2.430   0.520
 4044WAT     H212375   6.573   2.576   0.587
 4045WAT      O12376   8.035   5.362   1.736
 4045WAT     H112377   7.967   5.292   1.717
 4045WAT     H212378   8.075   5.346   1.826
 4046WAT      O12379   7.184   0.418   0.599
 4046WAT     H112380   7.120   0.393   0.672
 4046WAT     H212381   7.274   0.435   0.639
 4047WAT      O12382   7.011   8.031   8.241
 4047WAT     H112383   7.070   8.014   8.320
 4047WAT     H212384   7.022   7.957   8.175
 4048WAT      O12385   5.452   1.051   7.980
 4048WAT     H112386   5.399   1.134   7.996
 4048WAT     H212387   5.539   1.075   7.937
 4049WAT      O12388   8.917   9.088   0.559
 4049WAT     H112389   8.929   9.118   0.653
 4049WAT     H212390   8.936   9.165   0.497
 4050WAT      O12391   8.458   8.700   4.620
 4050WAT     H112392   8.505   8.617   4.648
 4050WAT     H212393   8.369   8.705   4.664
 4051WAT      O12394   5.502   2.193   5.515
 4051WAT     H112395   5.521   2.097   5.534
 4051WAT     H212396   5.407   2.202   5.482
 4052WAT      O12397   9.714   4.661   7.030
 4052WAT     H112398   9.778   4.590   6.999
 4052WAT     H212399   9.733   4.746   6.980
 4053WAT      O12400   3.920   6.529   7.270
 4053WAT     H112401   3.874   6.549   7.184
 4053WAT     H212402   3.871   6.574   7.345
 4054WAT      O12403   0.231   5.376   3.042
 4054WAT     H112404   0.145   5.328   3.023
 4054WAT     H212405   0.303   5.339   2.983
 4055WAT      O12406   1.770   8.325   5.158
 4055WAT     H112407   1.801   8.390   5.088
 4055WAT     H212408   1.838   8.253   5.169
 4056WAT      O12409   9.816   7.605   7.401
 4056WAT     H112410   9.818   7.607   7.501
 4056WAT     H212411   9.727   7.637   7.369
 4057WAT      O12412   4.030   0.033   7.955
 4057WAT     H112413   3.984   0.043   7.867
 4057WAT     H212414   4.034  -0.063   7.980
 4058WAT      O12415   0.774   4.185   8.081
 4058WAT     H112416   0.775   4.085   8.082
 4058WAT     H212417   0.792   4.220   8.173
 4059WAT      O12418   8.952   7.153   7.807
 4059WAT     H112419   8.876   7.125   7.748
 4059WAT     H212420   8.975   7.248   7.788
 4060WAT      O12421   0.994   4.141   9.657
 4060WAT     H112422   1.001   4.241   9.652
 4060WAT     H212423   1.067   4.107   9.717
 4061WAT      O12424   6.819   2.290   0.365
 4061WAT     H112425   6.880   2.211   0.373
 4061WAT     H212426   6.733   2.271   0.413
 4062WAT      O12427   0.214   3.111   2.668
 4062WAT     H112428   0.268   3.098   2.752
 4062WAT     H212429   0.157   3.193   2.678
 4063WAT      O12430   1.608   4.023   0.399
 4063WAT     H112431   1.544   3.999   0.473
 4063WAT     H212432   1.650   3.940   0.364
 4064WAT      O12433   0.805   8.676   6.928
 4064WAT     H112434   0.737   8.746   6.907
 4064WAT     H212435   0.891   8.698   6.882
 4065WAT      O12436   2.588   3.243   0.018
 4065WAT     H112437   2.636   3.190  -0.052
 4065WAT     H212438   2.572   3.336  -0.015
 4066WAT      O12439   9.457   2.323   5.620
 4066WAT     H112440   9.461   2.239   5.674
 4066WAT     H212441   9.488   2.400   5.675
 4067WAT      O12442   3.864   9.344   5.687
 4067WAT     H112443   3.876   9.247   5.710
 4067WAT     H212444   3.925   9.400   5.743
 4068WAT      O12445   5.976   5.396   6.593
 4068WAT     H112446   5.933   5.425   6.508
 4068WAT     H212447   6.060   5.447   6.608
 4069WAT      O12448   8.920   6.927   7.334
 4069WAT     H112449   8.846   6.986   7.367
 4069WAT     H212450   8.960   6.966   7.251
 4070WAT      O12451   1.009   5.154   5.058
 4070WAT     H112452   0.915   5.127   5.034
 4070WAT     H212453   1.059   5.178   4.974
 4071WAT      O12454   8.144   9.828   2.259
 4071WAT     H112455   8.235   9.789   2.269
 4071WAT     H212456   8.095   9.783   2.184
 4072WAT      O12457   2.534   8.767   7.249
 4072WAT     H112458   2.465   8.765   7.322
 4072WAT     H212459   2.511   8.840   7.184
 4073WAT      O12460   7.968   7.925   2.814
 4073WAT     H112461   7.929   7.985   2.883
 4073WAT     H212462   7.924   7.942   2.726
 4074WAT      O12463   4.364   8.270   7.861
 4074WAT     H112464   4.388   8.365   7.841
 4074WAT     H212465   4.428   8.232   7.928
 4075WAT      O12466   2.339   0.807   6.280
 4075WAT     H112467   2.432   0.828   6.249
 4075WAT     H212468   2.332   0.828   6.378
 4076WAT      O12469   7.284   2.117   5.172
 4076WAT     H112470   7.215   2.050   5.199
 4076WAT     H212471   7.297   2.184   5.245
 4077WAT      O12472   4.521   4.092   0.081
 4077WAT     H112473   4.429   4.128   0.066
 4077WAT     H212474   4.581   4.165   0.115
 4078WAT      O12475   9.766   1.305   3.515
 4078WAT     H112476   9.761   1.403   3.529
 4078WAT     H212477   9.696   1.277   3.450
 4079WAT      O12478   7.828   3.025   2.191
 4079WAT     H112479   7.916   2.992   2.225
 4079WAT     H212480   7.760   2.952   2.198
 4080WAT      O12481   3.688   3.119   6.874
 4080WAT     H112482   3.782   3.126   6.841
 4080WAT     H212483   3.626   3.161   6.809
 4081WAT      O12484   7.417   0.042   6.228
 4081WAT     H112485   7.350   0.099   6.180
 4081WAT     H212486   7.402   0.049   6.327
 4082WAT      O12487   0.607   5.751   2.922
 4082WAT     H112488   0.574   5.695   2.845
 4082WAT     H212489   0.650   5.691   2.990
 4083WAT      O12490   4.382   7.535   5.221
 4083WAT     H112491   4.431   7.453   5.251
 4083WAT     H212492   4.298   7.545   5.274
 4084WAT      O12493   3.597   9.477   9.261
 4084WAT     H112494   3.654   9.528   9.325
 4084WAT     H212495   3.503   9.513   9.263
 4085WAT      O12496   6.984   5.464   1.360
 4085WAT     H112497   6.974   5.437   1.456
 4085WAT     H212498   6.905   5.519   1.333
 4086WAT      O12499   1.849   3.502   6.389
 4086WAT     H112500   1.805   3.422   6.430
 4086WAT     H212501   1.801   3.585   6.417
 4087WAT      O12502   7.437   7.423   7.949
 4087WAT     H112503   7.528   7.383   7.936
 4087WAT     H212504   7.382   7.361   8.005
 4088WAT      O12505   1.548   8.479   8.877
 4088WAT     H112506   1.448   8.483   8.880
 4088WAT     H212507   1.576   8.400   8.822
 4089WAT      O12508   0.260   3.018   3.162
 4089WAT     H112509   0.256   3.097   3.100
 4089WAT     H212510   0.328   3.035   3.233
 4090WAT      O12511   7.481   4.836   7.690
 4090WAT     H112512   7.568   4.874   7.723
 4090WAT     H212513   7.450   4.890   7.611
 4091WAT      O12514   8.074   3.748   5.720
 4091WAT     H112515   8.172   3.727   5.719
 4091WAT     H212516   8.039   3.739   5.813
 4092WAT      O12517   9.002   2.248   3.254
 4092WAT     H112518   8.968   2.340   3.233
 4092WAT     H212519   9.053   2.250   3.340
 4093WAT      O12520   8.239   1.842   5.551
 4093WAT     H112521   8.241   1.821   5.454
 4093WAT     H212522   8.300   1.919   5.570
 4094WAT      O12523   9.773   0.894   5.727
 4094WAT     H112524   9.795   0.798   5.714
 4094WAT     H212525   9.780   0.943   5.640
 4095WAT      O12526   2.987   0.113   2.815
 4095WAT     H112527   2.958   0.120   2.910
 4095WAT     H212528   3.070   0.057   2.809
 4096WAT      O12529   7.472   9.669   8.556
 4096WAT     H112530   7.492   9.751   8.503
 4096WAT     H212531   7.472   9.691   8.654
 4097WAT      O12532   7.221   3.775   9.582
 4097WAT     H112533   7.156   3.794   9.508
 4097WAT     H212534   7.284   3.852   9.591
 4098WAT      O12535   8.541   5.583   9.326
 4098WAT     H112536   8.596   5.501   9.341
 4098WAT     H212537   8.544   5.608   9.229
 4099WAT      O12538   8.754   9.598   9.545
 4099WAT     H112539   8.658   9.625   9.545
 4099WAT     H212540   8.761   9.498   9.554
 4100WAT      O12541   7.526   4.837   2.906
 4100WAT     H112542   7.432   4.867   2.896
 4100WAT     H212543   7.543   4.810   3.001
 4101WAT      O12544   3.724   2.984   1.879
 4101WAT     H112545   3.695   3.044   1.804
 4101WAT     H212546   3.723   2.889   1.848
 4102WAT      O12547   8.539   7.961   3.507
 4102WAT     H112548   8.604   7.889   3.528
 4102WAT     H212549   8.564   8.044   3.558
 4103WAT      O12550   6.248   6.581   5.990
 4103WAT     H112551   6.276   6.677   5.988
 4103WAT     H212552   6.151   6.575   6.014
 4104WAT      O12553   1.525   0.107   5.410
 4104WAT     H112554   1.427   0.110   5.428
 4104WAT     H212555   1.556   0.012   5.415
 4105WAT      O12556   3.683   7.992   3.857
 4105WAT     H112557   3.606   7.954   3.806
 4105WAT     H212558   3.769   7.972   3.809
 4106WAT      O12559   5.092   1.545   2.124
 4106WAT     H112560   5.187   1.529   2.149
 4106WAT     H212561   5.085   1.630   2.072
 4107WAT      O12562   7.811   8.033   7.270
 4107WAT     H112563   7.737   8.052   7.206
 4107WAT     H212564   7.851   7.944   7.248
 4108WAT      O12565   0.122   6.583   2.318
 4108WAT     H112566   0.060   6.657   2.290
 4108WAT     H212567   0.122   6.512   2.248
 4109WAT      O12568   0.521   6.119   7.512
 4109WAT     H112569   0.516   6.029   7.468
 4109WAT     H212570   0.460   6.121   7.590
 4110WAT      O12571   5.420   9.553   1.320
 4110WAT     H112572   5.501   9.592   1.363
 4110WAT     H212573   5.342   9.615   1.333
 4111WAT      O12574   0.568   3.070   9.321
 4111WAT     H112575   0.566   3.146   9.256
 4111WAT     H212576   0.481   3.020   9.317
 4112WAT      O12577   4.137   3.885   8.060
 4112WAT     H112578   4.220   3.918   8.105
 4112WAT     H212579   4.057   3.924   8.105
 4113WAT      O12580   1.048   6.114   8.603
 4113WAT     H112581   1.018   6.188   8.543
 4113WAT     H212582   1.114   6.149   8.669
 4114WAT      O12583   3.211   2.158   8.530
 4114WAT     H112584   3.253   2.192   8.446
 4114WAT     H212585   3.119   2.125   8.510
 4115WAT      O12586   8.286   3.229   7.542
 4115WAT     H112587   8.353   3.258   7.473
 4115WAT     H212588   8.281   3.299   7.614
 4116WAT      O12589   0.617   5.625   2.361
 4116WAT     H112590   0.593   5.553   2.426
 4116WAT     H212591   0.673   5.586   2.287
 4117WAT      O12592   9.392   9.380   0.558
 4117WAT     H112593   9.349   9.332   0.481
 4117WAT     H212594   9.481   9.415   0.529
 4118WAT      O12595   1.350   7.447   2.459
 4118WAT     H112596   1.259   7.408   2.441
 4118WAT     H212597   1.361   7.460   2.558
 4119WAT      O12598   8.411   3.820   7.618
 4119WAT     H112599   8.359   3.854   7.697
 4119WAT     H212600   8.424   3.894   7.552
 4120WAT      O12601   1.933   8.804   8.346
 4120WAT     H112602   1.869   8.788   8.420
 4120WAT     H212603   1.883   8.822   8.261
 4121WAT      O12604   7.909   5.321   4.334
 4121WAT     H112605   7.984   5.385   4.344
 4121WAT     H212606   7.861   5.312   4.422
 4122WAT      O12607   0.124   1.620   7.008
 4122WAT     H112608   0.142   1.563   7.088
 4122WAT     H212609   0.143   1.716   7.030
 4123WAT      O12610   1.826   4.535   1.079
 4123WAT     H112611   1.919   4.498   1.084
 4123WAT     H212612   1.829   4.635   1.085
 4124WAT      O12613   6.781   2.509   3.580
 4124WAT     H112614   6.796   2.592   3.527
 4124WAT     H212615   6.841   2.508   3.660
 4125WAT      O12616   1.435   5.992   4.761
 4125WAT     H112617   1.335   5.988   4.770
 4125WAT     H212618   1.459   6.048   4.682
 4126WAT      O12619   8.328   6.102   3.957
 4126WAT     H112620   8.277   6.150   3.886
 4126WAT     H212621   8.345   6.164   4.034
 4127WAT      O12622   7.613   4.512   6.678
 4127WAT     H112623   7.580   4.452   6.605
 4127WAT     H212624   7.662   4.590   6.639
 4128WAT      O12625   9.860   7.821   4.293
 4128WAT     H112626   9.908   7.870   4.221
 4128WAT     H212627   9.853   7.724   4.269
 4129WAT      O12628   2.606   2.836   2.258
 4129WAT     H112629   2.643   2.787   2.179
 4129WAT     H212630   2.676   2.843   2.329
 4130WAT      O12631   1.632   9.248   3.156
 4130WAT     H112632   1.650   9.150   3.159
 4130WAT     H212633   1.627   9.284   3.249
 4131WAT      O12634   9.884   2.524   7.209
 4131WAT     H112635   9.887   2.544   7.307
 4131WAT     H212636   9.877   2.425   7.195
 4132WAT      O12637   7.504   1.750   9.074
 4132WAT     H112638   7.543   1.778   9.162
 4132WAT     H212639   7.502   1.828   9.012
 4133WAT      O12640   1.558   3.197   0.528
 4133WAT     H112641   1.561   3.149   0.441
 4133WAT     H212642   1.580   3.294   0.513
 4134WAT      O12643   9.304   4.212   6.458
 4134WAT     H112644   9.232   4.198   6.527
 4134WAT     H212645   9.379   4.265   6.498
 4135WAT      O12646   9.217   2.112   8.067
 4135WAT     H112647   9.120   2.087   8.071
 4135WAT     H212648   9.256   2.077   7.982
 4136WAT      O12649   2.831   4.580   6.583
 4136WAT     H112650   2.869   4.626   6.662
 4136WAT     H212651   2.873   4.616   6.499
 4137WAT      O12652   9.054   2.885   4.056
 4137WAT     H112653   8.970   2.940   4.059
 4137WAT     H212654   9.051   2.825   3.976
 4138WAT      O12655   5.425   2.804   3.364
 4138WAT     H112656   5.397   2.748   3.286
 4138WAT     H212657   5.519   2.780   3.390
 4139WAT      O12658   8.282   5.989   1.589
 4139WAT     H112659   8.302   5.898   1.626
 4139WAT     H212660   8.230   6.042   1.656
 4140WAT      O12661   0.615   1.988   8.981
 4140WAT     H112662   0.557   1.998   8.900
 4140WAT     H212663   0.706   1.957   8.954
 4141WAT      O12664   0.304   6.720   3.368
 4141WAT     H112665   0.256   6.803   3.396
 4141WAT     H212666   0.295   6.708   3.269
 4142WAT      O12667   5.729   1.244   2.484
 4142WAT     H112668   5.736   1.149   2.453
 4142WAT     H212669   5.763   1.305   2.412
 4143WAT      O12670   9.726   0.954   2.866
 4143WAT     H112671   9.782   0.907   2.797
 4143WAT     H212672   9.768   1.041   2.889
 4144WAT      O12673   3.848   9.635   5.071
 4144WAT     H112674   3.829   9.566   5.141
 4144WAT     H212675   3.926   9.691   5.099
 4145WAT      O12676   9.889   3.213   7.286
 4145WAT     H112677   9.801   3.179   7.253
 4145WAT     H212678   9.909   3.173   7.375
 4146WAT      O12679   9.546   4.054   1.150
 4146WAT     H112680   9.506   4.081   1.237
 4146WAT     H212681   9.559   4.135   1.092
 4147WAT      O12682   8.284   6.513   5.968
 4147WAT     H112683   8.384   6.517   5.964
 4147WAT     H212684   8.246   6.527   5.877
 4148WAT      O12685   8.793   7.928   9.803
 4148WAT     H112686   8.739   7.901   9.884
 4148WAT     H212687   8.811   8.026   9.807
 4149WAT      O12688   5.203   6.720   3.502
 4149WAT     H112689   5.166   6.744   3.592
 4149WAT     H212690   5.299   6.692   3.513
 4150WAT      O12691   7.617   5.797   6.945
 4150WAT     H112692   7.610   5.732   6.869
 4150WAT     H212693   7.531   5.847   6.954
 4151WAT      O12694   0.363   2.687   7.274
 4151WAT     H112695   0.348   2.764   7.336
 4151WAT     H212696   0.348   2.601   7.323
 4152WAT      O12697   8.093   8.891   1.226
 4152WAT     H112698   8.101   8.982   1.187
 4152WAT     H212699   8.006   8.850   1.199
 4153WAT      O12700   0.079   9.661   9.749
 4153WAT     H112701   0.042   9.570   9.766
 4153WAT     H212702   0.013   9.716   9.698
 4154WAT      O12703   7.388   9.245   7.144
 4154WAT     H112704   7.468   9.188   7.163
 4154WAT     H212705   7.357   9.288   7.229
 4155WAT      O12706   7.851   3.786   8.069
 4155WAT     H112707   7.797   3.702   8.077
 4155WAT     H212708   7.911   3.795   8.148
 4156WAT      O12709   0.737   7.582   2.004
 4156WAT     H112710   0.808   7.513   2.019
 4156WAT     H212711   0.773   7.672   2.031
 4157WAT      O12712   9.335   2.940   5.852
 4157WAT     H112713   9.403   2.899   5.792
 4157WAT     H212714   9.325   2.884   5.934
 4158WAT      O12715   9.648   7.822   8.190
 4158WAT     H112716   9.692   7.891   8.133
 4158WAT     H212717   9.563   7.792   8.147
 4159WAT      O12718   7.078   6.125   2.972
 4159WAT     H112719   7.154   6.181   3.008
 4159WAT     H212720   7.013   6.106   3.046
 4160WAT      O12721   9.403   5.839   8.323
 4160WAT     H112722   9.364   5.749   8.344
 4160WAT     H212723   9.492   5.827   8.279
 4161WAT      O12724   2.443   3.478   1.475
 4161WAT     H112725   2.416   3.525   1.559
 4161WAT     H212726   2.522   3.419   1.493
 4162WAT      O12727   4.035   8.838   9.530
 4162WAT     H112728   4.020   8.919   9.588
 4162WAT     H212729   4.020   8.864   9.434
 4163WAT      O12730   7.876   4.059   6.173
 4163WAT     H112731   7.865   3.979   6.114
 4163WAT     H212732   7.826   4.046   6.258
 4164WAT      O12733   4.686   2.627   8.721
 4164WAT     H112734   4.594   2.612   8.684
 4164WAT     H212735   4.754   2.595   8.656
 4165WAT      O12736   5.777   4.232   0.600
 4165WAT     H112737   5.699   4.283   0.562
 4165WAT     H212738   5.858   4.250   0.544
 4166WAT      O12739   6.379   3.206   8.414
 4166WAT     H112740   6.296   3.256   8.389
 4166WAT     H212741   6.445   3.268   8.454
 4167WAT      O12742   4.670   0.962   1.068
 4167WAT     H112743   4.634   0.981   0.977
 4167WAT     H212744   4.762   1.000   1.076
 4168WAT      O12745   9.887   4.885   0.018
 4168WAT     H112746   9.971   4.842   0.050
 4168WAT     H212747   9.823   4.895   0.095
 4169WAT      O12748   2.955   5.305   3.603
 4169WAT     H112749   2.881   5.367   3.627
 4169WAT     H212750   3.039   5.334   3.649
 4170WAT      O12751   3.439   6.626   3.503
 4170WAT     H112752   3.351   6.671   3.514
 4170WAT     H212753   3.442   6.579   3.415
 4171WAT      O12754   0.912   1.150   7.987
 4171WAT     H112755   0.818   1.119   8.005
 4171WAT     H212756   0.971   1.122   8.062
 4172WAT      O12757   0.952   6.906   0.099
 4172WAT     H112758   0.939   6.807   0.109
 4172WAT     H212759   1.026   6.936   0.159
 4173WAT      O12760   9.391   6.726   8.886
 4173WAT     H112761   9.444   6.809   8.908
 4173WAT     H212762   9.405   6.702   8.790
 4174WAT      O12763   7.895   6.488   0.988
 4174WAT     H112764   7.955   6.528   1.057
 4174WAT     H212765   7.864   6.398   1.018
 4175WAT      O12766   0.051   9.053   2.225
 4175WAT     H112767   0.134   9.020   2.270
 4175WAT     H212768   0.041   9.009   2.136
 4176WAT      O12769   6.840   7.739   2.641
 4176WAT     H112770   6.789   7.704   2.719
 4176WAT     H212771   6.848   7.668   2.571
 4177WAT      O12772   8.591   6.220   9.043
 4177WAT     H112773   8.562   6.142   8.986
 4177WAT     H212774   8.625   6.293   8.984
 4178WAT      O12775   6.774   0.120   2.207
 4178WAT     H112776   6.847   0.188   2.200
 4178WAT     H212777   6.815   0.029   2.209
 4179WAT      O12778   4.802   7.858   6.993
 4179WAT     H112779   4.775   7.762   6.982
 4179WAT     H212780   4.900   7.867   6.980
 4180WAT      O12781   6.399   3.893   0.070
 4180WAT     H112782   6.489   3.870   0.107
 4180WAT     H212783   6.411   3.945  -0.015
 4181WAT      O12784   1.990   6.273   1.064
 4181WAT     H112785   1.994   6.368   1.032
 4181WAT     H212786   1.904   6.232   1.035
 4182WAT      O12787   5.330   7.775   3.507
 4182WAT     H112788   5.322   7.675   3.511
 4182WAT     H212789   5.240   7.816   3.518
 4183WAT      O12790   2.233   6.246   2.266
 4183WAT     H112791   2.285   6.266   2.349
 4183WAT     H212792   2.189   6.329   2.234
 4184WAT      O12793   4.094   7.693   6.206
 4184WAT     H112794   4.035   7.700   6.286
 4184WAT     H212795   4.153   7.612   6.214
 4185WAT      O12796   1.629   5.513   7.648
 4185WAT     H112797   1.677   5.586   7.697
 4185WAT     H212798   1.537   5.544   7.624
 4186WAT      O12799   1.499   5.441   0.899
 4186WAT     H112800   1.510   5.474   0.806
 4186WAT     H212801   1.589   5.428   0.941
 4187WAT      O12802   1.043   5.730   7.364
 4187WAT     H112803   0.969   5.744   7.431
 4187WAT     H212804   1.038   5.800   7.293
 4188WAT      O12805   2.584   5.699   2.894
 4188WAT     H112806   2.499   5.743   2.865
 4188WAT     H212807   2.644   5.686   2.815
 4189WAT      O12808   3.856   0.735   7.367
 4189WAT     H112809   3.787   0.793   7.410
 4189WAT     H212810   3.908   0.789   7.301
 4190WAT      O12811   2.474   2.726   8.911
 4190WAT     H112812   2.382   2.732   8.949
 4190WAT     H212813   2.511   2.634   8.928
 4191WAT      O12814   9.774   8.769   3.012
 4191WAT     H112815   9.698   8.810   2.963
 4191WAT     H212816   9.743   8.689   3.062
 4192WAT      O12817   7.855   3.534   4.720
 4192WAT     H112818   7.809   3.463   4.773
 4192WAT     H212819   7.794   3.613   4.710
 4193WAT      O12820   2.958   4.130   1.049
 4193WAT     H112821   3.033   4.074   1.014
 4193WAT     H212822   2.947   4.112   1.147
 4194WAT      O12823   0.501   4.195   5.099
 4194WAT     H112824   0.510   4.239   5.188
 4194WAT     H212825   0.572   4.229   5.037
 4195WAT      O12826   9.692   9.438   2.218
 4195WAT     H112827   9.775   9.382   2.211
 4195WAT     H212828   9.630   9.416   2.143
 4196WAT      O12829   0.150   7.650   1.471
 4196WAT     H112830   0.071   7.709   1.489
 4196WAT     H212831   0.126   7.583   1.400
 4197WAT      O12832   6.249   7.454   4.065
 4197WAT     H112833   6.183   7.385   4.094
 4197WAT     H212834   6.202   7.526   4.014
 4198WAT      O12835   9.645   1.776   5.998
 4198WAT     H112836   9.732   1.730   6.014
 4198WAT     H212837   9.621   1.768   5.901
 4199WAT      O12838   1.584   5.729   2.144
 4199WAT     H112839   1.577   5.768   2.236
 4199WAT     H212840   1.680   5.725   2.118
 4200WAT      O12841   1.605   6.432   3.355
 4200WAT     H112842   1.543   6.406   3.429
 4200WAT     H212843   1.557   6.492   3.291
 4201WAT      O12844   5.905   4.578   5.969
 4201WAT     H112845   5.878   4.643   5.897
 4201WAT     H212846   5.927   4.629   6.052
 4202WAT      O12847   1.649   9.035   9.703
 4202WAT     H112848   1.660   9.130   9.731
 4202WAT     H212849   1.711   9.015   9.627
 4203WAT      O12850   3.594   2.117   8.442
 4203WAT     H112851   3.665   2.135   8.510
 4203WAT     H212852   3.535   2.043   8.474
 4204WAT      O12853   1.350   0.402   2.824
 4204WAT     H112854   1.304   0.356   2.748
 4204WAT     H212855   1.388   0.333   2.886
 4205WAT      O12856   2.871   4.483   1.938
 4205WAT     H112857   2.805   4.494   2.012
 4205WAT     H212858   2.856   4.394   1.894
 4206WAT      O12859   8.348   0.382   2.508
 4206WAT     H112860   8.416   0.319   2.544
 4206WAT     H212861   8.300   0.338   2.431
 4207WAT      O12862   5.285   2.634   1.892
 4207WAT     H112863   5.265   2.570   1.966
 4207WAT     H212864   5.202   2.653   1.840
 4208WAT      O12865   3.768   9.139   9.491
 4208WAT     H112866   3.713   9.141   9.408
 4208WAT     H212867   3.741   9.214   9.551
 4209WAT      O12868   0.086   6.494   7.800
 4209WAT     H112869   0.179   6.510   7.767
 4209WAT     H212870   0.028   6.572   7.777
 4210WAT      O12871   1.613   3.465   0.458
 4210WAT     H112872   1.551   3.515   0.519
 4210WAT     H212873   1.585   3.480   0.363
 4211WAT      O12874   3.013   2.817   2.031
 4211WAT     H112875   3.015   2.837   1.933
 4211WAT     H212876   3.074   2.741   2.050
 4212WAT      O12877   1.547   6.169   0.422
 4212WAT     H112878   1.485   6.111   0.476
 4212WAT     H212879   1.640   6.133   0.428
 4213WAT      O12880   5.594   5.195   7.927
 4213WAT     H112881   5.640   5.182   7.839
 4213WAT     H212882   5.511   5.139   7.930
 4214WAT      O12883   7.416   6.060   5.369
 4214WAT     H112884   7.382   5.968   5.385
 4214WAT     H212885   7.483   6.059   5.294
 4215WAT      O12886   9.823   4.249   6.247
 4215WAT     H112887   9.839   4.322   6.180
 4215WAT     H212888   9.907   4.197   6.261
 4216WAT      O12889   7.792   8.098   8.127
 4216WAT     H112890   7.785   8.067   8.032
 4216WAT     H212891   7.872   8.157   8.137
 4217WAT      O12892   8.890   6.488   5.505
 4217WAT     H112893   8.869   6.457   5.597
 4217WAT     H212894   8.900   6.408   5.445
 4218WAT      O12895   1.498   7.337   6.731
 4218WAT     H112896   1.432   7.272   6.693
 4218WAT     H212897   1.455   7.391   6.803
 4219WAT      O12898   4.179   5.205   1.138
 4219WAT     H112899   4.153   5.133   1.074
 4219WAT     H212900   4.279   5.217   1.137
 4220WAT      O12901   5.643   1.429   0.347
 4220WAT     H112902   5.675   1.522   0.326
 4220WAT     H212903   5.556   1.434   0.395
 4221WAT      O12904   7.641   4.752   3.136
 4221WAT     H112905   7.733   4.769   3.102
 4221WAT     H212906   7.623   4.654   3.138
 4222WAT      O12907   2.023   3.317   7.277
 4222WAT     H112908   1.940   3.319   7.221
 4222WAT     H212909   2.099   3.280   7.223
 4223WAT      O12910   4.597   0.354   6.423
 4223WAT     H112911   4.578   0.265   6.382
 4223WAT     H212912   4.657   0.407   6.362
 4224WAT      O12913   1.568   9.533   8.485
 4224WAT     H112914   1.652   9.507   8.532
 4224WAT     H212915   1.553   9.632   8.495
 4225WAT      O12916   8.637   8.024   4.364
 4225WAT     H112917   8.638   8.030   4.464
 4225WAT     H212918   8.549   8.056   4.329
 4226WAT      O12919   4.490   2.200   8.277
 4226WAT     H112920   4.530   2.235   8.362
 4226WAT     H212921   4.397   2.170   8.294
 4227WAT      O12922   2.382   4.338   6.410
 4227WAT     H112923   2.414   4.390   6.489
 4227WAT     H212924   2.408   4.242   6.420
 4228WAT      O12925   0.737   6.707   5.530
 4228WAT     H112926   0.720   6.634   5.464
 4228WAT     H212927   0.715   6.796   5.489
 4229WAT      O12928   8.231   4.878   0.023
 4229WAT     H112929   8.246   4.967  -0.018
 4229WAT     H212930   8.236   4.886   0.123
 4230WAT      O12931   1.140   1.509   8.526
 4230WAT     H112932   1.167   1.599   8.493
 4230WAT     H212933   1.220   1.463   8.566
 4231WAT      O12934   8.747   6.212   5.207
 4231WAT     H112935   8.688   6.189   5.130
 4231WAT     H212936   8.792   6.300   5.190
 4232WAT      O12937   1.721   5.164   0.321
 4232WAT     H112938   1.817   5.181   0.297
 4232WAT     H212939   1.715   5.082   0.376
 4233WAT      O12940   6.753   8.089   1.187
 4233WAT     H112941   6.668   8.090   1.239
 4233WAT     H212942   6.755   8.009   1.127
 4234WAT      O12943   1.834   0.034   5.096
 4234WAT     H112944   1.777  -0.043   5.123
 4234WAT     H212945   1.865   0.021   5.002
 4235WAT      O12946   3.252   9.356   6.285
 4235WAT     H112947   3.266   9.447   6.323
 4235WAT     H212948   3.171   9.314   6.326
 4236WAT      O12949   4.942   3.116   9.213
 4236WAT     H112950   4.882   3.039   9.194
 4236WAT     H212951   4.974   3.155   9.127
 4237WAT      O12952   1.058   9.052   8.910
 4237WAT     H112953   1.155   9.047   8.936
 4237WAT     H212954   1.019   8.960   8.908
 4238WAT      O12955   9.278   1.216   7.716
 4238WAT     H112956   9.225   1.291   7.677
 4238WAT     H212957   9.367   1.251   7.747
 4239WAT      O12958   1.848   0.285   4.932
 4239WAT     H112959   1.836   0.202   4.986
 4239WAT     H212960   1.945   0.309   4.929
 4240WAT      O12961   3.352   3.211   0.361
 4240WAT     H112962   3.415   3.181   0.433
 4240WAT     H212963   3.343   3.311   0.364
 4241WAT      O12964   9.285   9.015   9.599
 4241WAT     H112965   9.245   9.106   9.606
 4241WAT     H212966   9.344   8.998   9.678
 4242WAT      O12967   4.104   7.006   4.906
 4242WAT     H112968   4.203   7.011   4.911
 4242WAT     H212969   4.064   7.061   4.979
 4243WAT      O12970   6.539   4.472   0.403
 4243WAT     H112971   6.601   4.478   0.325
 4243WAT     H212972   6.463   4.411   0.381
 4244WAT      O12973   8.404   3.341   5.291
 4244WAT     H112974   8.327   3.310   5.235
 4244WAT     H212975   8.459   3.262   5.319
 4245WAT      O12976   8.268   8.142   0.414
 4245WAT     H112977   8.295   8.233   0.446
 4245WAT     H212978   8.297   8.073   0.480
 4246WAT      O12979   6.598   4.406   5.229
 4246WAT     H112980   6.649   4.483   5.267
 4246WAT     H212981   6.662   4.333   5.205
 4247WAT      O12982   6.083   2.021   3.860
 4247WAT     H112983   6.061   1.995   3.954
 4247WAT     H212984   6.182   2.021   3.847
 4248WAT      O12985   0.412   2.988   6.078
 4248WAT     H112986   0.333   3.046   6.061
 4248WAT     H212987   0.381   2.899   6.113
 4249WAT      O12988   9.327   7.961   1.246
 4249WAT     H112989   9.372   7.993   1.163
 4249WAT     H212990   9.393   7.958   1.321
 4250WAT      O12991   3.776   0.133   4.588
 4250WAT     H112992   3.861   0.174   4.556
 4250WAT     H212993   3.792   0.084   4.674
 4251WAT      O12994   1.331   8.193   0.449
 4251WAT     H112995   1.389   8.271   0.429
 4251WAT     H212996   1.361   8.149   0.534
 4252WAT      O12997   0.989   2.476   1.515
 4252WAT     H112998   0.949   2.531   1.588
 4252WAT     H212999   0.962   2.514   1.426
 4253WAT      O13000   6.156   1.833   1.160
 4253WAT     H113001   6.206   1.912   1.124
 4253WAT     H213002   6.187   1.750   1.113
 4254WAT      O13003   7.156   5.518   3.722
 4254WAT     H113004   7.194   5.540   3.812
 4254WAT     H213005   7.107   5.598   3.686
 4255WAT      O13006   9.831   8.121   0.942
 4255WAT     H113007   9.799   8.114   1.036
 4255WAT     H213008   9.917   8.071   0.932
 4256WAT      O13009   5.211   7.852   0.816
 4256WAT     H113010   5.202   7.815   0.723
 4256WAT     H213011   5.128   7.902   0.840
 4257WAT      O13012   6.590   2.197   4.820
 4257WAT     H113013   6.532   2.188   4.739
 4257WAT     H213014   6.614   2.106   4.854
 4258WAT      O13015   5.513   4.667   0.618
 4258WAT     H113016   5.539   4.576   0.588
 4258WAT     H213017   5.436   4.700   0.563
 4259WAT      O13018   7.506   6.561   5.901
 4259WAT     H113019   7.500   6.508   5.986
 4259WAT     H213020   7.597   6.551   5.862
 4260WAT      O13021   2.750   4.210   7.089
 4260WAT     H113022   2.804   4.166   7.017
 4260WAT     H213023   2.810   4.234   7.166
 4261WAT      O13024   3.691   0.347   3.346
 4261WAT     H113025   3.693   0.250   3.322
 4261WAT     H213026   3.784   0.384   3.341
 4262WAT      O13027   4.049   1.279   6.353
 4262WAT     H113028   4.009   1.208   6.295
 4262WAT     H213029   4.116   1.237   6.415
 4263WAT      O13030   7.217   5.822   5.869
 4263WAT     H113031   7.313   5.826   5.895
 4263WAT     H213032   7.206   5.849   5.773
 4264WAT      O13033   2.319   9.627   2.254
 4264WAT     H113034   2.344   9.684   2.333
 4264WAT     H213035   2.312   9.532   2.283
 4265WAT      O13036   6.366   7.489   6.520
 4265WAT     H113037   6.335   7.554   6.590
 4265WAT     H213038   6.336   7.397   6.544
 4266WAT      O13039   3.181   5.327   2.754
 4266WAT     H113040   3.231   5.241   2.763
 4266WAT     H213041   3.215   5.377   2.675
 4267WAT      O13042   3.256   2.479   9.243
 4267WAT     H113043   3.169   2.522   9.268
 4267WAT     H213044   3.331   2.541   9.264
 4268WAT      O13045   4.080   8.713   3.880
 4268WAT     H113046   4.100   8.759   3.794
 4268WAT     H213047   4.165   8.676   3.918
 4269WAT      O13048   5.527   6.016   4.004
 4269WAT     H113049   5.585   6.019   4.086
 4269WAT     H213050   5.539   6.100   3.951
 4270WAT      O13051   0.467   3.528   5.330
 4270WAT     H113052   0.532   3.604   5.323
 4270WAT     H213053   0.413   3.521   5.246
 4271WAT      O13054   0.887   0.533   0.746
 4271WAT     H113055   0.909   0.458   0.809
 4271WAT     H213056   0.947   0.529   0.667
 4272WAT      O13057   5.551   9.218   4.394
 4272WAT     H113058   5.536   9.303   4.343
 4272WAT     H213059   5.481   9.208   4.464
 4273WAT      O13060   2.323   4.300   6.859
 4273WAT     H113061   2.272   4.302   6.945
 4273WAT     H213062   2.419   4.323   6.876
 4274WAT      O13063   7.840   1.052   6.447
 4274WAT     H113064   7.881   1.107   6.520
 4274WAT     H213065   7.912   1.016   6.388
 4275WAT      O13066   7.639   5.663   9.316
 4275WAT     H113067   7.692   5.748   9.315
 4275WAT     H213068   7.549   5.680   9.276
 4276WAT      O13069   2.420   6.846   9.333
 4276WAT     H113070   2.378   6.757   9.348
 4276WAT     H213071   2.350   6.917   9.332
 4277WAT      O13072   4.775   0.114   0.834
 4277WAT     H113073   4.754   0.040   0.897
 4277WAT     H213074   4.695   0.173   0.824
 4278WAT      O13075   3.973   5.424   2.838
 4278WAT     H113076   4.009   5.410   2.746
 4278WAT     H213077   3.967   5.336   2.885
 4279WAT      O13078   8.446   6.587   4.512
 4279WAT     H113079   8.424   6.579   4.609
 4279WAT     H213080   8.502   6.509   4.484
 4280WAT      O13081   9.493   1.760   9.075
 4280WAT     H113082   9.575   1.706   9.054
 4280WAT     H213083   9.449   1.723   9.157
 4281WAT      O13084   3.137   8.729   9.492
 4281WAT     H113085   3.198   8.695   9.420
 4281WAT     H213086   3.042   8.722   9.463
 4282WAT      O13087   5.088   6.345   5.000
 4282WAT     H113088   5.178   6.304   4.987
 4282WAT     H213089   5.032   6.328   4.919
 4283WAT      O13090   8.247   1.262   5.517
 4283WAT     H113091   8.170   1.317   5.486
 4283WAT     H213092   8.276   1.199   5.445
 4284WAT      O13093   9.293   7.103   6.371
 4284WAT     H113094   9.313   7.165   6.295
 4284WAT     H213095   9.315   7.009   6.345
 4285WAT      O13096   7.959   0.184   8.955
 4285WAT     H113097   7.874   0.141   8.985
 4285WAT     H213098   8.036   0.144   9.005
 4286WAT      O13099   0.065   8.113   9.374
 4286WAT     H113100   0.004   8.190   9.353
 4286WAT     H213101   0.090   8.116   9.471
 4287WAT      O13102   4.366   3.790   8.986
 4287WAT     H113103   4.449   3.816   9.036
 4287WAT     H213104   4.373   3.695   8.957
 4288WAT      O13105   2.577   5.399   6.866
 4288WAT     H113106   2.516   5.472   6.897
 4288WAT     H213107   2.641   5.436   6.799
 4289WAT      O13108   0.691   0.828   2.559
 4289WAT     H113109   0.690   0.826   2.659
 4289WAT     H213110   0.764   0.768   2.526
 4290WAT      O13111   8.207   2.472   6.676
 4290WAT     H113112   8.146   2.393   6.668
 4290WAT     H213113   8.211   2.520   6.588
 4291WAT      O13114   4.441   3.738   6.859
 4291WAT     H113115   4.390   3.714   6.777
 4291WAT     H213116   4.389   3.804   6.913
 4292WAT      O13117   2.954   4.907   5.952
 4292WAT     H113118   2.999   4.868   5.872
 4292WAT     H213119   3.023   4.947   6.013
 4293WAT      O13120   7.289   5.117   5.124
 4293WAT     H113121   7.252   5.206   5.096
 4293WAT     H213122   7.386   5.113   5.103
 4294WAT      O13123   1.821   2.999   6.672
 4294WAT     H113124   1.742   2.949   6.707
 4294WAT     H213125   1.904   2.964   6.715
 4295WAT      O13126   7.659   3.581   8.055
 4295WAT     H113127   7.630   3.570   7.960
 4295WAT     H213128   7.649   3.493   8.103
 4296WAT      O13129   0.829   2.803   0.616
 4296WAT     H113130   0.927   2.785   0.623
 4296WAT     H213131   0.810   2.854   0.532
 4297WAT      O13132   6.016   7.995   0.478
 4297WAT     H113133   6.111   7.979   0.452
 4297WAT     H213134   6.013   8.042   0.567
 4298WAT      O13135   9.430   1.365   5.244
 4298WAT     H113136   9.505   1.311   5.206
 4298WAT     H213137   9.405   1.329   5.334
 4299WAT      O13138   3.731   1.114   3.994
 4299WAT     H113139   3.718   1.028   3.946
 4299WAT     H213140   3.717   1.190   3.931
 4300WAT      O13141   2.970   8.816   1.465
 4300WAT     H113142   2.979   8.915   1.472
 4300WAT     H213143   2.889   8.794   1.412
 4301WAT      O13144   1.830   4.436   8.732
 4301WAT     H113145   1.798   4.361   8.790
 4301WAT     H213146   1.847   4.517   8.788
 4302WAT      O13147   9.572   9.395   7.866
 4302WAT     H113148   9.481   9.431   7.847
 4302WAT     H213149   9.570   9.295   7.865
 4303WAT      O13150   5.008   6.035   4.431
 4303WAT     H113151   4.986   6.131   4.417
 4303WAT     H213152   4.965   5.979   4.360
 4304WAT      O13153   7.180   9.133   5.285
 4304WAT     H113154   7.192   9.170   5.193
 4304WAT     H213155   7.270   9.113   5.325
 4305WAT      O13156   2.175   3.170   6.844
 4305WAT     H113157   2.120   3.226   6.781
 4305WAT     H213158   2.228   3.230   6.904
 4306WAT      O13159   9.228   0.367   1.510
 4306WAT     H113160   9.324   0.383   1.488
 4306WAT     H213161   9.172   0.386   1.430
 4307WAT      O13162   5.770   8.847   6.230
 4307WAT     H113163   5.670   8.851   6.231
 4307WAT     H213164   5.801   8.791   6.307
 4308WAT      O13165   5.259   7.926   7.277
 4308WAT     H113166   5.199   7.915   7.356
 4308WAT     H213167   5.257   7.843   7.222
 4309WAT      O13168   6.905   4.408   6.750
 4309WAT     H113169   6.923   4.350   6.830
 4309WAT     H213170   6.991   4.444   6.715
 4310WAT      O13171   9.699   2.858   1.474
 4310WAT     H113172   9.767   2.875   1.545
 4310WAT     H213173   9.607   2.865   1.514
 4311WAT      O13174   2.845   2.034   6.446
 4311WAT     H113175   2.803   1.968   6.508
 4311WAT     H213176   2.796   2.032   6.358
 4312WAT      O13177   7.656   6.724   6.733
 4312WAT     H113178   7.663   6.639   6.785
 4312WAT     H213179   7.560   6.754   6.730
 4313WAT      O13180   7.554   9.635   9.778
 4313WAT     H113181   7.646   9.595   9.783
 4313WAT     H213182   7.540   9.674   9.687
 4314WAT      O13183   9.122   5.545   0.291
 4314WAT     H113184   9.131   5.627   0.234
 4314WAT     H213185   9.081   5.472   0.237
 4315WAT      O13186   7.803   2.701   5.513
 4315WAT     H113187   7.858   2.642   5.573
 4315WAT     H213188   7.766   2.647   5.438
 4316WAT      O13189   0.529   1.666   1.999
 4316WAT     H113190   0.521   1.612   2.083
 4316WAT     H213191   0.454   1.643   1.937
 4317WAT      O13192   7.220   0.602   3.814
 4317WAT     H113193   7.216   0.506   3.842
 4317WAT     H213194   7.315   0.633   3.815
 4318WAT      O13195   0.208   9.173   3.562
 4318WAT     H113196   0.238   9.269   3.557
 4318WAT     H213197   0.279   9.114   3.526
 4319WAT      O13198   6.956   0.281   8.199
 4319WAT     H113199   6.909   0.347   8.141
 4319WAT     H213200   6.890   0.239   8.262
 4320WAT      O13201   2.902   4.031   6.573
 4320WAT     H113202   2.822   4.069   6.527
 4320WAT     H213203   2.983   4.083   6.547
 4321WAT      O13204   8.840   6.946   4.479
 4321WAT     H113205   8.895   6.954   4.396
 4321WAT     H213206   8.752   6.905   4.457
 4322WAT      O13207   6.985   7.899   6.970
 4322WAT     H113208   7.046   7.908   7.049
 4322WAT     H213209   6.903   7.849   6.997
 4323WAT      O13210   6.153   4.781   5.191
 4323WAT     H113211   6.133   4.857   5.252
 4323WAT     H213212   6.073   4.720   5.187
 4324WAT      O13213   3.906   5.770   0.873
 4324WAT     H113214   3.954   5.824   0.942
 4324WAT     H213215   3.855   5.832   0.812
 4325WAT      O13216   9.224   2.871   2.043
 4325WAT     H113217   9.257   2.858   2.137
 4325WAT     H213218   9.139   2.819   2.030
 4326WAT      O13219   8.969   0.449   6.642
 4326WAT     H113220   9.038   0.377   6.643
 4326WAT     H213221   8.883   0.412   6.608
 4327WAT      O13222   8.033   3.007   9.233
 4327WAT     H113223   8.026   3.033   9.330
 4327WAT     H213224   7.955   3.043   9.183
 4328WAT      O13225   9.314   0.340   2.167
 4328WAT     H113226   9.336   0.435   2.144
 4328WAT     H213227   9.300   0.332   2.265
 4329WAT      O13228   9.284   2.246   7.019
 4329WAT     H113229   9.352   2.217   6.951
 4329WAT     H213230   9.270   2.344   7.011
 4330WAT      O13231   4.880   1.656   6.141
 4330WAT     H113232   4.908   1.717   6.215
 4330WAT     H213233   4.835   1.575   6.180
 4331WAT      O13234   3.721   2.296   9.509
 4331WAT     H113235   3.806   2.243   9.500
 4331WAT     H213236   3.726   2.355   9.589
 4332WAT      O13237   2.988   5.744   2.810
 4332WAT     H113238   3.066   5.786   2.765
 4332WAT     H213239   2.915   5.730   2.743
 4333WAT      O13240   0.384   8.115   5.300
 4333WAT     H113241   0.404   8.020   5.323
 4333WAT     H213242   0.340   8.160   5.378
 4334WAT      O13243   9.850   3.262   5.046
 4334WAT     H113244   9.792   3.184   5.070
 4334WAT     H213245   9.944   3.245   5.077
 4335WAT      O13246   9.425   4.357   4.152
 4335WAT     H113247   9.469   4.270   4.129
 4335WAT     H213248   9.491   4.432   4.144
 4336WAT      O13249   6.794   9.422   7.690
 4336WAT     H113250   6.892   9.406   7.678
 4336WAT     H213251   6.744   9.387   7.611
 4337WAT      O13252   3.507   7.358   2.772
 4337WAT     H113253   3.541   7.427   2.836
 4337WAT     H213254   3.583   7.318   2.722
 4338WAT      O13255   0.067   4.579   9.353
 4338WAT     H113256   0.088   4.532   9.439
 4338WAT     H213257   0.116   4.665   9.350
 4339WAT      O13258   1.017   0.157   8.616
 4339WAT     H113259   1.097   0.183   8.669
 4339WAT     H213260   0.999   0.059   8.630
 4340WAT      O13261   6.174   9.329   4.083
 4340WAT     H113262   6.202   9.236   4.106
 4340WAT     H213263   6.147   9.333   3.987
 4341WAT      O13264   8.505   9.707   9.629
 4341WAT     H113265   8.447   9.696   9.549
 4341WAT     H213266   8.505   9.803   9.658
 4342WAT      O13267   6.854   1.148   5.451
 4342WAT     H113268   6.891   1.117   5.363
 4342WAT     H213269   6.890   1.090   5.524
 4343WAT      O13270   3.417   8.292   0.079
 4343WAT     H113271   3.445   8.275  -0.016
 4343WAT     H213272   3.376   8.383   0.087
 4344WAT      O13273   8.138   6.731   3.208
 4344WAT     H113274   8.231   6.766   3.226
 4344WAT     H213275   8.111   6.754   3.115
 4345WAT      O13276   1.431   2.040   7.190
 4345WAT     H113277   1.346   2.038   7.243
 4345WAT     H213278   1.410   2.063   7.095
 4346WAT      O13279   6.865   2.956   0.925
 4346WAT     H113280   6.849   2.926   0.831
 4346WAT     H213281   6.868   3.056   0.929
 4347WAT      O13282   0.177   1.731   3.956
 4347WAT     H113283   0.219   1.820   3.938
 4347WAT     H213284   0.077   1.738   3.947
 4348WAT      O13285   6.760   0.497   6.183
 4348WAT     H113286   6.821   0.568   6.219
 4348WAT     H213287   6.772   0.491   6.084
 4349WAT      O13288   3.506   8.327   3.594
 4349WAT     H113289   3.546   8.305   3.683
 4349WAT     H213290   3.411   8.355   3.607
 4350WAT      O13291   1.367   4.386   3.880
 4350WAT     H113292   1.303   4.335   3.823
 4350WAT     H213293   1.460   4.354   3.863
 4351WAT      O13294   3.509   1.638   4.539
 4351WAT     H113295   3.504   1.736   4.524
 4351WAT     H213296   3.445   1.591   4.478
 4352WAT      O13297   8.624   7.156   4.373
 4352WAT     H113298   8.524   7.161   4.375
 4352WAT     H213299   8.654   7.133   4.280
 4353WAT      O13300   3.867   0.190   4.087
 4353WAT     H113301   3.819   0.105   4.110
 4353WAT     H213302   3.803   0.267   4.089
 4354WAT      O13303   5.460   9.359   5.497
 4354WAT     H113304   5.375   9.403   5.526
 4354WAT     H213305   5.439   9.286   5.431
 4355WAT      O13306   8.530   8.014   8.511
 4355WAT     H113307   8.509   8.092   8.452
 4355WAT     H213308   8.510   7.929   8.462
 4356WAT      O13309   6.047   8.646   7.290
 4356WAT     H113310   6.024   8.735   7.331
 4356WAT     H213311   5.968   8.611   7.239
 4357WAT      O13312   7.028   0.376   1.715
 4357WAT     H113313   6.978   0.461   1.732
 4357WAT     H213314   7.077   0.383   1.628
 4358WAT      O13315   1.937   3.139   7.480
 4358WAT     H113316   1.844   3.172   7.492
 4358WAT     H213317   1.987   3.202   7.420
 4359WAT      O13318   0.065   4.996   9.178
 4359WAT     H113319   0.036   4.900   9.189
 4359WAT     H213320   0.146   5.013   9.233
 4360WAT      O13321   7.996   8.055   8.675
 4360WAT     H113322   7.951   8.060   8.586
 4360WAT     H213323   8.050   8.137   8.690
 4361WAT      O13324   1.959   7.969   8.954
 4361WAT     H113325   1.930   8.035   9.024
 4361WAT     H213326   1.994   8.018   8.874
 4362WAT      O13327   3.033   9.779   6.880
 4362WAT     H113328   2.940   9.777   6.916
 4362WAT     H213329   3.075   9.689   6.891
 4363WAT      O13330   4.543   6.830   0.488
 4363WAT     H113331   4.603   6.784   0.554
 4363WAT     H213332   4.597   6.893   0.432
 4364WAT      O13333   8.057   7.807   7.634
 4364WAT     H113334   8.059   7.877   7.705
 4364WAT     H213335   8.022   7.721   7.672
 4365WAT      O13336   4.419   5.744   3.079
 4365WAT     H113337   4.485   5.802   3.031
 4365WAT     H213338   4.339   5.799   3.105
 4366WAT      O13339   6.952   2.470   1.560
 4366WAT     H113340   7.040   2.422   1.553
 4366WAT     H213341   6.954   2.553   1.504
 4367WAT      O13342   3.175   8.520   0.308
 4367WAT     H113343   3.119   8.599   0.285
 4367WAT     H213344   3.255   8.518   0.248
 4368WAT      O13345   5.070   2.458   3.500
 4368WAT     H113346   5.069   2.416   3.409
 4368WAT     H213347   4.976   2.468   3.533
 4369WAT      O13348   9.752   4.511   6.060
 4369WAT     H113349   9.846   4.527   6.091
 4369WAT     H213350   9.688   4.554   6.123
 4370WAT      O13351   5.741   5.272   2.379
 4370WAT     H113352   5.752   5.272   2.478
 4370WAT     H213353   5.687   5.351   2.351
 4371WAT      O13354   7.997   4.722   6.169
 4371WAT     H113355   8.062   4.660   6.124
 4371WAT     H213356   7.952   4.673   6.243
 4372WAT      O13357   4.115   8.319   6.202
 4372WAT     H113358   4.085   8.363   6.286
 4372WAT     H213359   4.183   8.249   6.223
 4373WAT      O13360   1.493   1.330   4.071
 4373WAT     H113361   1.470   1.355   3.976
 4373WAT     H213362   1.408   1.312   4.121
 4374WAT      O13363   8.195   9.732   8.219
 4374WAT     H113364   8.214   9.818   8.171
 4374WAT     H213365   8.261   9.720   8.293
 4375WAT      O13366   9.687   3.649   6.677
 4375WAT     H113367   9.712   3.578   6.612
 4375WAT     H213368   9.649   3.728   6.628
 4376WAT      O13369   2.116   1.483   8.996
 4376WAT     H113370   2.038   1.427   8.970
 4376WAT     H213371   2.109   1.508   9.093
 4377WAT      O13372   2.662   8.759   8.518
 4377WAT     H113373   2.572   8.748   8.559
 4377WAT     H213374   2.664   8.843   8.463
 4378WAT      O13375   1.680   6.450   6.243
 4378WAT     H113376   1.589   6.488   6.224
 4378WAT     H213377   1.735   6.519   6.291
 4379WAT      O13378   6.160   7.702   3.099
 4379WAT     H113379   6.235   7.766   3.119
 4379WAT     H213380   6.163   7.626   3.163
 4380WAT      O13381   5.081   9.280   1.952
 4380WAT     H113382   5.158   9.216   1.958
 4380WAT     H213383   5.086   9.345   2.028
 4381WAT      O13384   2.990   4.615   6.014
 4381WAT     H113385   2.902   4.623   5.968
 4381WAT     H213386   3.046   4.696   5.993
 4382WAT      O13387   5.107   0.763   2.500
 4382WAT     H113388   5.204   0.775   2.479
 4382WAT     H213389   5.053   0.832   2.452
 4383WAT      O13390   1.770   3.902   8.393
 4383WAT     H113391   1.732   3.966   8.326
 4383WAT     H213392   1.835   3.949   8.452
 4384WAT      O13393   4.616   7.208   6.169
 4384WAT     H113394   4.554   7.270   6.121
 4384WAT     H213395   4.698   7.193   6.114
 4385WAT      O13396   6.523   1.141   4.905
 4385WAT     H113397   6.608   1.154   4.853
 4385WAT     H213398   6.522   1.048   4.943
 4386WAT      O13399   0.506   3.115   7.507
 4386WAT     H113400   0.441   3.190   7.519
 4386WAT     H213401   0.565   3.109   7.588
 4387WAT      O13402   3.829   8.391   3.968
 4387WAT     H113403   3.804   8.431   4.056
 4387WAT     H213404   3.832   8.463   3.898
 4388WAT      O13405   7.763   8.119   5.258
 4388WAT     H113406   7.736   8.185   5.188
 4388WAT     H213407   7.701   8.040   5.256
 4389WAT      O13408   5.253   2.142   2.799
 4389WAT     H113409   5.308   2.195   2.864
 4389WAT     H213410   5.163   2.185   2.789
 4390WAT      O13411   7.005   3.926   9.023
 4390WAT     H113412   7.060   3.980   8.960
 4390WAT     H213413   6.942   3.868   8.972
 4391WAT      O13414   3.347   7.922   5.176
 4391WAT     H113415   3.410   7.941   5.251
 4391WAT     H213416   3.397   7.916   5.090
 4392WAT      O13417   3.426   7.294   4.953
 4392WAT     H113418   3.518   7.256   4.951
 4392WAT     H213419   3.412   7.346   5.038
 4393WAT      O13420   0.820   5.132   8.855
 4393WAT     H113421   0.740   5.136   8.916
 4393WAT     H213422   0.837   5.222   8.817
 4394WAT      O13423   5.281   0.334   8.182
 4394WAT     H113424   5.310   0.430   8.185
 4394WAT     H213425   5.200   0.325   8.125
 4395WAT      O13426   6.004   8.262   8.319
 4395WAT     H113427   6.047   8.328   8.257
 4395WAT     H213428   5.934   8.308   8.374
 4396WAT      O13429   2.087   9.399   6.965
 4396WAT     H113430   2.127   9.308   6.962
 4396WAT     H213431   2.088   9.438   6.873
 4397WAT      O13432   2.104   0.958   3.178
 4397WAT     H113433   2.165   0.925   3.250
 4397WAT     H213434   2.086   1.055   3.190
 4398WAT      O13435   9.163   3.388   8.353
 4398WAT     H113436   9.240   3.443   8.384
 4398WAT     H213437   9.155   3.306   8.410
 4399WAT      O13438   5.478   4.423   8.999
 4399WAT     H113439   5.538   4.376   8.935
 4399WAT     H213440   5.532   4.483   9.059
 4400WAT      O13441   0.223   8.994   6.032
 4400WAT     H113442   0.144   9.026   5.979
 4400WAT     H213443   0.306   9.033   5.993
 4401WAT      O13444   4.895   7.327   2.625
 4401WAT     H113445   4.900   7.333   2.525
 4401WAT     H213446   4.799   7.329   2.653
 4402WAT      O13447   5.214   4.546   0.209
 4402WAT     H113448   5.236   4.567   0.114
 4402WAT     H213449   5.247   4.619   0.268
 4403WAT      O13450   5.850   1.512   6.657
 4403WAT     H113451   5.825   1.435   6.716
 4403WAT     H213452   5.928   1.487   6.600
 4404WAT      O13453   1.939   4.242   5.594
 4404WAT     H113454   1.911   4.268   5.686
 4404WAT     H213455   1.879   4.285   5.527
 4405WAT      O13456   6.732   5.514   6.709
 4405WAT     H113457   6.827   5.516   6.742
 4405WAT     H213458   6.672   5.479   6.780
 4406WAT      O13459   8.383   7.164   5.548
 4406WAT     H113460   8.374   7.259   5.516
 4406WAT     H213461   8.437   7.112   5.482
 4407WAT      O13462   7.740   3.564   5.933
 4407WAT     H113463   7.675   3.571   6.008
 4407WAT     H213464   7.773   3.469   5.927
 4408WAT      O13465   2.608   3.027   9.737
 4408WAT     H113466   2.678   2.994   9.674
 4408WAT     H213467   2.585   2.955   9.803
 4409WAT      O13468   3.913   0.446   6.382
 4409WAT     H113469   3.972   0.375   6.343
 4409WAT     H213470   3.928   0.450   6.481
 4410WAT      O13471   1.612   9.653   0.886
 4410WAT     H113472   1.628   9.730   0.824
 4410WAT     H213473   1.621   9.684   0.980
 4411WAT      O13474   0.700   9.747   1.056
 4411WAT     H113475   0.715   9.699   0.969
 4411WAT     H213476   0.771   9.719   1.121
 4412WAT      O13477   8.745   6.411   1.724
 4412WAT     H113478   8.769   6.413   1.627
 4412WAT     H213479   8.709   6.321   1.748
 4413WAT      O13480   1.231   1.604   2.682
 4413WAT     H113481   1.159   1.552   2.728
 4413WAT     H213482   1.199   1.633   2.592
 4414WAT      O13483   7.585   4.935   4.959
 4414WAT     H113484   7.486   4.939   4.952
 4414WAT     H213485   7.612   4.913   5.052
 4415WAT      O13486   8.472   0.694   9.291
 4415WAT     H113487   8.459   0.678   9.193
 4415WAT     H213488   8.388   0.672   9.339
 4416WAT      O13489   0.507   9.123   4.599
 4416WAT     H113490   0.501   9.069   4.684
 4416WAT     H213491   0.602   9.123   4.566
 4417WAT      O13492   8.930   9.060   3.058
 4417WAT     H113493   8.848   9.099   3.015
 4417WAT     H213494   8.940   8.965   3.028
 4418WAT      O13495   1.213   0.967   5.935
 4418WAT     H113496   1.207   0.873   5.900
 4418WAT     H213497   1.158   0.975   6.018
 4419WAT      O13498   2.695   4.848   3.100
 4419WAT     H113499   2.767   4.779   3.103
 4419WAT     H213500   2.643   4.839   3.016
 4420WAT      O13501   2.002   2.137   8.372
 4420WAT     H113502   2.090   2.168   8.335
 4420WAT     H213503   1.955   2.084   8.302
 4421WAT      O13504   1.918   5.380   6.073
 4421WAT     H113505   1.920   5.459   6.134
 4421WAT     H213506   1.873   5.304   6.118
 4422WAT      O13507   7.285   7.759   3.478
 4422WAT     H113508   7.226   7.802   3.546
 4422WAT     H213509   7.333   7.681   3.519
 4423WAT      O13510   1.751   7.774   6.809
 4423WAT     H113511   1.706   7.837   6.745
 4423WAT     H213512   1.812   7.714   6.758
 4424WAT      O13513   9.728   7.177   6.339
 4424WAT     H113514   9.711   7.195   6.436
 4424WAT     H213515   9.816   7.217   6.313
 4425WAT      O13516   4.161   3.797   3.606
 4425WAT     H113517   4.253   3.834   3.614
 4425WAT     H213518   4.094   3.871   3.609
 4426WAT      O13519   8.698   1.842   4.649
 4426WAT     H113520   8.716   1.927   4.699
 4426WAT     H213521   8.599   1.824   4.648
 4427WAT      O13522   4.083   2.819   0.034
 4427WAT     H113523   4.180   2.809   0.012
 4427WAT     H213524   4.027   2.794  -0.045
 4428WAT      O13525   5.127   9.464   7.704
 4428WAT     H113526   5.043   9.479   7.757
 4428WAT     H213527   5.189   9.404   7.756
 4429WAT      O13528   5.322   2.786   3.997
 4429WAT     H113529   5.293   2.863   3.940
 4429WAT     H213530   5.243   2.727   4.016
 4430WAT      O13531   8.574   6.065   7.154
 4430WAT     H113532   8.607   5.984   7.202
 4430WAT     H213533   8.477   6.079   7.176
 4431WAT      O13534   3.798   0.106   9.788
 4431WAT     H113535   3.747   0.190   9.807
 4431WAT     H213536   3.734   0.031   9.775
 4432WAT      O13537   5.774   6.757   9.680
 4432WAT     H113538   5.773   6.849   9.720
 4432WAT     H213539   5.865   6.716   9.693
 4433WAT      O13540   5.052   7.012   5.783
 4433WAT     H113541   5.083   6.981   5.693
 4433WAT     H213542   4.968   6.964   5.808
 4434WAT      O13543   6.432   0.594   5.386
 4434WAT     H113544   6.436   0.646   5.471
 4434WAT     H213545   6.339   0.597   5.350
 4435WAT      O13546   1.488   5.889   5.439
 4435WAT     H113547   1.453   5.904   5.532
 4435WAT     H213548   1.566   5.825   5.443
 4436WAT      O13549   1.884   2.438   0.962
 4436WAT     H113550   1.826   2.517   0.944
 4436WAT     H213551   1.977   2.468   0.984
 4437WAT      O13552   6.961   7.375   5.976
 4437WAT     H113553   7.021   7.314   6.026
 4437WAT     H213554   6.868   7.369   6.012
 4438WAT      O13555   9.250   0.631   2.068
 4438WAT     H113556   9.200   0.616   1.983
 4438WAT     H213557   9.348   0.633   2.049
 4439WAT      O13558   2.961   7.390   1.585
 4439WAT     H113559   2.882   7.452   1.583
 4439WAT     H213560   3.023   7.413   1.510
 4440WAT      O13561   5.962   8.129   6.969
 4440WAT     H113562   5.894   8.201   6.980
 4440WAT     H213563   5.976   8.110   6.872
 4441WAT      O13564   9.649   2.433   4.008
 4441WAT     H113565   9.566   2.436   4.064
 4441WAT     H213566   9.724   2.396   4.062
 4442WAT      O13567   8.593   7.769   6.667
 4442WAT     H113568   8.560   7.740   6.757
 4442WAT     H213569   8.541   7.849   6.637
 4443WAT      O13570   4.806   1.730   1.947
 4443WAT     H113571   4.769   1.637   1.942
 4443WAT     H213572   4.898   1.732   1.908
 4444WAT      O13573   2.704   6.712   8.555
 4444WAT     H113574   2.704   6.616   8.584
 4444WAT     H213575   2.662   6.768   8.626
 4445WAT      O13576   6.135   1.519   1.486
 4445WAT     H113577   6.084   1.568   1.556
 4445WAT     H213578   6.124   1.420   1.498
 4446WAT      O13579   7.807   3.277   1.107
 4446WAT     H113580   7.906   3.286   1.097
 4446WAT     H213581   7.784   3.268   1.204
 4447WAT      O13582   4.231   1.151   1.163
 4447WAT     H113583   4.276   1.186   1.246
 4447WAT     H213584   4.190   1.062   1.183
 4448WAT      O13585   0.766   7.414   5.264
 4448WAT     H113586   0.797   7.397   5.358
 4448WAT     H213587   0.806   7.500   5.232
 4449WAT      O13588   6.005   1.908   8.093
 4449WAT     H113589   6.026   1.987   8.036
 4449WAT     H213590   5.906   1.902   8.108
 4450WAT      O13591   0.138   6.004   3.311
 4450WAT     H113592   0.134   6.096   3.350
 4450WAT     H213593   0.230   5.984   3.280
 4451WAT      O13594   7.376   9.485   3.494
 4451WAT     H113595   7.350   9.507   3.400
 4451WAT     H213596   7.423   9.563   3.535
 4452WAT      O13597   2.988   6.730   1.202
 4452WAT     H113598   3.076   6.754   1.244
 4452WAT     H213599   2.921   6.801   1.223
 4453WAT      O13600   9.466   9.404   9.009
 4453WAT     H113601   9.437   9.321   8.961
 4453WAT     H213602   9.530   9.454   8.952
 4454WAT      O13603   3.724   3.735   0.436
 4454WAT     H113604   3.797   3.677   0.473
 4454WAT     H213605   3.757   3.779   0.352
 4455WAT      O13606   3.117   9.376   9.638
 4455WAT     H113607   3.065   9.327   9.708
 4455WAT     H213608   3.197   9.322   9.613
 4456WAT      O13609   9.133   1.607   0.006
 4456WAT     H113610   9.039   1.586  -0.020
 4456WAT     H213611   9.139   1.701   0.039
 4457WAT      O13612   9.853   8.093   8.343
 4457WAT     H113613   9.913   8.165   8.377
 4457WAT     H213614   9.877   8.072   8.248
 4458WAT      O13615   5.306   3.860   6.092
 4458WAT     H113616   5.289   3.763   6.074
 4458WAT     H213617   5.279   3.914   6.013
 4459WAT      O13618   0.583   4.648   1.306
 4459WAT     H113619   0.667   4.700   1.321
 4459WAT     H213620   0.533   4.638   1.392
 4460WAT      O13621   0.860   5.786   1.081
 4460WAT     H113622   0.884   5.848   1.006
 4460WAT     H213623   0.827   5.700   1.044
 4461WAT      O13624   0.731   5.951   5.944
 4461WAT     H113625   0.653   5.941   5.883
 4461WAT     H213626   0.702   5.996   6.028
 4462WAT      O13627   6.328   2.607   5.553
 4462WAT     H113628   6.391   2.613   5.475
 4462WAT     H213629   6.337   2.517   5.596
 4463WAT      O13630   5.665   2.505   0.288
 4463WAT     H113631   5.681   2.601   0.262
 4463WAT     H213632   5.569   2.492   0.309
 4464WAT      O13633   4.595   7.580   2.758
 4464WAT     H113634   4.510   7.582   2.811
 4464WAT     H213635   4.604   7.491   2.713
 4465WAT      O13636   7.192   8.133   7.320
 4465WAT     H113637   7.153   8.107   7.409
 4465WAT     H213638   7.188   8.054   7.258
 4466WAT      O13639   4.438   2.206   6.970
 4466WAT     H113640   4.528   2.234   6.937
 4466WAT     H213641   4.374   2.283   6.962
 4467WAT      O13642   5.006   7.915   1.902
 4467WAT     H113643   4.914   7.945   1.927
 4467WAT     H213644   5.073   7.966   1.955
 4468WAT      O13645   6.975   7.023   9.806
 4468WAT     H113646   6.930   7.035   9.718
 4468WAT     H213647   6.913   6.978   9.870
 4469WAT      O13648   0.856   2.368   8.687
 4469WAT     H113649   0.803   2.394   8.607
 4469WAT     H213650   0.821   2.282   8.724
 4470WAT      O13651   4.314   3.175   1.491
 4470WAT     H113652   4.406   3.208   1.511
 4470WAT     H213653   4.305   3.157   1.393
 4471WAT      O13654   7.993   5.791   2.134
 4471WAT     H113655   7.936   5.820   2.211
 4471WAT     H213656   8.009   5.692   2.140
 4472WAT      O13657   9.657   5.716   2.869
 4472WAT     H113658   9.723   5.661   2.921
 4472WAT     H213659   9.689   5.726   2.775
 4473WAT      O13660   9.146   4.829   4.183
 4473WAT     H113661   9.147   4.757   4.114
 4473WAT     H213662   9.088   4.905   4.151
 4474WAT      O13663   8.237   7.131   8.606
 4474WAT     H113664   8.229   7.032   8.616
 4474WAT     H213665   8.323   7.162   8.647
 4475WAT      O13666   1.421   9.331   9.670
 4475WAT     H113667   1.397   9.410   9.614
 4475WAT     H213668   1.520   9.326   9.680
 4476WAT      O13669   1.476   8.622   8.460
 4476WAT     H113670   1.535   8.551   8.420
 4476WAT     H213671   1.407   8.579   8.519
 4477WAT      O13672   8.886   0.802   3.981
 4477WAT     H113673   8.828   0.881   3.997
 4477WAT     H213674   8.945   0.819   3.901
 4478WAT      O13675   7.052   6.381   7.761
 4478WAT     H113676   7.081   6.475   7.742
 4478WAT     H213677   7.049   6.366   7.860
 4479WAT      O13678   4.610   7.908   4.985
 4479WAT     H113679   4.592   8.007   4.982
 4479WAT     H213680   4.569   7.869   5.068
 4480WAT      O13681   4.965   9.716   1.817
 4480WAT     H113682   4.948   9.769   1.900
 4480WAT     H213683   4.896   9.738   1.748
 4481WAT      O13684   6.667   7.228   2.129
 4481WAT     H113685   6.691   7.190   2.039
 4481WAT     H213686   6.656   7.327   2.120
 4482WAT      O13687   2.305   0.774   3.987
 4482WAT     H113688   2.312   0.866   4.026
 4482WAT     H213689   2.280   0.710   4.060
 4483WAT      O13690   3.959   8.689   4.395
 4483WAT     H113691   3.970   8.789   4.393
 4483WAT     H213692   3.992   8.651   4.308
 4484WAT      O13693   4.222   8.489   9.798
 4484WAT     H113694   4.175   8.538   9.724
 4484WAT     H213695   4.208   8.391   9.786
 4485WAT      O13696   8.357   4.107   1.743
 4485WAT     H113697   8.325   4.196   1.773
 4485WAT     H213698   8.441   4.117   1.690
 4486WAT      O13699   9.118   7.172   0.280
 4486WAT     H113700   9.095   7.130   0.192
 4486WAT     H213701   9.037   7.175   0.338
 4487WAT      O13702   6.214   8.961   1.827
 4487WAT     H113703   6.244   8.878   1.874
 4487WAT     H213704   6.274   9.037   1.851
 4488WAT      O13705   3.242   7.460   3.226
 4488WAT     H113706   3.200   7.545   3.193
 4488WAT     H213707   3.229   7.388   3.157
 4489WAT      O13708   1.295   8.934   4.098
 4489WAT     H113709   1.354   9.008   4.068
 4489WAT     H213710   1.320   8.849   4.051
 4490WAT      O13711   5.473   8.311   9.850
 4490WAT     H113712   5.501   8.388   9.907
 4490WAT     H213713   5.379   8.285   9.872
 4491WAT      O13714   4.284   8.228   0.844
 4491WAT     H113715   4.217   8.217   0.770
 4491WAT     H213716   4.376   8.231   0.805
 4492WAT      O13717   2.738   4.495   1.152
 4492WAT     H113718   2.687   4.580   1.154
 4492WAT     H213719   2.749   4.460   1.245
 4493WAT      O13720   6.003   3.030   5.194
 4493WAT     H113721   5.972   3.050   5.101
 4493WAT     H213722   6.098   2.999   5.191
 4494WAT      O13723   2.826   8.817   8.730
 4494WAT     H113724   2.875   8.904   8.721
 4494WAT     H213725   2.755   8.811   8.660
 4495WAT      O13726   5.057   6.183   2.348
 4495WAT     H113727   5.049   6.209   2.252
 4495WAT     H213728   5.149   6.202   2.380
 4496WAT      O13729   4.439   6.513   7.424
 4496WAT     H113730   4.435   6.575   7.345
 4496WAT     H213731   4.498   6.553   7.494
 4497WAT      O13732   2.809   8.101   1.733
 4497WAT     H113733   2.787   8.099   1.636
 4497WAT     H213734   2.783   8.014   1.775
 4498WAT      O13735   5.593   9.265   7.547
 4498WAT     H113736   5.545   9.282   7.461
 4498WAT     H213737   5.617   9.168   7.554
 4499WAT      O13738   9.457   8.122   9.763
 4499WAT     H113739   9.380   8.086   9.710
 4499WAT     H213740   9.494   8.050   9.821
 4500WAT      O13741   5.268   8.318   6.536
 4500WAT     H113742   5.289   8.355   6.445
 4500WAT     H213743   5.353   8.309   6.588
 4501WAT      O13744   0.195   3.656   7.520
 4501WAT     H113745   0.274   3.663   7.581
 4501WAT     H213746   0.222   3.684   7.427
 4502WAT      O13747   8.756   4.642   2.699
 4502WAT     H113748   8.697   4.615   2.623
 4502WAT     H213749   8.705   4.636   2.784
 4503WAT      O13750   3.260   0.131   4.084
 4503WAT     H113751   3.195   0.072   4.037
 4503WAT     H213752   3.224   0.224   4.088
 4504WAT      O13753   4.018   9.155   3.713
 4504WAT     H113754   4.063   9.244   3.697
 4504WAT     H213755   4.002   9.143   3.811
 4505WAT      O13756   5.896   9.369   8.315
 4505WAT     H113757   5.806   9.354   8.275
 4505WAT     H213758   5.887   9.401   8.409
 4506WAT      O13759   7.620   1.191   6.357
 4506WAT     H113760   7.617   1.188   6.257
 4506WAT     H213761   7.700   1.139   6.389
 4507WAT      O13762   4.736   2.012   3.980
 4507WAT     H113763   4.767   2.068   3.903
 4507WAT     H213764   4.815   1.969   4.023
 4508WAT      O13765   2.502   3.358   6.721
 4508WAT     H113766   2.564   3.403   6.656
 4508WAT     H213767   2.407   3.371   6.692
 4509WAT      O13768   2.721   8.375   0.205
 4509WAT     H113769   2.707   8.455   0.264
 4509WAT     H213770   2.633   8.341   0.173
 4510WAT      O13771   8.120   7.589   8.766
 4510WAT     H113772   8.106   7.686   8.785
 4510WAT     H213773   8.199   7.556   8.817
 4511WAT      O13774   4.378   2.925   5.009
 4511WAT     H113775   4.328   2.903   5.093
 4511WAT     H213776   4.313   2.943   4.935
 4512WAT      O13777   3.202   0.751   9.234
 4512WAT     H113778   3.274   0.730   9.300
 4512WAT     H213779   3.152   0.833   9.264
 4513WAT      O13780   9.152   7.651   4.355
 4513WAT     H113781   9.235   7.700   4.383
 4513WAT     H213782   9.178   7.567   4.307
 4514WAT      O13783   1.518   5.503   4.762
 4514WAT     H113784   1.435   5.472   4.808
 4514WAT     H213785   1.574   5.424   4.737
 4515WAT      O13786   5.945   7.991   2.288
 4515WAT     H113787   5.930   7.892   2.278
 4515WAT     H213788   6.037   8.014   2.257
 4516WAT      O13789   0.484   0.537   6.051
 4516WAT     H113790   0.480   0.637   6.039
 4516WAT     H213791   0.474   0.515   6.148
 4517WAT      O13792   7.605   5.419   3.978
 4517WAT     H113793   7.665   5.497   4.001
 4517WAT     H213794   7.573   5.428   3.884
 4518WAT      O13795   7.395   8.533   8.863
 4518WAT     H113796   7.357   8.575   8.946
 4518WAT     H213797   7.433   8.443   8.886
 4519WAT      O13798   3.927   9.377   7.270
 4519WAT     H113799   3.859   9.409   7.336
 4519WAT     H213800   3.880   9.330   7.195
 4520WAT      O13801   0.188   2.189   8.940
 4520WAT     H113802   0.150   2.253   9.006
 4520WAT     H213803   0.207   2.102   8.984
 4521WAT      O13804   5.465   5.548   5.180
 4521WAT     H113805   5.466   5.623   5.246
 4521WAT     H213806   5.453   5.585   5.087
 4522WAT      O13807   4.816   0.123   1.201
 4522WAT     H113808   4.840   0.107   1.297
 4522WAT     H213809   4.753   0.052   1.170
 4523WAT      O13810   2.423   7.646   7.148
 4523WAT     H113811   2.414   7.717   7.218
 4523WAT     H213812   2.359   7.664   7.074
 4524WAT      O13813   4.861   6.824   8.137
 4524WAT     H113814   4.912   6.908   8.119
 4524WAT     H213815   4.859   6.768   8.054
 4525WAT      O13816   5.265   1.815   2.588
 4525WAT     H113817   5.305   1.907   2.587
 4525WAT     H213818   5.166   1.822   2.602
 4526WAT      O13819   6.839   0.411   1.468
 4526WAT     H113820   6.858   0.474   1.543
 4526WAT     H213821   6.781   0.456   1.400
 4527WAT      O13822   9.364   2.265   2.160
 4527WAT     H113823   9.462   2.283   2.172
 4527WAT     H213824   9.316   2.283   2.246
 4528WAT      O13825   7.649   0.284   9.207
 4528WAT     H113826   7.656   0.312   9.303
 4528WAT     H213827   7.653   0.365   9.148
 4529WAT      O13828   0.001   7.991   9.695
 4529WAT     H113829   0.097   7.975   9.716
 4529WAT     H213830  -0.037   7.912   9.646
 4530WAT      O13831   5.106   0.354   3.560
 4530WAT     H113832   5.079   0.402   3.644
 4530WAT     H213833   5.024   0.335   3.506
 4531WAT      O13834   0.379   7.343   8.226
 4531WAT     H113835   0.469   7.366   8.262
 4531WAT     H213836   0.314   7.332   8.302
 4532WAT      O13837   6.581   5.777   6.832
 4532WAT     H113838   6.639   5.858   6.819
 4532WAT     H213839   6.581   5.752   6.928
 4533WAT      O13840   7.258   3.589   5.672
 4533WAT     H113841   7.314   3.595   5.755
 4533WAT     H213842   7.289   3.510   5.618
 4534WAT      O13843   6.607   5.937   5.438
 4534WAT     H113844   6.526   5.895   5.397
 4534WAT     H213845   6.587   5.960   5.534
 4535WAT      O13846   3.381   2.237   5.639
 4535WAT     H113847   3.351   2.177   5.564
 4535WAT     H213848   3.474   2.268   5.621
 4536WAT      O13849   9.134   8.509   7.334
 4536WAT     H113850   9.141   8.468   7.243
 4536WAT     H213851   9.111   8.606   7.325
 4537WAT      O13852   7.605   4.697   8.130
 4537WAT     H113853   7.663   4.743   8.062
 4537WAT     H213854   7.622   4.736   8.220
 4538WAT      O13855   7.717   9.106   8.121
 4538WAT     H113856   7.638   9.044   8.117
 4538WAT     H213857   7.779   9.076   8.193
 4539WAT      O13858   2.072   4.591   2.033
 4539WAT     H113859   2.056   4.506   1.982
 4539WAT     H213860   2.158   4.584   2.083
 4540WAT      O13861   3.920   5.158   6.068
 4540WAT     H113862   3.985   5.230   6.090
 4540WAT     H213863   3.897   5.107   6.151
 4541WAT      O13864   4.380   6.173   1.029
 4541WAT     H113865   4.385   6.186   1.128
 4541WAT     H213866   4.308   6.232   0.992
 4542WAT      O13867   2.494   6.054   8.098
 4542WAT     H113868   2.466   6.011   8.184
 4542WAT     H213869   2.415   6.099   8.057
 4543WAT      O13870   0.434   2.228   9.764
 4543WAT     H113871   0.401   2.154   9.822
 4543WAT     H213872   0.528   2.210   9.735
 4544WAT      O13873   8.687   4.138   8.898
 4544WAT     H113874   8.668   4.218   8.842
 4544WAT     H213875   8.624   4.064   8.873
 4545WAT      O13876   0.357   6.233   5.836
 4545WAT     H113877   0.277   6.214   5.780
 4545WAT     H213878   0.366   6.164   5.907
 4546WAT      O13879   7.105   7.108   2.713
 4546WAT     H113880   7.141   7.015   2.724
 4546WAT     H213881   7.016   7.115   2.759
 4547WAT      O13882   3.206   6.163   5.716
 4547WAT     H113883   3.255   6.249   5.732
 4547WAT     H213884   3.163   6.133   5.801
 4548WAT      O13885   1.539   4.491   8.838
 4548WAT     H113886   1.506   4.413   8.787
 4548WAT     H213887   1.625   4.467   8.884
 4549WAT      O13888   2.341   5.634   6.540
 4549WAT     H113889   2.396   5.561   6.500
 4549WAT     H213890   2.399   5.695   6.593
 4550WAT      O13891   6.380   0.851   9.552
 4550WAT     H113892   6.395   0.766   9.501
 4550WAT     H213893   6.425   0.926   9.504
 4551WAT      O13894   1.089   6.381   2.224
 4551WAT     H113895   1.032   6.332   2.290
 4551WAT     H213896   1.176   6.332   2.213
 4552WAT      O13897   8.997   4.901   1.867
 4552WAT     H113898   9.015   4.941   1.777
 4552WAT     H213899   9.012   4.970   1.938
 4553WAT      O13900   7.848   1.402   8.815
 4553WAT     H113901   7.882   1.434   8.727
 4553WAT     H213902   7.753   1.373   8.806
 4554WAT      O13903   0.558   1.866   7.895
 4554WAT     H113904   0.538   1.777   7.855
 4554WAT     H213905   0.474   1.918   7.905
 4555WAT      O13906   8.679   5.047   1.064
 4555WAT     H113907   8.680   5.135   1.111
 4555WAT     H213908   8.757   5.042   1.001
 4556WAT      O13909   2.861   2.595   4.434
 4556WAT     H113910   2.802   2.515   4.423
 4556WAT     H213911   2.817   2.660   4.496
 4557WAT      O13912   5.226   6.169   9.039
 4557WAT     H113913   5.144   6.128   8.998
 4557WAT     H213914   5.241   6.260   9.000
 4558WAT      O13915   5.614   3.578   9.658
 4558WAT     H113916   5.535   3.520   9.639
 4558WAT     H213917   5.629   3.583   9.757
 4559WAT      O13918   2.450   6.754   3.219
 4559WAT     H113919   2.458   6.751   3.119
 4559WAT     H213920   2.462   6.848   3.251
 4560WAT      O13921   2.371   2.658   4.619
 4560WAT     H113922   2.304   2.588   4.642
 4560WAT     H213923   2.437   2.621   4.554
 4561WAT      O13924   7.183   7.180   1.226
 4561WAT     H113925   7.277   7.148   1.212
 4561WAT     H213926   7.133   7.113   1.282
 4562WAT      O13927   9.230   6.625   0.318
 4562WAT     H113928   9.239   6.580   0.229
 4562WAT     H213929   9.171   6.571   0.378
 4563WAT      O13930   7.152   6.223   5.366
 4563WAT     H113931   7.244   6.241   5.330
 4563WAT     H213932   7.119   6.135   5.332
 4564WAT      O13933   1.860   4.561   1.646
 4564WAT     H113934   1.933   4.493   1.657
 4564WAT     H213935   1.898   4.643   1.603
 4565WAT      O13936   0.331   9.642   2.479
 4565WAT     H113937   0.415   9.692   2.497
 4565WAT     H213938   0.353   9.551   2.442
 4566WAT      O13939   0.024   2.348   8.610
 4566WAT     H113940  -0.042   2.353   8.685
 4566WAT     H213941   0.014   2.261   8.562
 4567WAT      O13942   5.726   6.662   4.529
 4567WAT     H113943   5.718   6.674   4.628
 4567WAT     H213944   5.725   6.564   4.507
 4568WAT      O13945   8.480   6.156   5.759
 4568WAT     H113946   8.457   6.106   5.843
 4568WAT     H213947   8.567   6.122   5.723
 4569WAT      O13948   4.715   2.421   3.327
 4569WAT     H113949   4.693   2.335   3.373
 4569WAT     H213950   4.730   2.493   3.395
 4570WAT      O13951   8.510   5.172   7.632
 4570WAT     H113952   8.559   5.180   7.545
 4570WAT     H213953   8.417   5.209   7.620
 4571WAT      O13954   8.332   8.603   7.398
 4571WAT     H113955   8.402   8.657   7.445
 4571WAT     H213956   8.375   8.547   7.326
 4572WAT      O13957   2.563   7.198   9.124
 4572WAT     H113958   2.489   7.236   9.180
 4572WAT     H213959   2.564   7.098   9.134
 4573WAT      O13960   4.322   1.391   1.609
 4573WAT     H113961   4.237   1.421   1.654
 4573WAT     H213962   4.359   1.312   1.657
 4574WAT      O13963   5.877   2.349   8.567
 4574WAT     H113964   5.850   2.258   8.599
 4574WAT     H213965   5.958   2.342   8.509
 4575WAT      O13966   9.175   5.385   5.315
 4575WAT     H113967   9.273   5.369   5.303
 4575WAT     H213968   9.137   5.316   5.376
 4576WAT      O13969   7.807   1.034   0.764
 4576WAT     H113970   7.816   0.954   0.705
 4576WAT     H213971   7.783   1.114   0.709
 4577WAT      O13972   1.170   6.351   0.816
 4577WAT     H113973   1.111   6.427   0.791
 4577WAT     H213974   1.126   6.264   0.794
 4578WAT      O13975   6.544   0.378   9.103
 4578WAT     H113976   6.546   0.372   9.003
 4578WAT     H213977   6.525   0.472   9.130
 4579WAT      O13978   9.171   3.919   5.085
 4579WAT     H113979   9.214   3.830   5.096
 4579WAT     H213980   9.086   3.923   5.137
 4580WAT      O13981   4.298   9.702   9.124
 4580WAT     H113982   4.360   9.705   9.045
 4580WAT     H213983   4.223   9.768   9.110
 4581WAT      O13984   0.474   6.981   8.461
 4581WAT     H113985   0.409   6.993   8.386
 4581WAT     H213986   0.550   7.044   8.451
 4582WAT      O13987   0.884   0.241   0.414
 4582WAT     H113988   0.802   0.184   0.415
 4582WAT     H213989   0.864   0.327   0.366
 4583WAT      O13990   9.696   3.423   2.023
 4583WAT     H113991   9.759   3.371   1.966
 4583WAT     H213992   9.602   3.398   1.999
 4584WAT      O13993   4.128   1.875   7.505
 4584WAT     H113994   4.164   1.952   7.453
 4584WAT     H213995   4.157   1.882   7.600
 4585WAT      O13996   1.050   1.374   6.665
 4585WAT     H113997   1.102   1.316   6.728
 4585WAT     H213998   1.019   1.319   6.587
 4586WAT      O13999   7.160   1.050   6.070
 4586WAT     H114000   7.199   1.104   5.995
 4586WAT     H214001   7.230   1.033   6.139
 4587WAT      O14002   9.041   3.430   6.727
 4587WAT     H114003   8.999   3.348   6.688
 4587WAT     H214004   9.083   3.484   6.655
 4588WAT      O14005   4.057   5.630   5.466
 4588WAT     H114006   4.139   5.683   5.442
 4588WAT     H214007   3.998   5.684   5.526
 4589WAT      O14008   9.397   4.979   4.263
 4589WAT     H114009   9.313   4.944   4.220
 4589WAT     H214010   9.392   5.078   4.268
 4590WAT      O14011   8.678   1.182   1.598
 4590WAT     H114012   8.580   1.193   1.584
 4590WAT     H214013   8.705   1.090   1.568
 4591WAT      O14014   5.830   2.871   1.472
 4591WAT     H114015   5.742   2.890   1.427
 4591WAT     H214016   5.812   2.828   1.560
 4592WAT      O14017   0.193   0.979   7.037
 4592WAT     H114018   0.207   0.939   7.127
 4592WAT     H214019   0.273   0.963   6.980
 4593WAT      O14020   3.216   9.007   1.163
 4593WAT     H114021   3.256   8.918   1.186
 4593WAT     H214022   3.135   8.993   1.105
 4594WAT      O14023   7.616   5.805   2.647
 4594WAT     H114024   7.579   5.718   2.617
 4594WAT     H214025   7.542   5.867   2.672
 4595WAT      O14026   0.344   4.994   3.522
 4595WAT     H114027   0.365   4.935   3.599
 4595WAT     H214028   0.369   5.088   3.544
 4596WAT      O14029   2.955   0.594   2.967
 4596WAT     H114030   3.006   0.546   2.895
 4596WAT     H214031   3.002   0.581   3.054
 4597WAT      O14032   2.550   7.571   4.567
 4597WAT     H114033   2.611   7.651   4.565
 4597WAT     H214034   2.606   7.488   4.575
 4598WAT      O14035   8.512   0.008   1.097
 4598WAT     H114036   8.526   0.076   1.025
 4598WAT     H214037   8.540  -0.082   1.063
 4599WAT      O14038   7.376   4.974   2.329
 4599WAT     H114039   7.297   4.924   2.364
 4599WAT     H214040   7.370   5.070   2.358
 4600WAT      O14041   2.517   1.940   6.704
 4600WAT     H114042   2.510   2.005   6.780
 4600WAT     H214043   2.614   1.926   6.682
 4601WAT      O14044   5.016   3.637   8.708
 4601WAT     H114045   4.968   3.719   8.739
 4601WAT     H214046   5.105   3.632   8.753
 4602WAT      O14047   5.964   2.392   5.196
 4602WAT     H114048   5.900   2.465   5.173
 4602WAT     H214049   6.030   2.381   5.121
 4603WAT      O14050   6.939   8.628   9.171
 4603WAT     H114051   6.969   8.551   9.114
 4603WAT     H214052   6.840   8.640   9.162
 4604WAT      O14053   4.508   7.610   4.260
 4604WAT     H114054   4.482   7.582   4.353
 4604WAT     H214055   4.496   7.708   4.251
 4605WAT      O14056   1.263   8.361   5.336
 4605WAT     H114057   1.306   8.279   5.374
 4605WAT     H214058   1.179   8.381   5.387
 4606WAT      O14059   3.998   2.875   8.269
 4606WAT     H114060   4.016   2.801   8.204
 4606WAT     H214061   3.899   2.894   8.271
 4607WAT      O14062   3.339   0.822   6.070
 4607WAT     H114063   3.417   0.787   6.122
 4607WAT     H214064   3.341   0.783   5.978
 4608WAT      O14065   1.781   6.560   8.736
 4608WAT     H114066   1.806   6.657   8.740
 4608WAT     H214067   1.862   6.505   8.721
 4609WAT      O14068   8.293   0.302   3.506
 4609WAT     H114069   8.387   0.269   3.495
 4609WAT     H214070   8.278   0.379   3.443
 4610WAT      O14071   7.775   7.925   4.259
 4610WAT     H114072   7.863   7.881   4.278
 4610WAT     H214073   7.786   8.024   4.262
 4611WAT      O14074   1.774   5.773   3.755
 4611WAT     H114075   1.721   5.805   3.676
 4611WAT     H214076   1.836   5.700   3.726
 4612WAT      O14077   5.787   7.378   4.282
 4612WAT     H114078   5.828   7.416   4.365
 4612WAT     H214079   5.698   7.338   4.304
 4613WAT      O14080   6.389   3.420   2.729
 4613WAT     H114081   6.484   3.394   2.745
 4613WAT     H214082   6.332   3.384   2.802
 4614WAT      O14083   3.593   9.726   8.977
 4614WAT     H114084   3.667   9.661   8.996
 4614WAT     H214085   3.507   9.677   8.963
 4615WAT      O14086   8.681   9.189   8.947
 4615WAT     H114087   8.725   9.231   9.027
 4615WAT     H214088   8.588   9.225   8.938
 4616WAT      O14089   1.922   0.239   8.425
 4616WAT     H114090   1.822   0.233   8.424
 4616WAT     H214091   1.954   0.272   8.336
 4617WAT      O14092   8.885   6.816   6.677
 4617WAT     H114093   8.836   6.736   6.712
 4617WAT     H214094   8.983   6.795   6.673
 4618WAT      O14095   3.136   2.428   9.594
 4618WAT     H114096   3.038   2.410   9.595
 4618WAT     H214097   3.177   2.384   9.515
 4619WAT      O14098   0.321   9.079   6.398
 4619WAT     H114099   0.289   9.160   6.349
 4619WAT     H214100   0.272   8.998   6.364
 4620WAT      O14101   4.192   2.673   4.581
 4620WAT     H114102   4.204   2.655   4.483
 4620WAT     H214103   4.269   2.635   4.632
 4621WAT      O14104   2.196   2.760   7.249
 4621WAT     H114105   2.196   2.782   7.347
 4621WAT     H214106   2.290   2.756   7.216
 4622WAT      O14107   1.533   1.912   8.530
 4622WAT     H114108   1.492   1.955   8.449
 4622WAT     H214109   1.492   1.950   8.613
 4623WAT      O14110   8.029   6.502   3.084
 4623WAT     H114111   8.094   6.500   3.160
 4623WAT     H214112   7.996   6.409   3.066
 4624WAT      O14113   2.483   8.978   7.053
 4624WAT     H114114   2.423   9.057   7.067
 4624WAT     H214115   2.578   9.006   7.065
 4625WAT      O14116   0.763   1.510   4.078
 4625WAT     H114117   0.829   1.480   4.147
 4625WAT     H214118   0.674   1.470   4.097
 4626WAT      O14119   1.294   9.115   1.454
 4626WAT     H114120   1.234   9.154   1.524
 4626WAT     H214121   1.289   9.015   1.458
 4627WAT      O14122   9.688   4.870   6.373
 4627WAT     H114123   9.645   4.951   6.332
 4627WAT     H214124   9.624   4.793   6.370
 4628WAT      O14125   3.003   0.468   7.383
 4628WAT     H114126   2.937   0.446   7.455
 4628WAT     H214127   3.095   0.446   7.415
 4629WAT      O14128   4.006   4.381   6.224
 4629WAT     H114129   4.069   4.458   6.236
 4629WAT     H214130   4.005   4.353   6.128
 4630WAT      O14131   6.305   3.154   9.215
 4630WAT     H114132   6.356   3.240   9.215
 4630WAT     H214133   6.211   3.171   9.245
 4631WAT      O14134   1.803   5.510   7.408
 4631WAT     H114135   1.881   5.448   7.404
 4631WAT     H214136   1.739   5.479   7.479
 4632WAT      O14137   1.221   7.009   4.380
 4632WAT     H114138   1.297   6.968   4.430
 4632WAT     H214139   1.154   7.044   4.445
 4633WAT      O14140   2.995   3.202   3.092
 4633WAT     H114141   3.057   3.147   3.036
 4633WAT     H214142   3.012   3.184   3.189
 4634WAT      O14143   0.659   9.758   4.454
 4634WAT     H114144   0.594   9.704   4.508
 4634WAT     H214145   0.619   9.778   4.365
 4635WAT      O14146   7.290   0.519   1.884
 4635WAT     H114147   7.242   0.563   1.809
 4635WAT     H214148   7.369   0.469   1.849
 4636WAT      O14149   7.283   5.896   5.622
 4636WAT     H114150   7.297   5.863   5.529
 4636WAT     H214151   7.371   5.901   5.670
 4637WAT      O14152   2.850   4.145   4.298
 4637WAT     H114153   2.896   4.157   4.386
 4637WAT     H214154   2.847   4.048   4.275
 4638WAT      O14155   1.364   4.422   6.485
 4638WAT     H114156   1.342   4.361   6.408
 4638WAT     H214157   1.424   4.374   6.549
 4639WAT      O14158   8.526   2.602   4.291
 4639WAT     H114159   8.596   2.532   4.282
 4639WAT     H214160   8.568   2.690   4.313
 4640WAT      O14161   4.889   4.052   8.630
 4640WAT     H114162   4.970   4.070   8.573
 4640WAT     H214163   4.818   4.009   8.573
 4641WAT      O14164   4.881   5.141   9.425
 4641WAT     H114165   4.909   5.073   9.493
 4641WAT     H214166   4.789   5.119   9.392
 4642WAT      O14167   2.291   7.686   6.917
 4642WAT     H114168   2.216   7.659   6.857
 4642WAT     H214169   2.369   7.717   6.863
 4643WAT      O14170   4.361   6.996   4.932
 4643WAT     H114171   4.410   6.915   4.901
 4643WAT     H214172   4.391   7.020   5.024
 4644WAT      O14173   2.554   3.530   9.835
 4644WAT     H114174   2.637   3.551   9.783
 4644WAT     H214175   2.475   3.530   9.773
 4645WAT      O14176   4.762   9.669   6.848
 4645WAT     H114177   4.812   9.666   6.761
 4645WAT     H214178   4.739   9.576   6.877
 4646WAT      O14179   7.239   1.575   4.299
 4646WAT     H114180   7.196   1.485   4.295
 4646WAT     H214181   7.324   1.573   4.247
 4647WAT      O14182   2.165   6.836   7.753
 4647WAT     H114183   2.094   6.860   7.819
 4647WAT     H214184   2.255   6.845   7.795
 4648WAT      O14185   0.870   6.401   1.181
 4648WAT     H114186   0.953   6.377   1.131
 4648WAT     H214187   0.889   6.476   1.244
 4649WAT      O14188   8.279   7.965   9.382
 4649WAT     H114189   8.221   7.943   9.460
 4649WAT     H214190   8.375   7.964   9.411
 4650WAT      O14191   6.615   5.273   4.852
 4650WAT     H114192   6.556   5.235   4.781
 4650WAT     H214193   6.575   5.255   4.942
 4651WAT      O14194   0.562   3.971   7.247
 4651WAT     H114195   0.639   4.022   7.206
 4651WAT     H214196   0.493   3.954   7.178
 4652WAT      O14197   7.061   7.619   5.229
 4652WAT     H114198   7.117   7.637   5.310
 4652WAT     H214199   7.050   7.520   5.217
 4653WAT      O14200   1.415   7.918   6.295
 4653WAT     H114201   1.503   7.874   6.276
 4653WAT     H214202   1.382   7.889   6.385
 4654WAT      O14203   9.112   1.444   1.246
 4654WAT     H114204   9.162   1.521   1.286
 4654WAT     H214205   9.034   1.422   1.304
 4655WAT      O14206   6.575   4.130   7.418
 4655WAT     H114207   6.632   4.168   7.490
 4655WAT     H214208   6.582   4.030   7.419
 4656WAT      O14209   4.657   1.763   5.741
 4656WAT     H114210   4.684   1.859   5.745
 4656WAT     H214211   4.732   1.706   5.775
 4657WAT      O14212   2.811   3.037   7.163
 4657WAT     H114213   2.781   3.132   7.165
 4657WAT     H214214   2.874   3.024   7.086
 4658WAT      O14215   1.671   7.606   5.730
 4658WAT     H114216   1.688   7.678   5.662
 4658WAT     H214217   1.758   7.566   5.759
 4659WAT      O14218   4.117   2.677   3.097
 4659WAT     H114219   4.067   2.592   3.116
 4659WAT     H214220   4.067   2.754   3.135
 4660WAT      O14221   4.862   9.520   6.361
 4660WAT     H114222   4.876   9.486   6.268
 4660WAT     H214223   4.773   9.564   6.368
 4661WAT      O14224   1.584   7.543   0.951
 4661WAT     H114225   1.580   7.586   0.861
 4661WAT     H214226   1.556   7.447   0.944
 4662WAT      O14227   6.308   6.833   5.938
 4662WAT     H114228   6.250   6.897   5.886
 4662WAT     H214229   6.390   6.813   5.885
 4663WAT      O14230   0.311   0.249   5.644
 4663WAT     H114231   0.290   0.154   5.622
 4663WAT     H214232   0.363   0.254   5.729
 4664WAT      O14233   9.830   5.764   8.151
 4664WAT     H114234   9.786   5.735   8.236
 4664WAT     H214235   9.842   5.863   8.151
 4665WAT      O14236   4.236   5.996   5.303
 4665WAT     H114237   4.254   5.915   5.359
 4665WAT     H214238   4.138   6.004   5.285
 4666WAT      O14239   5.564   1.340   9.168
 4666WAT     H114240   5.599   1.335   9.075
 4666WAT     H214241   5.528   1.432   9.186
 4667WAT      O14242   2.047   2.929   6.785
 4667WAT     H114243   2.088   3.012   6.823
 4667WAT     H214244   2.068   2.851   6.844
 4668WAT      O14245   2.187   6.885   2.990
 4668WAT     H114246   2.165   6.826   3.068
 4668WAT     H214247   2.234   6.967   3.023
 4669WAT      O14248   7.995   0.773   0.090
 4669WAT     H114249   8.023   0.732   0.004
 4669WAT     H214250   7.901   0.807   0.082
 4670WAT      O14251   7.031   1.880   6.719
 4670WAT     H114252   7.066   1.915   6.807
 4670WAT     H214253   6.985   1.793   6.734
 4671WAT      O14254   7.797   2.605   3.321
 4671WAT     H114255   7.766   2.672   3.388
 4671WAT     H214256   7.759   2.515   3.344
 4672WAT      O14257   5.674   4.589   1.462
 4672WAT     H114258   5.748   4.657   1.465
 4672WAT     H214259   5.703   4.512   1.405
 4673WAT      O14260   6.336   7.244   5.365
 4673WAT     H114261   6.262   7.197   5.412
 4673WAT     H214262   6.345   7.337   5.400
 4674WAT      O14263   9.133   6.558   3.882
 4674WAT     H114264   9.112   6.484   3.818
 4674WAT     H214265   9.047   6.597   3.915
 4675WAT      O14266   4.917   4.486   3.188
 4675WAT     H114267   4.917   4.430   3.271
 4675WAT     H214268   4.835   4.544   3.187
 4676WAT      O14269   2.926   6.020   2.276
 4676WAT     H114270   2.995   5.988   2.340
 4676WAT     H214271   2.957   6.104   2.232
 4677WAT      O14272   6.760   5.725   2.352
 4677WAT     H114273   6.795   5.674   2.274
 4677WAT     H214274   6.723   5.661   2.419
 4678WAT      O14275   1.088   3.867   2.805
 4678WAT     H114276   1.074   3.768   2.807
 4678WAT     H214277   1.167   3.888   2.747
 4679WAT      O14278   1.643   0.168   8.364
 4679WAT     H114279   1.593   0.249   8.331
 4679WAT     H214280   1.580   0.109   8.414
 4680WAT      O14281   4.134   3.712   5.012
 4680WAT     H114282   4.044   3.755   5.017
 4680WAT     H214283   4.160   3.679   5.103
 4681WAT      O14284   8.515   8.982   1.778
 4681WAT     H114285   8.497   9.031   1.863
 4681WAT     H214286   8.559   8.894   1.799
 4682WAT      O14287   5.898   3.159   8.781
 4682WAT     H114288   5.858   3.082   8.731
 4682WAT     H214289   5.978   3.128   8.832
 4683WAT      O14290   9.238   4.699   3.278
 4683WAT     H114291   9.143   4.692   3.310
 4683WAT     H214292   9.287   4.764   3.337
 4684WAT      O14293   7.157   8.233   2.213
 4684WAT     H114294   7.102   8.299   2.163
 4684WAT     H214295   7.162   8.260   2.309
 4685WAT      O14296   6.378   4.096   4.394
 4685WAT     H114297   6.379   4.030   4.469
 4685WAT     H214298   6.427   4.058   4.316
 4686WAT      O14299   6.784   8.562   2.127
 4686WAT     H114300   6.765   8.467   2.099
 4686WAT     H214301   6.861   8.563   2.191
 4687WAT      O14302   1.088   2.572   0.353
 4687WAT     H114303   1.169   2.515   0.343
 4687WAT     H214304   1.092   2.620   0.441
 4688WAT      O14305   3.135   6.582   3.813
 4688WAT     H114306   3.205   6.512   3.799
 4688WAT     H214307   3.178   6.669   3.838
 4689WAT      O14308   2.372   5.664   7.582
 4689WAT     H114309   2.348   5.673   7.486
 4689WAT     H214310   2.398   5.753   7.619
 4690WAT      O14311   8.381   1.690   9.542
 4690WAT     H114312   8.455   1.697   9.610
 4690WAT     H214313   8.298   1.657   9.587
 4691WAT      O14314   0.730   5.606   3.129
 4691WAT     H114315   0.676   5.581   3.209
 4691WAT     H214316   0.826   5.610   3.153
 4692WAT      O14317   6.613   2.552   2.938
 4692WAT     H114318   6.697   2.601   2.960
 4692WAT     H214319   6.630   2.454   2.939
 4693WAT      O14320   3.873   4.511   0.682
 4693WAT     H114321   3.906   4.471   0.596
 4693WAT     H214322   3.947   4.563   0.725
 4694WAT      O14323   1.114   7.727   1.387
 4694WAT     H114324   1.173   7.782   1.446
 4694WAT     H214325   1.108   7.634   1.423
 4695WAT      O14326   8.800   5.553   2.396
 4695WAT     H114327   8.780   5.595   2.485
 4695WAT     H214328   8.821   5.456   2.410
 4696WAT      O14329   9.004   6.009   0.076
 4696WAT     H114330   8.909   6.040   0.063
 4696WAT     H214331   9.067   6.081   0.047
 4697WAT      O14332   9.862   6.203   0.474
 4697WAT     H114333   9.962   6.202   0.472
 4697WAT     H214334   9.831   6.182   0.567
 4698WAT      O14335   1.456   5.747   5.030
 4698WAT     H114336   1.510   5.754   4.946
 4698WAT     H214337   1.421   5.838   5.055
 4699WAT      O14338   1.414   2.996   4.583
 4699WAT     H114339   1.499   2.947   4.603
 4699WAT     H214340   1.339   2.930   4.572
 4700WAT      O14341   4.246   2.932   4.751
 4700WAT     H114342   4.205   2.846   4.723
 4700WAT     H214343   4.306   2.966   4.678
 4701WAT      O14344   7.287   3.472   6.912
 4701WAT     H114345   7.256   3.381   6.941
 4701WAT     H214346   7.325   3.465   6.820
 4702WAT      O14347   4.418   0.425   9.403
 4702WAT     H114348   4.421   0.349   9.467
 4702WAT     H214349   4.508   0.469   9.399
 4703WAT      O14350   8.039   5.630   6.130
 4703WAT     H114351   8.028   5.557   6.197
 4703WAT     H214352   7.983   5.708   6.157
 4704WAT      O14353   7.947   5.378   3.963
 4704WAT     H114354   8.038   5.342   3.985
 4704WAT     H214355   7.878   5.328   4.014
 4705WAT      O14356   6.156   6.803   9.011
 4705WAT     H114357   6.183   6.881   8.955
 4705WAT     H214358   6.088   6.748   8.962
 4706WAT      O14359   3.217   1.889   7.783
 4706WAT     H114360   3.223   1.837   7.698
 4706WAT     H214361   3.228   1.827   7.861
 4707WAT      O14362   4.868   1.949   8.346
 4707WAT     H114363   4.855   1.864   8.396
 4707WAT     H214364   4.855   2.027   8.408
 4708WAT      O14365   4.353   8.449   5.129
 4708WAT     H114366   4.286   8.377   5.111
 4708WAT     H214367   4.314   8.515   5.192
 4709WAT      O14368   1.854   5.107   7.133
 4709WAT     H114369   1.889   5.078   7.223
 4709WAT     H214370   1.822   5.201   7.139
 4710WAT      O14371   2.013   9.636   3.827
 4710WAT     H114372   2.025   9.582   3.911
 4710WAT     H214373   2.096   9.628   3.771
 4711WAT      O14374   3.371   0.062   3.803
 4711WAT     H114375   3.363   0.012   3.717
 4711WAT     H214376   3.297   0.037   3.865
 4712WAT      O14377   0.257   8.221   5.494
 4712WAT     H114378   0.232   8.133   5.535
 4712WAT     H214379   0.279   8.286   5.566
 4713WAT      O14380   9.287   2.018   6.282
 4713WAT     H114381   9.205   1.985   6.329
 4713WAT     H214382   9.321   1.945   6.222
 4714WAT      O14383   4.986   6.297   8.353
 4714WAT     H114384   4.957   6.248   8.435
 4714WAT     H214385   4.973   6.395   8.367
 4715WAT      O14386   8.583   0.891   2.346
 4715WAT     H114387   8.582   0.799   2.385
 4715WAT     H214388   8.674   0.931   2.357
 4716WAT      O14389   9.383   2.668   4.196
 4716WAT     H114390   9.378   2.747   4.136
 4716WAT     H214391   9.476   2.658   4.231
 4717WAT      O14392   9.547   8.464   5.297
 4717WAT     H114393   9.473   8.398   5.312
 4717WAT     H214394   9.577   8.458   5.202
 4718WAT      O14395   2.330   8.506   4.568
 4718WAT     H114396   2.322   8.579   4.636
 4718WAT     H214397   2.384   8.538   4.491
 4719WAT      O14398   9.559   1.511   8.405
 4719WAT     H114399   9.610   1.433   8.442
 4719WAT     H214400   9.623   1.582   8.376
 4720WAT      O14401   9.820   8.014   3.524
 4720WAT     H114402   9.743   8.075   3.538
 4720WAT     H214403   9.831   7.954   3.603
 4721WAT      O14404   9.725   5.620   7.952
 4721WAT     H114405   9.757   5.677   8.027
 4721WAT     H214406   9.776   5.534   7.951
 4722WAT      O14407   1.139   9.666   9.379
 4722WAT     H114408   1.067   9.599   9.363
 4722WAT     H214409   1.208   9.658   9.308
 4723WAT      O14410   5.135   5.370   1.381
 4723WAT     H114411   5.183   5.342   1.465
 4723WAT     H214412   5.195   5.428   1.326
 4724WAT      O14413   3.610   2.505   5.898
 4724WAT     H114414   3.691   2.497   5.840
 4724WAT     H214415   3.575   2.413   5.919
 4725WAT      O14416   7.938   5.360   5.815
 4725WAT     H114417   7.876   5.315   5.879
 4725WAT     H214418   7.917   5.458   5.811
 4726WAT      O14419   1.843   2.976   7.943
 4726WAT     H114420   1.923   2.923   7.914
 4726WAT     H214421   1.769   2.962   7.877
 4727WAT      O14422   8.278   2.113   3.858
 4727WAT     H114423   8.285   2.027   3.908
 4727WAT     H214424   8.202   2.110   3.794
 4728WAT      O14425   9.320   2.872   6.746
 4728WAT     H114426   9.357   2.779   6.750
 4728WAT     H214427   9.220   2.869   6.750
 4729WAT      O14428   8.151   4.968   4.887
 4729WAT     H114429   8.195   4.972   4.797
 4729WAT     H214430   8.145   5.060   4.925
 4730WAT      O14431   5.600   1.382   3.268
 4730WAT     H114432   5.534   1.345   3.203
 4730WAT     H214433   5.693   1.365   3.235
 4731WAT      O14434   4.240   5.760   4.319
 4731WAT     H114435   4.302   5.814   4.261
 4731WAT     H214436   4.248   5.664   4.294
 4732WAT      O14437   2.978   7.003   2.689
 4732WAT     H114438   3.013   6.914   2.720
 4732WAT     H214439   2.895   6.989   2.636
 4733WAT      O14440   8.660   7.834   5.331
 4733WAT     H114441   8.701   7.907   5.385
 4733WAT     H214442   8.562   7.850   5.320
 4734WAT      O14443   8.644   6.943   2.338
 4734WAT     H114444   8.721   6.964   2.278
 4734WAT     H214445   8.679   6.915   2.428
 4735WAT      O14446   1.283   5.407   7.961
 4735WAT     H114447   1.306   5.333   7.898
 4735WAT     H214448   1.189   5.396   7.992
 4736WAT      O14449   0.731   2.574   8.502
 4736WAT     H114450   0.662   2.509   8.469
 4736WAT     H214451   0.706   2.603   8.595
 4737WAT      O14452   4.719   1.827   1.183
 4737WAT     H114453   4.756   1.792   1.097
 4737WAT     H214454   4.788   1.880   1.231
 4738WAT      O14455   6.174   6.750   1.230
 4738WAT     H114456   6.255   6.692   1.221
 4738WAT     H214457   6.093   6.692   1.243
 4739WAT      O14458   7.117   7.996   1.392
 4739WAT     H114459   7.037   7.940   1.414
 4739WAT     H214460   7.199   7.938   1.388
 4740WAT      O14461   8.454   9.527   1.803
 4740WAT     H114462   8.416   9.491   1.888
 4740WAT     H214463   8.490   9.619   1.818
 4741WAT      O14464   1.155   6.930   6.291
 4741WAT     H114465   1.103   6.930   6.376
 4741WAT     H214466   1.126   6.852   6.235
 4742WAT      O14467   9.451   7.398   8.147
 4742WAT     H114468   9.488   7.481   8.103
 4742WAT     H214469   9.525   7.350   8.194
 4743WAT      O14470   5.077   3.581   3.400
 4743WAT     H114471   5.103   3.496   3.354
 4743WAT     H214472   5.001   3.563   3.463
 4744WAT      O14473   1.412   2.491   3.175
 4744WAT     H114474   1.386   2.511   3.081
 4744WAT     H214475   1.331   2.466   3.228
 4745WAT      O14476   4.293   0.524   3.690
 4745WAT     H114477   4.282   0.601   3.752
 4745WAT     H214478   4.322   0.443   3.742
 4746WAT      O14479   7.990   6.269   9.656
 4746WAT     H114480   7.989   6.313   9.566
 4746WAT     H214481   8.023   6.175   9.646
 4747WAT      O14482   3.379   3.016   3.818
 4747WAT     H114483   3.421   2.940   3.767
 4747WAT     H214484   3.443   3.047   3.888
 4748WAT      O14485   1.692   1.214   9.623
 4748WAT     H114486   1.645   1.301   9.632
 4748WAT     H214487   1.656   1.164   9.544
 4749WAT      O14488   2.045   9.030   0.976
 4749WAT     H114489   2.087   9.065   0.893
 4749WAT     H214490   2.088   9.072   1.056
 4750WAT      O14491   9.225   9.452   6.472
 4750WAT     H114492   9.192   9.502   6.392
 4750WAT     H214493   9.156   9.457   6.545
 4751WAT      O14494   3.976   1.903   8.891
 4751WAT     H114495   4.070   1.922   8.921
 4751WAT     H214496   3.944   1.820   8.936
 4752WAT      O14497   1.985   2.097   4.024
 4752WAT     H114498   2.056   2.133   4.084
 4752WAT     H214499   1.964   2.002   4.051
 4753WAT      O14500   3.395   2.219   0.424
 4753WAT     H114501   3.320   2.174   0.472
 4753WAT     H214502   3.394   2.317   0.445
 4754WAT      O14503   9.455   9.311   6.909
 4754WAT     H114504   9.510   9.316   6.826
 4754WAT     H214505   9.491   9.376   6.976
 4755WAT      O14506   2.303   2.232   3.180
 4755WAT     H114507   2.378   2.296   3.194
 4755WAT     H214508   2.304   2.163   3.253
 4756WAT      O14509   4.668   2.059   5.676
 4756WAT     H114510   4.678   2.053   5.775
 4756WAT     H214511   4.730   2.129   5.640
 4757WAT      O14512   4.024   8.193   3.179
 4757WAT     H114513   4.058   8.126   3.112
 4757WAT     H214514   4.046   8.161   3.271
 4758WAT      O14515   2.123   8.569   5.436
 4758WAT     H114516   2.051   8.516   5.481
 4758WAT     H214517   2.095   8.664   5.429
 4759WAT      O14518   0.758   0.832   1.358
 4759WAT     H114519   0.661   0.855   1.365
 4759WAT     H214520   0.768   0.736   1.333
 4760WAT      O14521   8.543   9.766   0.469
 4760WAT     H114522   8.529   9.753   0.371
 4760WAT     H214523   8.561   9.862   0.488
 4761WAT      O14524   3.204   5.845   4.583
 4761WAT     H114525   3.289   5.896   4.574
 4761WAT     H214526   3.177   5.840   4.679
 4762WAT      O14527   8.817   6.816   9.599
 4762WAT     H114528   8.881   6.873   9.546
 4762WAT     H214529   8.725   6.831   9.564
 4763WAT      O14530   2.459   7.669   2.663
 4763WAT     H114531   2.466   7.601   2.736
 4763WAT     H214532   2.549   7.682   2.622
 4764WAT      O14533   0.713   7.661   2.732
 4764WAT     H114534   0.798   7.661   2.679
 4764WAT     H214535   0.717   7.589   2.801
 4765WAT      O14536   3.424   5.115   7.286
 4765WAT     H114537   3.484   5.036   7.272
 4765WAT     H214538   3.416   5.166   7.201
 4766WAT      O14539   3.483   7.590   5.356
 4766WAT     H114540   3.547   7.537   5.411
 4766WAT     H214541   3.454   7.671   5.407
 4767WAT      O14542   6.123   4.920   6.267
 4767WAT     H114543   6.161   4.927   6.175
 4767WAT     H214544   6.184   4.965   6.332
 4768WAT      O14545   6.124   2.820   6.409
 4768WAT     H114546   6.200   2.770   6.449
 4768WAT     H214547   6.043   2.761   6.406
 4769WAT      O14548   2.274   8.821   0.413
 4769WAT     H114549   2.195   8.770   0.447
 4769WAT     H214550   2.252   8.861   0.324
 4770WAT      O14551   0.428   9.627   4.591
 4770WAT     H114552   0.346   9.680   4.568
 4770WAT     H214553   0.401   9.534   4.616
 4771WAT      O14554   2.150   3.297   3.709
 4771WAT     H114555   2.089   3.371   3.733
 4771WAT     H214556   2.244   3.320   3.736
 4772WAT      O14557   3.179   8.751   2.253
 4772WAT     H114558   3.257   8.718   2.307
 4772WAT     H214559   3.212   8.815   2.184
 4773WAT      O14560   7.646   7.873   3.721
 4773WAT     H114561   7.588   7.954   3.714
 4773WAT     H214562   7.593   7.797   3.759
 4774WAT      O14563   0.208   1.712   1.466
 4774WAT     H114564   0.120   1.708   1.514
 4774WAT     H214565   0.217   1.632   1.407
 4775WAT      O14566   8.104   0.943   2.196
 4775WAT     H114567   8.194   0.904   2.174
 4775WAT     H214568   8.033   0.874   2.180
 4776WAT      O14569   9.670   7.432   0.672
 4776WAT     H114570   9.769   7.442   0.677
 4776WAT     H214571   9.646   7.373   0.596
 4777WAT      O14572   8.497   1.945   6.422
 4777WAT     H114573   8.429   1.926   6.351
 4777WAT     H214574   8.498   1.870   6.488
 4778WAT      O14575   0.994   0.319   2.631
 4778WAT     H114576   0.981   0.405   2.681
 4778WAT     H214577   0.945   0.245   2.678
 4779WAT      O14578   4.518   2.610   7.881
 4779WAT     H114579   4.586   2.538   7.888
 4779WAT     H214580   4.466   2.616   7.966
 4780WAT      O14581   1.300   9.631   0.128
 4780WAT     H114582   1.337   9.547   0.167
 4780WAT     H214583   1.210   9.612   0.087
 4781WAT      O14584   8.774   3.701   7.004
 4781WAT     H114585   8.697   3.736   7.058
 4781WAT     H214586   8.742   3.627   6.944
 4782WAT      O14587   6.937   0.429   2.161
 4782WAT     H114588   6.993   0.388   2.089
 4782WAT     H214589   6.990   0.498   2.209
 4783WAT      O14590   0.567   2.548   2.712
 4783WAT     H114591   0.537   2.591   2.797
 4783WAT     H214592   0.619   2.615   2.658
 4784WAT      O14593   6.252   6.659   2.052
 4784WAT     H114594   6.215   6.566   2.061
 4784WAT     H214595   6.238   6.692   1.958
 4785WAT      O14596   2.998   6.404   2.344
 4785WAT     H114597   3.051   6.479   2.304
 4785WAT     H214598   2.997   6.327   2.280
 4786WAT      O14599   7.853   8.518   6.983
 4786WAT     H114600   7.853   8.420   7.003
 4786WAT     H214601   7.778   8.561   7.033
 4787WAT      O14602   3.921   2.187   0.772
 4787WAT     H114603   3.905   2.219   0.678
 4787WAT     H214604   3.900   2.090   0.779
 4788WAT      O14605   0.501   6.465   5.058
 4788WAT     H114606   0.459   6.461   5.148
 4788WAT     H214607   0.446   6.413   4.993
 4789WAT      O14608   1.804   1.605   1.431
 4789WAT     H114609   1.708   1.586   1.455
 4789WAT     H214610   1.807   1.679   1.365
 4790WAT      O14611   8.782   1.209   2.086
 4790WAT     H114612   8.881   1.200   2.100
 4790WAT     H214613   8.760   1.304   2.066
 4791WAT      O14614   4.940   2.035   2.654
 4791WAT     H114615   4.962   1.961   2.591
 4791WAT     H214616   4.916   1.997   2.743
 4792WAT      O14617   3.656   7.920   0.541
 4792WAT     H114618   3.707   8.000   0.573
 4792WAT     H214619   3.721   7.846   0.520
 4793WAT      O14620   4.319   7.657   0.360
 4793WAT     H114621   4.374   7.577   0.336
 4793WAT     H214622   4.362   7.707   0.435
 4794WAT      O14623   2.724   6.664   8.939
 4794WAT     H114624   2.671   6.749   8.944
 4794WAT     H214625   2.707   6.620   8.850
 4795WAT      O14626   7.219   4.446   6.681
 4795WAT     H114627   7.311   4.413   6.658
 4795WAT     H214628   7.215   4.545   6.667
 4796WAT      O14629   2.041   9.558   4.524
 4796WAT     H114630   2.093   9.639   4.495
 4796WAT     H214631   2.007   9.572   4.617
 4797WAT      O14632   5.959   6.412   8.978
 4797WAT     H114633   5.862   6.436   8.977
 4797WAT     H214634   5.968   6.313   8.965
 4798WAT      O14635   5.591   4.958   2.511
 4798WAT     H114636   5.651   4.957   2.431
 4798WAT     H214637   5.549   4.868   2.523
 4799WAT      O14638   4.871   1.109   6.973
 4799WAT     H114639   4.963   1.097   7.010
 4799WAT     H214640   4.842   1.026   6.927
 4800WAT      O14641   1.381   7.421   3.572
 4800WAT     H114642   1.413   7.329   3.550
 4800WAT     H214643   1.438   7.488   3.526
 4801WAT      O14644   9.176   5.107   7.590
 4801WAT     H114645   9.180   5.183   7.655
 4801WAT     H214646   9.158   5.142   7.498
 4802WAT      O14647   7.200   4.294   9.636
 4802WAT     H114648   7.286   4.303   9.585
 4802WAT     H214649   7.183   4.379   9.687
 4803WAT      O14650   8.953   2.908   3.034
 4803WAT     H114651   8.995   2.978   2.976
 4803WAT     H214652   8.934   2.826   2.979
 4804WAT      O14653   7.421   2.948   0.169
 4804WAT     H114654   7.410   2.896   0.254
 4804WAT     H214655   7.515   2.937   0.135
 4805WAT      O14656   1.435   3.065   7.951
 4805WAT     H114657   1.382   3.087   7.869
 4805WAT     H214658   1.379   3.010   8.013
 4806WAT      O14659   5.270   7.612   2.844
 4806WAT     H114660   5.192   7.619   2.904
 4806WAT     H214661   5.302   7.517   2.841
 4807WAT      O14662   8.789   5.649   8.404
 4807WAT     H114663   8.734   5.618   8.481
 4807WAT     H214664   8.874   5.689   8.437
 4808WAT      O14665   8.489   3.054   9.191
 4808WAT     H114666   8.510   3.121   9.262
 4808WAT     H214667   8.485   3.098   9.102
 4809WAT      O14668   9.193   8.265   7.410
 4809WAT     H114669   9.284   8.259   7.369
 4809WAT     H214670   9.156   8.357   7.397
 4810WAT      O14671   6.952   1.847   8.947
 4810WAT     H114672   6.880   1.905   8.909
 4810WAT     H214673   7.025   1.836   8.878
 4811WAT      O14674   3.973   0.514   1.720
 4811WAT     H114675   4.043   0.550   1.658
 4811WAT     H214676   4.016   0.468   1.797
 4812WAT      O14677   7.098   8.888   2.722
 4812WAT     H114678   7.156   8.966   2.743
 4812WAT     H214679   7.147   8.803   2.746
 4813WAT      O14680   1.308   7.347   6.240
 4813WAT     H114681   1.231   7.302   6.286
 4813WAT     H214682   1.329   7.433   6.288
 4814WAT      O14683   4.713   1.983   5.930
 4814WAT     H114684   4.810   1.964   5.917
 4814WAT     H214685   4.700   2.030   6.018
 4815WAT      O14686   7.950   4.261   7.541
 4815WAT     H114687   7.865   4.280   7.591
 4815WAT     H214688   7.957   4.163   7.525
 4816WAT      O14689   7.082   5.163   8.524
 4816WAT     H114690   7.052   5.254   8.496
 4816WAT     H214691   7.182   5.160   8.527
 4817WAT      O14692   0.406   6.913   1.209
 4817WAT     H114693   0.352   6.921   1.293
 4817WAT     H214694   0.408   7.001   1.162
 4818WAT      O14695   2.101   7.626   0.011
 4818WAT     H114696   2.144   7.696   0.068
 4818WAT     H214697   2.077   7.547   0.068
 4819WAT      O14698   2.382   0.204   1.000
 4819WAT     H114699   2.475   0.221   1.034
 4819WAT     H214700   2.355   0.110   1.024
 4820WAT      O14701   3.956   6.022   3.493
 4820WAT     H114702   3.886   5.965   3.450
 4820WAT     H214703   4.047   5.985   3.474
 4821WAT      O14704   2.858   2.808   2.760
 4821WAT     H114705   2.766   2.837   2.734
 4821WAT     H214706   2.863   2.799   2.859
 4822WAT      O14707   6.555   4.638   7.371
 4822WAT     H114708   6.616   4.606   7.299
 4822WAT     H214709   6.607   4.652   7.455
 4823WAT      O14710   2.511   1.226   7.007
 4823WAT     H114711   2.474   1.292   7.073
 4823WAT     H214712   2.594   1.184   7.044
 4824WAT      O14713   9.772   1.998   7.087
 4824WAT     H114714   9.676   1.991   7.115
 4824WAT     H214715   9.778   1.989   6.988
 4825WAT      O14716   7.478   5.220   8.779
 4825WAT     H114717   7.501   5.179   8.691
 4825WAT     H214718   7.415   5.296   8.765
 4826WAT      O14719   5.293   4.873   1.432
 4826WAT     H114720   5.268   4.953   1.378
 4826WAT     H214721   5.389   4.850   1.416
 4827WAT      O14722   2.195   5.949   4.011
 4827WAT     H114723   2.096   5.953   4.023
 4827WAT     H214724   2.216   5.923   3.917
 4828WAT      O14725   2.339   0.459   8.453
 4828WAT     H114726   2.258   0.408   8.425
 4828WAT     H214727   2.337   0.475   8.551
 4829WAT      O14728   3.663   1.162   0.750
 4829WAT     H114729   3.736   1.224   0.780
 4829WAT     H214730   3.616   1.202   0.672
 4830WAT      O14731   0.597   2.915   2.917
 4830WAT     H114732   0.529   2.842   2.908
 4830WAT     H214733   0.688   2.875   2.923
 4831WAT      O14734   5.990   7.531   7.411
 4831WAT     H114735   5.929   7.601   7.373
 4831WAT     H214736   5.941   7.480   7.482
 4832WAT      O14737   1.001   9.711   6.388
 4832WAT     H114738   0.959   9.745   6.472
 4832WAT     H214739   0.952   9.749   6.309
 4833WAT      O14740   8.598   3.157   0.131
 4833WAT     H114741   8.616   3.253   0.109
 4833WAT     H214742   8.532   3.152   0.206
 4834WAT      O14743   8.510   4.577   9.543
 4834WAT     H114744   8.562   4.522   9.608
 4834WAT     H214745   8.418   4.593   9.579
 4835WAT      O14746   2.722   9.695   1.692
 4835WAT     H114747   2.792   9.732   1.753
 4835WAT     H214748   2.632   9.705   1.735
 4836WAT      O14749   7.060   5.186   7.819
 4836WAT     H114750   7.149   5.214   7.856
 4836WAT     H214751   7.003   5.148   7.892
 4837WAT      O14752   3.018   0.577   1.345
 4837WAT     H114753   2.953   0.614   1.411
 4837WAT     H214754   2.969   0.547   1.263
 4838WAT      O14755   6.707   6.048   0.758
 4838WAT     H114756   6.646   5.995   0.698
 4838WAT     H214757   6.793   5.998   0.769
 4839WAT      O14758   0.659   4.762   8.818
 4839WAT     H114759   0.608   4.814   8.886
 4839WAT     H214760   0.739   4.720   8.861
 4840WAT      O14761   1.358   6.328   8.811
 4840WAT     H114762   1.307   6.263   8.867
 4840WAT     H214763   1.295   6.374   8.748
 4841WAT      O14764   9.714   2.059   8.889
 4841WAT     H114765   9.769   2.014   8.959
 4841WAT     H214766   9.617   2.044   8.907
 4842WAT      O14767   3.754   9.040   9.803
 4842WAT     H114768   3.832   9.015   9.746
 4842WAT     H214769   3.730   9.136   9.785
 4843WAT      O14770   3.345   1.984   7.315
 4843WAT     H114771   3.398   1.954   7.395
 4843WAT     H214772   3.320   1.904   7.261
 4844WAT      O14773   5.379   9.545   1.761
 4844WAT     H114774   5.292   9.496   1.756
 4844WAT     H214775   5.366   9.639   1.730
 4845WAT      O14776   2.782   2.913   4.798
 4845WAT     H114777   2.828   2.867   4.874
 4845WAT     H214778   2.835   2.993   4.770
 4846WAT      O14779   2.003   8.997   3.255
 4846WAT     H114780   2.017   9.010   3.157
 4846WAT     H214781   1.919   8.946   3.271
 4847WAT      O14782   7.864   8.518   5.882
 4847WAT     H114783   7.946   8.470   5.851
 4847WAT     H214784   7.882   8.561   5.970
 4848WAT      O14785   5.821   2.219   7.770
 4848WAT     H114786   5.813   2.121   7.790
 4848WAT     H214787   5.751   2.246   7.705
 4849WAT      O14788   3.447   4.077   8.022
 4849WAT     H114789   3.389   4.156   8.044
 4849WAT     H214790   3.390   4.003   7.986
 4850WAT      O14791   2.763   6.157   0.377
 4850WAT     H114792   2.709   6.080   0.410
 4850WAT     H214793   2.802   6.206   0.456
 4851WAT      O14794   0.993   3.099   2.737
 4851WAT     H114795   0.920   3.114   2.804
 4851WAT     H214796   0.993   3.004   2.709
 4852WAT      O14797   7.772   8.381   2.799
 4852WAT     H114798   7.683   8.340   2.778
 4852WAT     H214799   7.774   8.474   2.761
 4853WAT      O14800   5.889   4.492   3.327
 4853WAT     H114801   5.793   4.519   3.321
 4853WAT     H214802   5.896   4.393   3.314
 4854WAT      O14803   1.500   9.220   6.177
 4854WAT     H114804   1.411   9.236   6.136
 4854WAT     H214805   1.494   9.145   6.243
 4855WAT      O14806   1.891   5.084   9.818
 4855WAT     H114807   1.829   5.010   9.846
 4855WAT     H214808   1.855   5.172   9.850
 4856WAT      O14809   0.131   1.670   3.346
 4856WAT     H114810   0.082   1.728   3.281
 4856WAT     H214811   0.222   1.649   3.310
 4857WAT      O14812   0.676   6.700   5.940
 4857WAT     H114813   0.735   6.619   5.932
 4857WAT     H214814   0.733   6.783   5.938
 4858WAT      O14815   8.781   6.941   6.476
 4858WAT     H114816   8.802   6.885   6.555
 4858WAT     H214817   8.865   6.958   6.424
 4859WAT      O14818   4.694   6.975   5.476
 4859WAT     H114819   4.628   6.969   5.401
 4859WAT     H214820   4.787   6.975   5.440
 4860WAT      O14821   6.322   1.895   0.105
 4860WAT     H114822   6.306   1.821   0.041
 4860WAT     H214823   6.390   1.867   0.173
 4861WAT      O14824   4.501   8.970   9.415
 4861WAT     H114825   4.498   9.020   9.328
 4861WAT     H214826   4.595   8.967   9.449
 4862WAT      O14827   2.925   4.043   2.910
 4862WAT     H114828   3.005   3.983   2.909
 4862WAT     H214829   2.939   4.116   2.977
 4863WAT      O14830   9.549   9.468   3.259
 4863WAT     H114831   9.467   9.448   3.205
 4863WAT     H214832   9.548   9.413   3.343
 4864WAT      O14833   7.731   0.404   4.486
 4864WAT     H114834   7.830   0.391   4.490
 4864WAT     H214835   7.711   0.482   4.427
 4865WAT      O14836   7.834   2.001   0.014
 4865WAT     H114837   7.764   1.954   0.067
 4865WAT     H214838   7.909   2.027   0.075
 4866WAT      O14839   2.878   7.944   3.445
 4866WAT     H114840   2.793   7.908   3.483
 4866WAT     H214841   2.951   7.934   3.512
 4867WAT      O14842   8.259   2.679   2.679
 4867WAT     H114843   8.178   2.668   2.621
 4867WAT     H214844   8.294   2.589   2.705
 4868WAT      O14845   9.292   6.735   3.527
 4868WAT     H114846   9.309   6.779   3.438
 4868WAT     H214847   9.377   6.695   3.561
 4869WAT      O14848   0.527   8.769   7.831
 4869WAT     H114849   0.574   8.809   7.752
 4869WAT     H214850   0.594   8.735   7.896
 4870WAT      O14851   2.565   8.224   7.390
 4870WAT     H114852   2.645   8.240   7.448
 4870WAT     H214853   2.481   8.234   7.444
 4871WAT      O14854   4.712   1.091   8.664
 4871WAT     H114855   4.650   1.055   8.594
 4871WAT     H214856   4.774   1.158   8.622
 4872WAT      O14857   2.124   3.416   6.488
 4872WAT     H114858   2.042   3.446   6.440
 4872WAT     H214859   2.136   3.318   6.475
 4873WAT      O14860   0.413   7.915   6.038
 4873WAT     H114861   0.317   7.898   6.018
 4873WAT     H214862   0.450   7.982   5.974
 4874WAT      O14863   1.789   9.818   2.355
 4874WAT     H114864   1.886   9.795   2.344
 4874WAT     H214865   1.763   9.888   2.289
 4875WAT      O14866   3.075   3.618   5.592
 4875WAT     H114867   3.166   3.638   5.629
 4875WAT     H214868   3.083   3.546   5.523
 4876WAT      O14869   9.763   2.844   6.748
 4876WAT     H114870   9.810   2.757   6.735
 4876WAT     H214871   9.698   2.858   6.674
 4877WAT      O14872   0.130   8.931   0.304
 4877WAT     H114873   0.065   8.970   0.370
 4877WAT     H214874   0.164   8.844   0.338
 4878WAT      O14875   4.219   7.030   4.383
 4878WAT     H114876   4.207   7.117   4.431
 4878WAT     H214877   4.174   7.035   4.294
 4879WAT      O14878   1.548   7.885   3.392
 4879WAT     H114879   1.491   7.913   3.469
 4879WAT     H214880   1.573   7.965   3.338
 4880WAT      O14881   7.634   3.593   2.085
 4880WAT     H114882   7.672   3.626   1.999
 4880WAT     H214883   7.688   3.516   2.118
 4881WAT      O14884   1.762   7.107   3.856
 4881WAT     H114885   1.681   7.165   3.848
 4881WAT     H214886   1.751   7.026   3.798
 4882WAT      O14887   1.337   0.729   9.866
 4882WAT     H114888   1.378   0.805   9.814
 4882WAT     H214889   1.329   0.755   9.962
 4883WAT      O14890   4.417   7.306   2.917
 4883WAT     H114891   4.345   7.243   2.890
 4883WAT     H214892   4.404   7.394   2.870
 4884WAT      O14893   4.577   8.309   9.723
 4884WAT     H114894   4.620   8.363   9.796
 4884WAT     H214895   4.511   8.246   9.763
 4885WAT      O14896   3.805   3.710   0.927
 4885WAT     H114897   3.726   3.649   0.933
 4885WAT     H214898   3.818   3.755   1.016
 4886WAT      O14899   2.432   6.768   2.950
 4886WAT     H114900   2.397   6.678   2.923
 4886WAT     H214901   2.356   6.833   2.956
 4887WAT      O14902   9.497   2.225   3.889
 4887WAT     H114903   9.495   2.187   3.981
 4887WAT     H214904   9.587   2.264   3.871
 4888WAT      O14905   5.386   4.083   3.492
 4888WAT     H114906   5.413   4.116   3.583
 4888WAT     H214907   5.345   4.158   3.441
 4889WAT      O14908   1.181   4.537   9.365
 4889WAT     H114909   1.260   4.558   9.423
 4889WAT     H214910   1.151   4.619   9.317
 4890WAT      O14911   9.506   3.486   0.987
 4890WAT     H114912   9.456   3.524   1.065
 4890WAT     H214913   9.442   3.439   0.926
 4891WAT      O14914   8.017   7.809   4.279
 4891WAT     H114915   8.096   7.810   4.218
 4891WAT     H214916   8.021   7.729   4.338
 4892WAT      O14917   8.632   5.589   8.632
 4892WAT     H114918   8.561   5.659   8.639
 4892WAT     H214919   8.589   5.501   8.609
 4893WAT      O14920   2.800   3.930   1.925
 4893WAT     H114921   2.831   3.855   1.983
 4893WAT     H214922   2.820   3.908   1.829
 4894WAT      O14923   3.276   6.451   3.252
 4894WAT     H114924   3.267   6.358   3.215
 4894WAT     H214925   3.186   6.493   3.262
 4895WAT      O14926   7.440   9.402   7.884
 4895WAT     H114927   7.413   9.369   7.974
 4895WAT     H214928   7.533   9.371   7.864
 4896WAT      O14929   0.905   1.551   7.892
 4896WAT     H114930   0.934   1.644   7.915
 4896WAT     H214931   0.939   1.526   7.802
 4897WAT      O14932   8.410   5.366   4.093
 4897WAT     H114933   8.387   5.269   4.101
 4897WAT     H214934   8.406   5.393   3.997
 4898WAT      O14935   8.841   1.590   6.298
 4898WAT     H114936   8.858   1.673   6.244
 4898WAT     H214937   8.762   1.542   6.261
 4899WAT      O14938   1.574   2.059   4.871
 4899WAT     H114939   1.615   2.022   4.788
 4899WAT     H214940   1.532   1.985   4.924
 4900WAT      O14941   5.726   3.767   4.323
 4900WAT     H114942   5.739   3.674   4.287
 4900WAT     H214943   5.641   3.805   4.288
 4901WAT      O14944   7.160   8.451   0.819
 4901WAT     H114945   7.177   8.399   0.903
 4901WAT     H214946   7.246   8.489   0.785
 4902WAT      O14947   1.802   3.486   4.213
 4902WAT     H114948   1.771   3.574   4.176
 4902WAT     H214949   1.775   3.479   4.309
 4903WAT      O14950   4.520   1.385   8.605
 4903WAT     H114951   4.600   1.376   8.665
 4903WAT     H214952   4.541   1.344   8.516
 4904WAT      O14953   6.959   1.912   8.220
 4904WAT     H114954   6.898   1.988   8.198
 4904WAT     H214955   7.051   1.931   8.183
 4905WAT      O14956   0.679   3.536   6.129
 4905WAT     H114957   0.701   3.614   6.069
 4905WAT     H214958   0.661   3.455   6.073
 4906WAT      O14959   6.173   1.486   2.424
 4906WAT     H114960   6.179   1.531   2.513
 4906WAT     H214961   6.181   1.387   2.436
 4907WAT      O14962   4.104   0.221   8.637
 4907WAT     H114963   4.010   0.231   8.669
 4907WAT     H214964   4.150   0.310   8.641
 4908WAT      O14965   8.842   0.108   0.413
 4908WAT     H114966   8.780   0.167   0.465
 4908WAT     H214967   8.860   0.024   0.465
 4909WAT      O14968   7.513   7.546   2.133
 4909WAT     H114969   7.490   7.580   2.224
 4909WAT     H214970   7.506   7.620   2.067
 4910WAT      O14971   8.303   4.216   1.044
 4910WAT     H114972   8.291   4.197   1.141
 4910WAT     H214973   8.395   4.191   1.016
 4911WAT      O14974   1.263   0.971   3.249
 4911WAT     H114975   1.289   0.895   3.190
 4911WAT     H214976   1.315   1.053   3.222
 4912WAT      O14977   9.801   8.722   2.662
 4912WAT     H114978   9.895   8.751   2.644
 4912WAT     H214979   9.802   8.637   2.714
 4913WAT      O14980   6.921   6.228   1.926
 4913WAT     H114981   6.838   6.173   1.934
 4913WAT     H214982   6.906   6.318   1.967
 4914WAT      O14983   3.014   9.844   5.095
 4914WAT     H114984   3.039   9.748   5.091
 4914WAT     H214985   3.070   9.896   5.030
 4915WAT      O14986   7.749   4.894   9.078
 4915WAT     H114987   7.739   4.964   9.008
 4915WAT     H214988   7.786   4.810   9.037
 4916WAT      O14989   9.710   6.520   2.262
 4916WAT     H114990   9.658   6.605   2.266
 4916WAT     H214991   9.794   6.535   2.209
 4917WAT      O14992   4.832   6.667   6.922
 4917WAT     H114993   4.865   6.761   6.911
 4917WAT     H214994   4.882   6.606   6.861
 4918WAT      O14995   3.958   0.901   7.182
 4918WAT     H114996   3.955   0.926   7.085
 4918WAT     H214997   3.972   0.984   7.237
 4919WAT      O14998   3.174   2.058   0.547
 4919WAT     H114999   3.183   2.069   0.646
 4919WAT     H215000   3.103   2.120   0.513
 4920WAT      O15001   3.708   0.209   5.088
 4920WAT     H115002   3.670   0.293   5.128
 4920WAT     H215003   3.805   0.222   5.070
 4921WAT      O15004   9.634   6.170   7.078
 4921WAT     H115005   9.652   6.142   7.172
 4921WAT     H215006   9.713   6.148   7.021
 4922WAT      O15007   9.234   9.463   4.142
 4922WAT     H115008   9.159   9.495   4.200
 4922WAT     H215009   9.311   9.435   4.199
 4923WAT      O15010   1.510   2.389   9.399
 4923WAT     H115011   1.464   2.384   9.311
 4923WAT     H215012   1.461   2.331   9.465
 4924WAT      O15013   6.740   0.458   9.430
 4924WAT     H115014   6.776   0.418   9.345
 4924WAT     H215015   6.648   0.423   9.447
 4925WAT      O15016   8.493   8.857   7.085
 4925WAT     H115017   8.569   8.823   7.141
 4925WAT     H215018   8.528   8.921   7.017
 4926WAT      O15019   7.776   5.665   3.033
 4926WAT     H115020   7.700   5.720   2.999
 4926WAT     H215021   7.817   5.710   3.113
 4927WAT      O15022   3.463   4.679   1.521
 4927WAT     H115023   3.526   4.689   1.445
 4927WAT     H215024   3.443   4.582   1.536
 4928WAT      O15025   1.375   8.407   1.035
 4928WAT     H115026   1.411   8.334   0.978
 4928WAT     H215027   1.339   8.369   1.120
 4929WAT      O15028   6.192   1.511   5.812
 4929WAT     H115029   6.194   1.521   5.911
 4929WAT     H215030   6.146   1.590   5.771
 4930WAT      O15031   7.570   3.452   0.436
 4930WAT     H115032   7.589   3.358   0.463
 4930WAT     H215033   7.579   3.461   0.337
 4931WAT      O15034   6.196   8.108   2.260
 4931WAT     H115035   6.241   8.090   2.347
 4931WAT     H215036   6.173   8.205   2.253
 4932WAT      O15037   8.434   0.726   4.168
 4932WAT     H115038   8.353   0.785   4.166
 4932WAT     H215039   8.516   0.782   4.181
 4933WAT      O15040   4.331   4.391   4.846
 4933WAT     H115041   4.404   4.413   4.782
 4933WAT     H215042   4.366   4.328   4.916
 4934WAT      O15043   8.378   4.485   5.317
 4934WAT     H115044   8.408   4.410   5.258
 4934WAT     H215045   8.307   4.451   5.379
 4935WAT      O15046   4.797   9.265   2.605
 4935WAT     H115047   4.804   9.289   2.508
 4935WAT     H215048   4.716   9.309   2.644
 4936WAT      O15049   9.815   7.927   8.933
 4936WAT     H115050   9.887   7.985   8.897
 4936WAT     H215051   9.744   7.984   8.974
 4937WAT      O15052   1.054   4.033   5.588
 4937WAT     H115053   1.097   3.946   5.564
 4937WAT     H215054   1.078   4.057   5.682
 4938WAT      O15055   0.598   0.032   1.760
 4938WAT     H115056   0.644   0.046   1.847
 4938WAT     H215057   0.614   0.111   1.700
 4939WAT      O15058   6.468   9.785   9.642
 4939WAT     H115059   6.458   9.686   9.651
 4939WAT     H215060   6.520   9.820   9.721
 4940WAT      O15061   9.120   9.485   9.760
 4940WAT     H115062   9.025   9.504   9.786
 4940WAT     H215063   9.179   9.556   9.799
 4941WAT      O15064   0.181   2.255   6.443
 4941WAT     H115065   0.236   2.320   6.495
 4941WAT     H215066   0.242   2.198   6.387
 4942WAT      O15067   1.458   6.668   4.940
 4942WAT     H115068   1.511   6.604   4.886
 4942WAT     H215069   1.435   6.628   5.028
 4943WAT      O15070   4.987   9.550   9.557
 4943WAT     H115071   4.894   9.531   9.525
 4943WAT     H215072   4.986   9.568   9.655
 4944WAT      O15073   4.311   7.666   1.043
 4944WAT     H115074   4.357   7.617   1.117
 4944WAT     H215075   4.249   7.735   1.080
 4945WAT      O15076   3.404   0.291   1.552
 4945WAT     H115077   3.393   0.297   1.651
 4945WAT     H215078   3.416   0.195   1.525
 4946WAT      O15079   1.130   2.414   8.653
 4946WAT     H115080   1.162   2.466   8.732
 4946WAT     H215081   1.030   2.411   8.653
 4947WAT      O15082   4.611   3.312   9.054
 4947WAT     H115083   4.529   3.267   9.091
 4947WAT     H215084   4.659   3.248   8.994
 4948WAT      O15085   5.107   2.929   2.640
 4948WAT     H115086   5.052   2.943   2.722
 4948WAT     H215087   5.116   2.830   2.623
 4949WAT      O15088   8.001   9.677   4.679
 4949WAT     H115089   7.918   9.700   4.730
 4949WAT     H215090   8.048   9.761   4.651
 4950WAT      O15091   6.364   5.792   0.614
 4950WAT     H115092   6.308   5.829   0.688
 4950WAT     H215093   6.307   5.737   0.553
 4951WAT      O15094   9.412   0.562   3.703
 4951WAT     H115095   9.386   0.575   3.607
 4951WAT     H215096   9.474   0.485   3.710
 4952WAT      O15097   7.022   6.995   5.384
 4952WAT     H115098   7.085   7.027   5.454
 4952WAT     H215099   6.948   7.061   5.373
 4953WAT      O15100   5.975   1.416   7.470
 4953WAT     H115101   5.886   1.443   7.504
 4953WAT     H215102   6.040   1.491   7.481
 4954WAT      O15103   7.757   3.056   5.672
 4954WAT     H115104   7.856   3.044   5.670
 4954WAT     H215105   7.713   2.979   5.625
 4955WAT      O15106   7.792   9.354   8.049
 4955WAT     H115107   7.769   9.259   8.067
 4955WAT     H215108   7.822   9.398   8.134
 4956WAT      O15109   5.889   9.079   8.615
 4956WAT     H115110   5.814   9.043   8.672
 4956WAT     H215111   5.931   9.004   8.565
 4957WAT      O15112   7.261   2.085   6.093
 4957WAT     H115113   7.248   2.068   5.995
 4957WAT     H215114   7.333   2.025   6.128
 4958WAT      O15115   5.088   9.282   5.504
 4958WAT     H115116   5.063   9.274   5.408
 4958WAT     H215117   5.112   9.377   5.524
 4959WAT      O15118   6.402   0.266   3.979
 4959WAT     H115119   6.360   0.195   3.923
 4959WAT     H215120   6.392   0.355   3.935
 4960WAT      O15121   0.410   1.427   9.269
 4960WAT     H115122   0.461   1.499   9.223
 4960WAT     H215123   0.442   1.338   9.236
 4961WAT      O15124   2.396   8.247   4.048
 4961WAT     H115125   2.330   8.192   3.998
 4961WAT     H215126   2.428   8.322   3.989
 4962WAT      O15127   1.897   6.269   1.315
 4962WAT     H115128   1.938   6.252   1.226
 4962WAT     H215129   1.858   6.184   1.351
 4963WAT      O15130   1.242   3.811   1.767
 4963WAT     H115131   1.231   3.735   1.832
 4963WAT     H215132   1.274   3.892   1.817
 4964WAT      O15133   3.693   7.008   0.944
 4964WAT     H115134   3.724   6.952   0.867
 4964WAT     H215135   3.697   7.105   0.918
 4965WAT      O15136   7.009   7.665   5.933
 4965WAT     H115137   7.097   7.698   5.898
 4965WAT     H215138   7.019   7.570   5.964
 4966WAT      O15139   1.332   8.689   0.877
 4966WAT     H115140   1.268   8.763   0.898
 4966WAT     H215141   1.329   8.621   0.950
 4967WAT      O15142   3.724   3.144   7.297
 4967WAT     H115143   3.775   3.216   7.250
 4967WAT     H215144   3.635   3.132   7.254
 4968WAT      O15145   4.898   7.289   4.098
 4968WAT     H115146   4.947   7.243   4.172
 4968WAT     H215147   4.839   7.223   4.051
 4969WAT      O15148   2.604   1.825   7.431
 4969WAT     H115149   2.577   1.730   7.414
 4969WAT     H215150   2.649   1.831   7.520
 4970WAT      O15151   3.605   6.706   5.087
 4970WAT     H115152   3.646   6.738   5.002
 4970WAT     H215153   3.533   6.640   5.066
 4971WAT      O15154   2.006   3.900   3.750
 4971WAT     H115155   2.000   4.000   3.755
 4971WAT     H215156   2.005   3.862   3.843
 4972WAT      O15157   1.595   3.371   9.561
 4972WAT     H115158   1.635   3.335   9.477
 4972WAT     H215159   1.643   3.333   9.640
 4973WAT      O15160   3.474   1.681   3.958
 4973WAT     H115161   3.387   1.730   3.957
 4973WAT     H215162   3.478   1.623   4.040
 4974WAT      O15163   9.533   8.082   4.886
 4974WAT     H115164   9.616   8.043   4.846
 4974WAT     H215165   9.535   8.072   4.985
 4975WAT      O15166   7.283   5.241   2.422
 4975WAT     H115167   7.221   5.231   2.499
 4975WAT     H215168   7.377   5.229   2.453
 4976WAT      O15169   6.161   7.047   1.958
 4976WAT     H115170   6.175   6.992   2.041
 4976WAT     H215171   6.248   7.088   1.930
 4977WAT      O15172   5.454   3.185   4.500
 4977WAT     H115173   5.528   3.150   4.443
 4977WAT     H215174   5.487   3.199   4.593
 4978WAT      O15175   2.921   6.841   1.589
 4978WAT     H115176   2.876   6.842   1.678
 4978WAT     H215177   3.020   6.846   1.602
 4979WAT      O15178   5.820   5.424   7.709
 4979WAT     H115179   5.903   5.399   7.759
 4979WAT     H215180   5.751   5.353   7.722
 4980WAT      O15181   1.294   3.171   3.046
 4980WAT     H115182   1.318   3.264   3.019
 4980WAT     H215183   1.342   3.147   3.130
 4981WAT      O15184   3.725   7.173   0.309
 4981WAT     H115185   3.647   7.129   0.353
 4981WAT     H215186   3.712   7.272   0.309
 4982WAT      O15187   6.611   1.103   0.910
 4982WAT     H115188   6.627   1.156   0.993
 4982WAT     H215189   6.531   1.044   0.923
 4983WAT      O15190   2.513   9.003   6.401
 4983WAT     H115191   2.572   9.004   6.321
 4983WAT     H215192   2.558   8.954   6.476
 4984WAT      O15193   4.044   3.319   2.862
 4984WAT     H115194   4.127   3.368   2.835
 4984WAT     H215195   4.018   3.254   2.790
 4985WAT      O15196   4.553   9.338   4.497
 4985WAT     H115197   4.536   9.350   4.400
 4985WAT     H215198   4.638   9.285   4.510
 4986WAT      O15199   3.886   1.783   4.316
 4986WAT     H115200   3.984   1.800   4.300
 4986WAT     H215201   3.877   1.716   4.391
 4987WAT      O15202   6.817   6.950   4.479
 4987WAT     H115203   6.805   7.049   4.471
 4987WAT     H215204   6.834   6.927   4.575
 4988WAT      O15205   4.853   9.557   8.682
 4988WAT     H115206   4.879   9.490   8.751
 4988WAT     H215207   4.833   9.645   8.726
 4989WAT      O15208   4.666   1.654   8.991
 4989WAT     H115209   4.745   1.611   8.947
 4989WAT     H215210   4.643   1.739   8.943
 4990WAT      O15211   2.144   9.474   4.076
 4990WAT     H115212   2.177   9.399   4.019
 4990WAT     H215213   2.058   9.448   4.120
 4991WAT      O15214   4.768   3.068   5.804
 4991WAT     H115215   4.760   3.135   5.730
 4991WAT     H215216   4.862   3.065   5.837
 4992WAT      O15217   5.743   0.357   3.241
 4992WAT     H115218   5.743   0.360   3.341
 4992WAT     H215219   5.655   0.392   3.207
 4993WAT      O15220   7.816   9.006   6.701
 4993WAT     H115221   7.814   9.085   6.640
 4993WAT     H215222   7.750   8.938   6.671
 4994WAT      O15223   7.450   5.356   4.749
 4994WAT     H115224   7.478   5.381   4.842
 4994WAT     H215225   7.486   5.423   4.684
 4995WAT      O15226   5.185   2.864   1.522
 4995WAT     H115227   5.089   2.885   1.500
 4995WAT     H215228   5.224   2.941   1.573
 4996WAT      O15229   7.178   3.678   7.793
 4996WAT     H115230   7.103   3.684   7.859
 4996WAT     H215231   7.234   3.598   7.814
 4997WAT      O15232   5.269   2.631   6.317
 4997WAT     H115233   5.326   2.707   6.284
 4997WAT     H215234   5.222   2.588   6.240
 4998WAT      O15235   8.621   7.391   2.323
 4998WAT     H115236   8.547   7.326   2.334
 4998WAT     H215237   8.649   7.394   2.227
 4999WAT      O15238   9.650   1.399   8.821
 4999WAT     H115239   9.551   1.405   8.833
 4999WAT     H215240   9.685   1.321   8.873
 5000WAT      O15241   2.972   0.104   1.529
 5000WAT     H115242   3.040   0.165   1.488
 5000WAT     H215243   3.014   0.055   1.606
 5001WAT      O15244   8.093   6.026   3.084
 5001WAT     H115245   8.188   6.001   3.106
 5001WAT     H215246   8.031   5.965   3.134
 5002WAT      O15247   4.855   1.039   9.313
 5002WAT     H115248   4.819   0.977   9.243
 5002WAT     H215249   4.780   1.089   9.355
 5003WAT      O15250   3.857   1.232   1.154
 5003WAT     H115251   3.805   1.172   1.093
 5003WAT     H215252   3.807   1.318   1.166
 5004WAT      O15253   2.646   9.355   9.503
 5004WAT     H115254   2.690   9.410   9.431
 5004WAT     H215255   2.580   9.411   9.553
 5005WAT      O15256   1.374   0.242   9.830
 5005WAT     H115257   1.352   0.302   9.907
 5005WAT     H215258   1.291   0.225   9.777
 5006WAT      O15259   3.252   1.388   8.993
 5006WAT     H115260   3.241   1.347   8.903
 5006WAT     H215261   3.291   1.320   9.056
 5007WAT      O15262   3.964   9.766   3.926
 5007WAT     H115263   3.974   9.777   3.827
 5007WAT     H215264   3.932   9.851   3.967
 5008WAT      O15265   9.389   1.012   9.396
 5008WAT     H115266   9.380   1.054   9.486
 5008WAT     H215267   9.452   0.935   9.400
 5009WAT      O15268   1.626   9.104   5.365
 5009WAT     H115269   1.578   9.031   5.315
 5009WAT     H215270   1.587   9.192   5.339
 5010WAT      O15271   1.485   5.474   8.631
 5010WAT     H115272   1.477   5.394   8.691
 5010WAT     H215273   1.394   5.499   8.597
 5011WAT      O15274   7.889   3.127   5.293
 5011WAT     H115275   7.968   3.180   5.263
 5011WAT     H215276   7.918   3.035   5.319
 5012WAT      O15277   6.312   4.763   7.366
 5012WAT     H115278   6.344   4.854   7.390
 5012WAT     H215279   6.386   4.697   7.377
 5013WAT      O15280   7.170   4.972   8.758
 5013WAT     H115281   7.109   5.020   8.695
 5013WAT     H215282   7.170   5.019   8.846
 5014WAT      O15283   5.093   2.656   3.698
 5014WAT     H115284   5.070   2.593   3.623
 5014WAT     H215285   5.161   2.722   3.665
 5015WAT      O15286   7.913   2.346   9.178
 5015WAT     H115287   7.878   2.434   9.208
 5015WAT     H215288   8.007   2.355   9.148
 5016WAT      O15289   1.481   9.273   9.344
 5016WAT     H115290   1.581   9.265   9.344
 5016WAT     H215291   1.455   9.359   9.386
 5017WAT      O15292   8.649   7.723   4.817
 5017WAT     H115293   8.698   7.638   4.802
 5017WAT     H215294   8.604   7.751   4.733
 5018WAT      O15295   5.785   0.959   1.403
 5018WAT     H115296   5.807   0.862   1.413
 5018WAT     H215297   5.859   1.005   1.354
 5019WAT      O15298   3.815   3.793   1.183
 5019WAT     H115299   3.792   3.728   1.255
 5019WAT     H215300   3.818   3.886   1.222
 5020WAT      O15301   5.325   8.077   3.712
 5020WAT     H115302   5.248   8.031   3.667
 5020WAT     H215303   5.411   8.034   3.683
 5021WAT      O15304   9.105   3.992   7.128
 5021WAT     H115305   9.038   3.946   7.186
 5021WAT     H215306   9.168   3.924   7.090
 5022WAT      O15307   7.891   2.998   3.689
 5022WAT     H115308   7.950   2.944   3.749
 5022WAT     H215309   7.932   3.088   3.674
 5023WAT      O15310   7.877   1.562   6.600
 5023WAT     H115311   7.922   1.651   6.590
 5023WAT     H215312   7.916   1.498   6.534
 5024WAT      O15313   1.917   8.994   3.758
 5024WAT     H115314   2.008   8.952   3.756
 5024WAT     H215315   1.908   9.051   3.839
 5025WAT      O15316   2.063   0.215   6.025
 5025WAT     H115317   2.045   0.231   6.122
 5025WAT     H215318   1.997   0.265   5.970
 5026WAT      O15319   4.662   7.434   5.640
 5026WAT     H115320   4.745   7.485   5.661
 5026WAT     H215321   4.663   7.407   5.544
 5027WAT      O15322   1.054   1.873   3.384
 5027WAT     H115323   1.072   1.972   3.383
 5027WAT     H215324   1.115   1.828   3.319
 5028WAT      O15325   3.628   9.569   8.620
 5028WAT     H115326   3.606   9.665   8.606
 5028WAT     H215327   3.651   9.527   8.532
 5029WAT      O15328   2.141   7.007   7.430
 5029WAT     H115329   2.173   6.966   7.516
 5029WAT     H215330   2.187   6.963   7.353
 5030WAT      O15331   4.285   2.294   2.685
 5030WAT     H115332   4.368   2.317   2.634
 5030WAT     H215333   4.231   2.228   2.633
 5031WAT      O15334   4.524   1.857   8.863
 5031WAT     H115335   4.583   1.931   8.894
 5031WAT     H215336   4.557   1.821   8.776
 5032WAT      O15337   4.198   1.343   2.489
 5032WAT     H115338   4.140   1.264   2.467
 5032WAT     H215339   4.177   1.375   2.581
 5033WAT      O15340   4.697   5.525   6.874
 5033WAT     H115341   4.770   5.576   6.919
 5033WAT     H215342   4.654   5.463   6.939
 5034WAT      O15343   0.266   2.347   4.623
 5034WAT     H115344   0.329   2.423   4.607
 5034WAT     H215345   0.175   2.383   4.643
 5035WAT      O15346   9.156   8.750   4.602
 5035WAT     H115347   9.087   8.731   4.532
 5035WAT     H215348   9.247   8.748   4.560
 5036WAT      O15349   1.658   6.345   5.820
 5036WAT     H115350   1.607   6.390   5.894
 5036WAT     H215351   1.709   6.267   5.858
 5037WAT      O15352   2.478   1.679   7.679
 5037WAT     H115353   2.380   1.665   7.668
 5037WAT     H215354   2.527   1.600   7.643
 5038WAT      O15355   0.597   0.166   2.654
 5038WAT     H115356   0.612   0.246   2.595
 5038WAT     H215357   0.595   0.195   2.750
 5039WAT      O15358   5.674   9.616   8.071
 5039WAT     H115359   5.741   9.572   8.012
 5039WAT     H215360   5.631   9.548   8.130
 5040WAT      O15361   1.261   0.503   0.576
 5040WAT     H115362   1.171   0.537   0.550
 5040WAT     H215363   1.321   0.580   0.596
 5041WAT      O15364   0.634   2.859   8.480
 5041WAT     H115365   0.685   2.810   8.551
 5041WAT     H215366   0.618   2.798   8.402
 5042WAT      O15367   4.497   5.657   1.456
 5042WAT     H115368   4.547   5.722   1.512
 5042WAT     H215369   4.399   5.667   1.472
 5043WAT      O15370   2.831   1.561   2.103
 5043WAT     H115371   2.786   1.641   2.063
 5043WAT     H215372   2.782   1.531   2.184
 5044WAT      O15373   2.724   1.043   5.864
 5044WAT     H115374   2.672   1.128   5.870
 5044WAT     H215375   2.663   0.967   5.843
 5045WAT      O15376   8.368   2.219   4.088
 5045WAT     H115377   8.467   2.213   4.100
 5045WAT     H215378   8.341   2.171   4.004
 5046WAT      O15379   1.167   7.475   2.143
 5046WAT     H115380   1.182   7.437   2.234
 5046WAT     H215381   1.252   7.473   2.091
 5047WAT      O15382   6.614   5.196   0.801
 5047WAT     H115383   6.595   5.294   0.793
 5047WAT     H215384   6.658   5.178   0.889
 5048WAT      O15385   7.167   3.130   5.232
 5048WAT     H115386   7.227   3.205   5.261
 5048WAT     H215387   7.102   3.163   5.164
 5049WAT      O15388   7.423   1.438   6.069
 5049WAT     H115389   7.396   1.419   6.163
 5049WAT     H215390   7.518   1.411   6.055
 5050WAT      O15391   2.157   4.506   1.394
 5050WAT     H115392   2.108   4.516   1.480
 5050WAT     H215393   2.133   4.581   1.333
 5051WAT      O15394   4.006   8.213   0.103
 5051WAT     H115395   4.030   8.237   0.197
 5051WAT     H215396   3.920   8.257   0.079
 5052WAT      O15397   7.948   1.583   0.985
 5052WAT     H115398   7.925   1.517   1.057
 5052WAT     H215399   7.984   1.534   0.906
 5053WAT      O15400   7.379   4.137   5.025
 5053WAT     H115401   7.473   4.162   5.049
 5053WAT     H215402   7.360   4.165   4.931
 5054WAT      O15403   6.460   8.025   7.395
 5054WAT     H115404   6.379   8.006   7.340
 5054WAT     H215405   6.531   7.957   7.376
 5055WAT      O15406   7.483   1.941   4.524
 5055WAT     H115407   7.420   1.864   4.533
 5055WAT     H215408   7.504   1.955   4.427
 5056WAT      O15409   9.361   1.029   0.208
 5056WAT     H115410   9.419   0.965   0.258
 5056WAT     H215411   9.277   1.045   0.260
 5057WAT      O15412   5.404   2.415   8.926
 5057WAT     H115413   5.315   2.427   8.881
 5057WAT     H215414   5.477   2.437   8.861
 5058WAT      O15415   5.706   1.617   3.219
 5058WAT     H115416   5.689   1.609   3.121
 5058WAT     H215417   5.644   1.555   3.269
 5059WAT      O15418   3.086   3.187   3.350
 5059WAT     H115419   3.085   3.106   3.410
 5059WAT     H215420   3.041   3.263   3.397
 5060WAT      O15421   5.402   2.819   0.779
 5060WAT     H115422   5.411   2.829   0.680
 5060WAT     H215423   5.419   2.908   0.823
 5061WAT      O15424   0.422   5.419   7.138
 5061WAT     H115425   0.446   5.339   7.192
 5061WAT     H215426   0.360   5.393   7.065
 5062WAT      O15427   5.954   4.362   5.451
 5062WAT     H115428   6.012   4.403   5.522
 5062WAT     H215429   6.010   4.306   5.390
 5063WAT      O15430   9.001   0.676   5.395
 5063WAT     H115431   9.018   0.681   5.494
 5063WAT     H215432   8.950   0.592   5.374
 5064WAT      O15433   5.784   8.199   4.438
 5064WAT     H115434   5.791   8.213   4.537
 5064WAT     H215435   5.713   8.258   4.401
 5065WAT      O15436   8.015   4.040   4.729
 5065WAT     H115437   8.038   4.131   4.695
 5065WAT     H215438   8.081   3.974   4.694
 5066WAT      O15439   9.710   4.199   5.804
 5066WAT     H115440   9.630   4.244   5.842
 5066WAT     H215441   9.787   4.263   5.800
 5067WAT      O15442   1.938   1.330   3.838
 5067WAT     H115443   1.870   1.360   3.772
 5067WAT     H215444   1.925   1.233   3.858
 5068WAT      O15445   3.491   7.099   4.654
 5068WAT     H115446   3.460   7.193   4.669
 5068WAT     H215447   3.562   7.076   4.720
 5069WAT      O15448   3.480   6.635   5.522
 5069WAT     H115449   3.441   6.690   5.595
 5069WAT     H215450   3.537   6.693   5.463
 5070WAT      O15451   6.102   6.542   0.969
 5070WAT     H115452   6.078   6.462   0.914
 5070WAT     H215453   6.048   6.542   1.053
 5071WAT      O15454   7.679   9.200   8.773
 5071WAT     H115455   7.625   9.115   8.767
 5071WAT     H215456   7.617   9.277   8.792
 5072WAT      O15457   7.838   3.421   3.494
 5072WAT     H115458   7.747   3.380   3.502
 5072WAT     H215459   7.863   3.429   3.397
 5073WAT      O15460   6.243   8.529   3.748
 5073WAT     H115461   6.284   8.450   3.702
 5073WAT     H215462   6.202   8.589   3.681
 5074WAT      O15463   1.731   0.396   2.625
 5074WAT     H115464   1.718   0.383   2.723
 5074WAT     H215465   1.680   0.327   2.575
 5075WAT      O15466   0.696   5.413   5.328
 5075WAT     H115467   0.651   5.349   5.266
 5075WAT     H215468   0.756   5.363   5.391
 5076WAT      O15469   8.461   2.275   8.891
 5076WAT     H115470   8.503   2.215   8.959
 5076WAT     H215471   8.395   2.222   8.838
 5077WAT      O15472   0.708   5.017   9.890
 5077WAT     H115473   0.800   5.024   9.928
 5077WAT     H215474   0.687   4.922   9.870
 5078WAT      O15475   3.973   3.113   1.521
 5078WAT     H115476   3.940   3.205   1.542
 5078WAT     H215477   3.963   3.095   1.423
 5079WAT      O15478   4.464   5.636   8.267
 5079WAT     H115479   4.528   5.620   8.191
 5079WAT     H215480   4.389   5.569   8.262
 5080WAT      O15481   7.641   9.251   8.422
 5080WAT     H115482   7.688   9.164   8.436
 5080WAT     H215483   7.563   9.238   8.361
 5081WAT      O15484   9.628   6.751   8.492
 5081WAT     H115485   9.555   6.686   8.471
 5081WAT     H215486   9.717   6.708   8.474
 5082WAT      O15487   1.383   3.401   1.225
 5082WAT     H115488   1.332   3.332   1.174
 5082WAT     H215489   1.385   3.376   1.321
 5083WAT      O15490   6.295   4.863   9.323
 5083WAT     H115491   6.230   4.921   9.373
 5083WAT     H215492   6.379   4.915   9.306
 5084WAT      O15493   7.278   1.602   7.175
 5084WAT     H115494   7.368   1.614   7.134
 5084WAT     H215495   7.287   1.574   7.270
 5085WAT      O15496   1.762   0.965   5.556
 5085WAT     H115497   1.708   1.012   5.626
 5085WAT     H215498   1.704   0.896   5.511
 5086WAT      O15499   8.296   8.589   5.265
 5086WAT     H115500   8.388   8.549   5.275
 5086WAT     H215501   8.274   8.597   5.168
 5087WAT      O15502   0.819   5.792   4.071
 5087WAT     H115503   0.730   5.837   4.068
 5087WAT     H215504   0.866   5.817   4.156
 5088WAT      O15505   8.207   4.350   7.531
 5088WAT     H115506   8.118   4.308   7.546
 5088WAT     H215507   8.224   4.358   7.433
 5089WAT      O15508   1.563   4.930   4.520
 5089WAT     H115509   1.607   5.019   4.507
 5089WAT     H215510   1.465   4.943   4.531
 5090WAT      O15511   7.228   2.853   0.996
 5090WAT     H115512   7.311   2.869   1.049
 5090WAT     H215513   7.187   2.941   0.970
 5091WAT      O15514   9.060   5.806   0.249
 5091WAT     H115515   9.060   5.895   0.203
 5091WAT     H215516   9.002   5.811   0.331
 5092WAT      O15517   0.976   0.203   6.122
 5092WAT     H115518   1.073   0.209   6.146
 5092WAT     H215519   0.966   0.170   6.029
 5093WAT      O15520   0.207   0.723   0.426
 5093WAT     H115521   0.160   0.656   0.484
 5093WAT     H215522   0.150   0.743   0.346
 5094WAT      O15523   2.759   1.097   7.002
 5094WAT     H115524   2.783   1.193   6.985
 5094WAT     H215525   2.833   1.038   6.969
 5095WAT      O15526   0.983   3.027   7.787
 5095WAT     H115527   1.026   2.950   7.740
 5095WAT     H215528   1.021   3.113   7.751
 5096WAT      O15529   0.441   2.323   2.665
 5096WAT     H115530   0.475   2.417   2.677
 5096WAT     H215531   0.512   2.267   2.621
 5097WAT      O15532   4.907   4.614   9.890
 5097WAT     H115533   4.947   4.539   9.942
 5097WAT     H215534   4.808   4.598   9.880
 5098WAT      O15535   1.863   0.503   8.991
 5098WAT     H115536   1.958   0.508   8.962
 5098WAT     H215537   1.807   0.468   8.916
 5099WAT      O15538   3.858   9.717   1.917
 5099WAT     H115539   3.839   9.701   1.820
 5099WAT     H215540   3.824   9.641   1.971
 5100WAT      O15541   0.217   4.325   3.364
 5100WAT     H115542   0.315   4.310   3.353
 5100WAT     H215543   0.168   4.274   3.292
 5101WAT      O15544   2.451   8.063   9.131
 5101WAT     H115545   2.464   8.077   9.033
 5101WAT     H215546   2.502   7.982   9.161
 5102WAT      O15547   5.441   9.693   4.273
 5102WAT     H115548   5.494   9.777   4.279
 5102WAT     H215549   5.346   9.711   4.301
 5103WAT      O15550   2.885   0.015   9.054
 5103WAT     H115551   2.923   0.097   9.096
 5103WAT     H215552   2.951  -0.024   8.989
 5104WAT      O15553   9.131   4.464   8.420
 5104WAT     H115554   9.191   4.485   8.342
 5104WAT     H215555   9.146   4.370   8.450
 5105WAT      O15556   4.139   4.384   6.644
 5105WAT     H115557   4.119   4.472   6.601
 5105WAT     H215558   4.238   4.373   6.654
 5106WAT      O15559   8.614   5.090   7.381
 5106WAT     H115560   8.585   5.136   7.297
 5106WAT     H215561   8.647   4.998   7.359
 5107WAT      O15562   4.980   3.688   5.102
 5107WAT     H115563   4.972   3.610   5.039
 5107WAT     H215564   4.914   3.758   5.076
 5108WAT      O15565   7.031   1.909   9.203
 5108WAT     H115566   7.012   1.889   9.107
 5108WAT     H215567   7.014   2.006   9.221
 5109WAT      O15568   2.379   6.373   2.462
 5109WAT     H115569   2.377   6.307   2.537
 5109WAT     H215570   2.472   6.378   2.424
 5110WAT      O15571   1.694   2.104   6.479
 5110WAT     H115572   1.664   2.147   6.394
 5110WAT     H215573   1.701   2.005   6.467
 5111WAT      O15574   2.102   5.777   8.231
 5111WAT     H115575   2.117   5.864   8.278
 5111WAT     H215576   2.153   5.777   8.145
 5112WAT      O15577   6.214   8.417   4.994
 5112WAT     H115578   6.142   8.483   5.014
 5112WAT     H215579   6.245   8.428   4.900
 5113WAT      O15580   6.550   1.529   6.881
 5113WAT     H115581   6.644   1.518   6.914
 5113WAT     H215582   6.550   1.534   6.781
 5114WAT      O15583   1.871   9.739   5.440
 5114WAT     H115584   1.803   9.764   5.371
 5114WAT     H215585   1.900   9.821   5.490
 5115WAT      O15586   4.775   7.770   4.827
 5115WAT     H115587   4.817   7.838   4.767
 5115WAT     H215588   4.710   7.815   4.887
 5116WAT      O15589   7.528   3.556   0.692
 5116WAT     H115590   7.578   3.495   0.754
 5116WAT     H215591   7.542   3.527   0.598
 5117WAT      O15592   1.105   5.763   7.656
 5117WAT     H115593   1.087   5.738   7.751
 5117WAT     H215594   1.023   5.805   7.616
 5118WAT      O15595   1.994   6.971   0.603
 5118WAT     H115596   2.071   6.992   0.663
 5118WAT     H215597   1.964   7.055   0.557
 5119WAT      O15598   8.149   0.362   7.568
 5119WAT     H115599   8.228   0.355   7.507
 5119WAT     H215600   8.066   0.335   7.520
 5120WAT      O15601   5.889   3.280   3.801
 5120WAT     H115602   5.905   3.357   3.740
 5120WAT     H215603   5.876   3.196   3.748
 5121WAT      O15604   7.508   2.637   6.816
 5121WAT     H115605   7.472   2.706   6.754
 5121WAT     H215606   7.444   2.560   6.820
 5122WAT      O15607   8.746   0.757   6.630
 5122WAT     H115608   8.655   0.797   6.621
 5122WAT     H215609   8.814   0.830   6.632
 5123WAT      O15610   7.847   1.977   4.566
 5123WAT     H115611   7.833   2.039   4.488
 5123WAT     H215612   7.944   1.971   4.586
 5124WAT      O15613   9.828   1.822   3.221
 5124WAT     H115614   9.777   1.799   3.138
 5124WAT     H215615   9.766   1.862   3.288
 5125WAT      O15616   3.832   4.127   9.412
 5125WAT     H115617   3.907   4.155   9.352
 5125WAT     H215618   3.752   4.185   9.395
 5126WAT      O15619   6.614   9.688   2.220
 5126WAT     H115620   6.674   9.652   2.292
 5126WAT     H215621   6.611   9.623   2.144
 5127WAT      O15622   9.505   3.343   8.389
 5127WAT     H115623   9.477   3.303   8.477
 5127WAT     H215624   9.572   3.284   8.346
 5128WAT      O15625   1.982   7.224   0.453
 5128WAT     H115626   1.904   7.263   0.403
 5128WAT     H215627   2.060   7.213   0.391
 5129WAT      O15628   5.312   5.352   0.472
 5129WAT     H115629   5.248   5.421   0.437
 5129WAT     H215630   5.396   5.355   0.418
 5130WAT      O15631   5.539   8.359   1.043
 5130WAT     H115632   5.519   8.277   0.990
 5130WAT     H215633   5.639   8.372   1.048
 5131WAT      O15634   5.818   3.553   5.698
 5131WAT     H115635   5.868   3.533   5.614
 5131WAT     H215636   5.874   3.525   5.777
 5132WAT      O15637   5.269   2.142   8.816
 5132WAT     H115638   5.219   2.123   8.732
 5132WAT     H215639   5.262   2.239   8.839
 5133WAT      O15640   8.445   9.081   3.394
 5133WAT     H115641   8.417   9.126   3.479
 5133WAT     H215642   8.395   8.995   3.384
 5134WAT      O15643   6.300   1.223   2.853
 5134WAT     H115644   6.317   1.321   2.843
 5134WAT     H215645   6.335   1.192   2.942
 5135WAT      O15646   4.216   5.954   3.431
 5135WAT     H115647   4.250   5.863   3.456
 5135WAT     H215648   4.291   6.008   3.393
 5136WAT      O15649   9.601   6.146   3.462
 5136WAT     H115650   9.607   6.113   3.556
 5136WAT     H215651   9.529   6.095   3.414
 5137WAT      O15652   1.920   3.428   9.606
 5137WAT     H115653   1.912   3.340   9.653
 5137WAT     H215654   1.898   3.416   9.509
 5138WAT      O15655   0.305   7.844   2.628
 5138WAT     H115656   0.383   7.794   2.588
 5138WAT     H215657   0.312   7.941   2.602
 5139WAT      O15658   2.309   9.616   7.652
 5139WAT     H115659   2.310   9.551   7.576
 5139WAT     H215660   2.287   9.567   7.737
 5140WAT      O15661   7.885   1.665   8.933
 5140WAT     H115662   7.922   1.723   8.860
 5140WAT     H215663   7.861   1.575   8.896
 5141WAT      O15664   2.355   3.870   4.250
 5141WAT     H115665   2.398   3.816   4.178
 5141WAT     H215666   2.423   3.930   4.292
 5142WAT      O15667   6.211   9.352   6.228
 5142WAT     H115668   6.198   9.317   6.321
 5142WAT     H215669   6.257   9.441   6.231
 5143WAT      O15670   1.178   6.601   6.605
 5143WAT     H115671   1.262   6.550   6.586
 5143WAT     H215672   1.099   6.541   6.594
 5144WAT      O15673   1.206   9.527   6.314
 5144WAT     H115674   1.129   9.591   6.326
 5144WAT     H215675   1.195   9.477   6.228
 5145WAT      O15676   8.218   1.736   0.249
 5145WAT     H115677   8.140   1.751   0.311
 5145WAT     H215678   8.298   1.783   0.285
 5146WAT      O15679   4.193   0.717   7.284
 5146WAT     H115680   4.116   0.764   7.242
 5146WAT     H215681   4.223   0.767   7.365
 5147WAT      O15682   7.492   3.947   7.488
 5147WAT     H115683   7.434   3.883   7.537
 5147WAT     H215684   7.561   3.985   7.550
 5148WAT      O15685   8.689   8.161   5.082
 5148WAT     H115686   8.659   8.074   5.043
 5148WAT     H215687   8.630   8.184   5.159
 5149WAT      O15688   1.751   2.288   1.339
 5149WAT     H115689   1.800   2.268   1.254
 5149WAT     H215690   1.816   2.318   1.408
 5150WAT      O15691   1.015   4.401   9.192
 5150WAT     H115692   1.072   4.448   9.259
 5150WAT     H215693   0.980   4.316   9.233
 5151WAT      O15694   0.334   6.048   6.041
 5151WAT     H115695   0.362   6.014   6.130
 5151WAT     H215696   0.258   5.993   6.006
 5152WAT      O15697   3.903   3.890   5.051
 5152WAT     H115698   3.825   3.951   5.044
 5152WAT     H215699   3.916   3.862   5.146
 5153WAT      O15700   7.000   1.825   4.650
 5153WAT     H115701   6.975   1.728   4.652
 5153WAT     H215702   7.075   1.842   4.713
 5154WAT      O15703   6.237   0.242   1.295
 5154WAT     H115704   6.307   0.242   1.366
 5154WAT     H215705   6.263   0.307   1.223
 5155WAT      O15706   7.554   1.710   7.461
 5155WAT     H115707   7.634   1.668   7.417
 5155WAT     H215708   7.477   1.648   7.457
 5156WAT      O15709   0.755   4.589   0.697
 5156WAT     H115710   0.810   4.608   0.778
 5156WAT     H215711   0.809   4.606   0.615
 5157WAT      O15712   6.780   4.559   7.199
 5157WAT     H115713   6.776   4.461   7.177
 5157WAT     H215714   6.824   4.608   7.124
 5158WAT      O15715   8.109   4.509   5.061
 5158WAT     H115716   8.190   4.453   5.044
 5158WAT     H215717   8.128   4.604   5.034
 5159WAT      O15718   6.216   6.457   2.678
 5159WAT     H115719   6.299   6.501   2.645
 5159WAT     H215720   6.212   6.464   2.778
 5160WAT      O15721   3.643   0.225   6.175
 5160WAT     H115722   3.658   0.324   6.180
 5160WAT     H215723   3.560   0.206   6.123
 5161WAT      O15724   5.533   2.037   3.049
 5161WAT     H115725   5.493   1.976   2.981
 5161WAT     H215726   5.476   2.040   3.131
 5162WAT      O15727   9.185   3.645   7.353
 5162WAT     H115728   9.265   3.673   7.300
 5162WAT     H215729   9.206   3.651   7.450
 5163WAT      O15730   9.509   7.722   2.954
 5163WAT     H115731   9.547   7.650   3.012
 5163WAT     H215732   9.582   7.762   2.898
 5164WAT      O15733   8.980   5.630   9.202
 5164WAT     H115734   9.006   5.578   9.283
 5164WAT     H215735   9.060   5.679   9.167
 5165WAT      O15736   6.610   4.422   5.840
 5165WAT     H115737   6.560   4.408   5.926
 5165WAT     H215738   6.690   4.362   5.837
 5166WAT      O15739   6.403   7.334   5.664
 5166WAT     H115740   6.383   7.407   5.598
 5166WAT     H215741   6.324   7.320   5.723
 5167WAT      O15742   1.715   8.040   8.803
 5167WAT     H115743   1.683   8.075   8.891
 5167WAT     H215744   1.720   7.940   8.806
 5168WAT      O15745   8.391   2.950   6.200
 5168WAT     H115746   8.361   2.942   6.105
 5168WAT     H215747   8.325   3.004   6.252
 5169WAT      O15748   6.099   2.323   1.443
 5169WAT     H115749   6.119   2.421   1.452
 5169WAT     H215750   6.007   2.305   1.477
 5170WAT      O15751   5.512   7.602   4.567
 5170WAT     H115752   5.548   7.509   4.554
 5170WAT     H215753   5.566   7.648   4.639
 5171WAT      O15754   5.533   0.522   2.340
 5171WAT     H115755   5.624   0.532   2.301
 5171WAT     H215756   5.521   0.588   2.414
 5172WAT      O15757   7.668   7.563   2.817
 5172WAT     H115758   7.725   7.631   2.863
 5172WAT     H215759   7.714   7.474   2.820
 5173WAT      O15760   8.822   3.986   0.697
 5173WAT     H115761   8.860   3.908   0.647
 5173WAT     H215762   8.766   4.041   0.635
 5174WAT      O15763   2.843   1.608   3.549
 5174WAT     H115764   2.852   1.514   3.581
 5174WAT     H215765   2.812   1.609   3.454
 5175WAT      O15766   4.939   7.042   0.928
 5175WAT     H115767   5.011   7.107   0.907
 5175WAT     H215768   4.926   7.037   1.028
 5176WAT      O15769   3.653   7.586   6.102
 5176WAT     H115770   3.705   7.508   6.135
 5176WAT     H215771   3.684   7.612   6.011
 5177WAT      O15772   9.623   1.954   0.360
 5177WAT     H115773   9.558   1.886   0.326
 5177WAT     H215774   9.577   2.042   0.372
 5178WAT      O15775   5.016   1.960   2.286
 5178WAT     H115776   5.103   1.959   2.236
 5178WAT     H215777   5.001   2.051   2.324
 5179WAT      O15778   0.092   3.730   9.575
 5179WAT     H115779   0.012   3.675   9.555
 5179WAT     H215780   0.155   3.679   9.635
 5180WAT      O15781   1.534   5.989   0.201
 5180WAT     H115782   1.566   6.022   0.290
 5180WAT     H215783   1.467   5.917   0.215
 5181WAT      O15784   2.430   1.173   0.307
 5181WAT     H115785   2.398   1.263   0.335
 5181WAT     H215786   2.512   1.183   0.250
 5182WAT      O15787   6.215   2.152   8.974
 5182WAT     H115788   6.185   2.131   8.881
 5182WAT     H215789   6.297   2.209   8.970
 5183WAT      O15790   0.371   0.708   8.435
 5183WAT     H115791   0.300   0.651   8.475
 5183WAT     H215792   0.458   0.658   8.432
 5184WAT      O15793   3.392   7.144   2.174
 5184WAT     H115794   3.470   7.098   2.133
 5184WAT     H215795   3.334   7.077   2.220
 5185WAT      O15796   3.424   5.213   9.777
 5185WAT     H115797   3.477   5.163   9.709
 5185WAT     H215798   3.475   5.216   9.863
 5186WAT      O15799   4.396   6.381   2.690
 5186WAT     H115800   4.307   6.345   2.660
 5186WAT     H215801   4.400   6.479   2.670
 5187WAT      O15802   0.469   4.618   1.641
 5187WAT     H115803   0.379   4.605   1.598
 5187WAT     H215804   0.458   4.625   1.740
 5188WAT      O15805   6.621   6.164   6.596
 5188WAT     H115806   6.557   6.111   6.539
 5188WAT     H215807   6.694   6.200   6.539
 5189WAT      O15808   1.406   5.715   2.473
 5189WAT     H115809   1.418   5.617   2.488
 5189WAT     H215810   1.481   5.749   2.416
 5190WAT      O15811   0.500   9.302   6.673
 5190WAT     H115812   0.585   9.278   6.626
 5190WAT     H215813   0.427   9.240   6.644
 5191WAT      O15814   3.114   1.505   1.023
 5191WAT     H115815   3.069   1.457   1.098
 5191WAT     H215816   3.126   1.443   0.945
 5192WAT      O15817   8.681   2.286   6.061
 5192WAT     H115818   8.630   2.353   6.006
 5192WAT     H215819   8.677   2.197   6.016
 5193WAT      O15820   2.478   7.014   5.828
 5193WAT     H115821   2.422   7.083   5.874
 5193WAT     H215822   2.557   6.993   5.886
 5194WAT      O15823   2.401   1.930   0.942
 5194WAT     H115824   2.482   1.952   0.996
 5194WAT     H215825   2.344   2.011   0.930
 5195WAT      O15826   7.581   3.652   5.723
 5195WAT     H115827   7.587   3.581   5.653
 5195WAT     H215828   7.649   3.633   5.794
 5196WAT      O15829   8.557   3.509   5.129
 5196WAT     H115830   8.498   3.457   5.068
 5196WAT     H215831   8.534   3.488   5.224
 5197WAT      O15832   9.308   8.104   7.038
 5197WAT     H115833   9.405   8.125   7.027
 5197WAT     H215834   9.298   8.010   7.073
 5198WAT      O15835   0.160   5.686   2.850
 5198WAT     H115836   0.133   5.695   2.754
 5198WAT     H215837   0.087   5.641   2.901
 5199WAT      O15838   3.626   0.022   3.901
 5199WAT     H115839   3.528   0.014   3.882
 5199WAT     H215840   3.641   0.013   3.999
 5200WAT      O15841   3.099   1.528   6.757
 5200WAT     H115842   3.017   1.490   6.712
 5200WAT     H215843   3.175   1.464   6.745
 5201WAT      O15844   0.194   6.564   5.574
 5201WAT     H115845   0.266   6.506   5.610
 5201WAT     H215846   0.234   6.642   5.526
 5202WAT      O15847   2.767   2.699   2.056
 5202WAT     H115848   2.686   2.722   2.002
 5202WAT     H215849   2.842   2.761   2.032
 5203WAT      O15850   5.020   0.218   0.920
 5203WAT     H115851   5.090   0.224   0.849
 5203WAT     H215852   4.979   0.127   0.920
 5204WAT      O15853   5.191   0.986   5.716
 5204WAT     H115854   5.112   0.963   5.772
 5204WAT     H215855   5.274   0.950   5.759
 5205WAT      O15856   8.518   8.657   9.488
 5205WAT     H115857   8.518   8.745   9.440
 5205WAT     H215858   8.567   8.589   9.434
 5206WAT      O15859   5.121   2.063   8.609
 5206WAT     H115860   5.144   1.978   8.561
 5206WAT     H215861   5.085   2.129   8.543
 5207WAT      O15862   0.429   2.802   7.053
 5207WAT     H115863   0.360   2.874   7.043
 5207WAT     H215864   0.427   2.766   7.147
 5208WAT      O15865   0.340   5.008   7.936
 5208WAT     H115866   0.313   4.912   7.942
 5208WAT     H215867   0.436   5.017   7.964
 5209WAT      O15868   9.183   2.825   1.560
 5209WAT     H115869   9.107   2.786   1.611
 5209WAT     H215870   9.153   2.848   1.467
 5210WAT      O15871   3.421   4.468   3.539
 5210WAT     H115872   3.388   4.563   3.532
 5210WAT     H215873   3.520   4.468   3.554
 5211WAT      O15874   6.205   6.901   6.387
 5211WAT     H115875   6.283   6.923   6.328
 5211WAT     H215876   6.239   6.872   6.477
 5212WAT      O15877   2.704   9.429   8.678
 5212WAT     H115878   2.692   9.396   8.771
 5212WAT     H215879   2.642   9.380   8.617
 5213WAT      O15880   9.783   5.739   4.372
 5213WAT     H115881   9.849   5.691   4.429
 5213WAT     H215882   9.786   5.837   4.392
 5214WAT      O15883   6.282   6.046   4.081
 5214WAT     H115884   6.363   6.029   4.025
 5214WAT     H215885   6.275   5.976   4.153
 5215WAT      O15886   1.954   7.792   9.487
 5215WAT     H115887   1.933   7.802   9.389
 5215WAT     H215888   1.887   7.731   9.529
 5216WAT      O15889   2.057   3.109   9.526
 5216WAT     H115890   2.024   3.197   9.561
 5216WAT     H215891   2.002   3.083   9.446
 5217WAT      O15892   3.682   6.047   7.766
 5217WAT     H115893   3.738   6.120   7.805
 5217WAT     H215894   3.661   5.980   7.836
 5218WAT      O15895   8.461   1.540   4.329
 5218WAT     H115896   8.455   1.625   4.381
 5218WAT     H215897   8.442   1.558   4.233
 5219WAT      O15898   2.206   7.735   2.556
 5219WAT     H115899   2.288   7.689   2.590
 5219WAT     H215900   2.232   7.816   2.504
 5220WAT      O15901   4.340   6.461   1.415
 5220WAT     H115902   4.306   6.496   1.328
 5220WAT     H215903   4.388   6.374   1.399
 5221WAT      O15904   4.661   2.751   0.552
 5221WAT     H115905   4.635   2.827   0.611
 5221WAT     H215906   4.597   2.744   0.476
 5222WAT      O15907   6.045   7.824   5.762
 5222WAT     H115908   6.044   7.908   5.707
 5222WAT     H215909   6.135   7.813   5.804
 5223WAT      O15910   1.637   0.220   6.071
 5223WAT     H115911   1.601   0.147   6.013
 5223WAT     H215912   1.694   0.281   6.017
 5224WAT      O15913   0.218   0.081   6.461
 5224WAT     H115914   0.290   0.146   6.486
 5224WAT     H215915   0.254  -0.012   6.465
 5225WAT      O15916   1.384   3.476   8.490
 5225WAT     H115917   1.424   3.567   8.489
 5225WAT     H215918   1.352   3.453   8.398
 5226WAT      O15919   8.067   7.515   9.338
 5226WAT     H115920   8.146   7.455   9.331
 5226WAT     H215921   8.059   7.570   9.254
 5227WAT      O15922   6.569   1.922   2.050
 5227WAT     H115923   6.499   1.851   2.061
 5227WAT     H215924   6.529   2.000   2.002
 5228WAT      O15925   4.023   0.595   3.340
 5228WAT     H115926   4.002   0.690   3.317
 5228WAT     H215927   3.992   0.576   3.433
 5229WAT      O15928   6.575   7.142   5.914
 5229WAT     H115929   6.624   7.072   5.966
 5229WAT     H215930   6.605   7.139   5.819
 5230WAT      O15931   0.033   4.387   2.796
 5230WAT     H115932   0.094   4.418   2.869
 5230WAT     H215933   0.004   4.466   2.741
 5231WAT      O15934   2.933   8.350   0.425
 5231WAT     H115935   2.858   8.326   0.363
 5231WAT     H215936   3.020   8.341   0.376
 5232WAT      O15937   6.703   6.486   9.153
 5232WAT     H115938   6.712   6.580   9.186
 5232WAT     H215939   6.677   6.487   9.057
 5233WAT      O15940   1.887   2.361   4.147
 5233WAT     H115941   1.816   2.421   4.108
 5233WAT     H215942   1.921   2.300   4.075
 5234WAT      O15943   0.892   8.080   8.279
 5234WAT     H115944   0.798   8.062   8.308
 5234WAT     H215945   0.931   8.153   8.335
 5235WAT      O15946   0.401   4.911   6.687
 5235WAT     H115947   0.348   4.991   6.715
 5235WAT     H215948   0.433   4.923   6.594
 5236WAT      O15949   2.343   2.320   3.699
 5236WAT     H115950   2.416   2.253   3.684
 5236WAT     H215951   2.319   2.321   3.796
 5237WAT      O15952   4.251   0.493   7.937
 5237WAT     H115953   4.334   0.547   7.923
 5237WAT     H215954   4.270   0.396   7.919
 5238WAT      O15955   7.132   2.116   6.325
 5238WAT     H115956   7.205   2.162   6.376
 5238WAT     H215957   7.163   2.095   6.233
 5239WAT      O15958   0.455   9.061   4.203
 5239WAT     H115959   0.395   9.046   4.282
 5239WAT     H215960   0.548   9.079   4.235
 5240WAT      O15961   3.868   5.214   5.573
 5240WAT     H115962   3.846   5.222   5.476
 5240WAT     H215963   3.814   5.139   5.613
 5241WAT      O15964   5.843   8.529   9.239
 5241WAT     H115965   5.860   8.619   9.199
 5241WAT     H215966   5.909   8.464   9.202
 5242WAT      O15967   6.845   5.399   4.733
 5242WAT     H115968   6.936   5.388   4.774
 5242WAT     H215969   6.776   5.375   4.801
 5243WAT      O15970   0.646   7.896   6.780
 5243WAT     H115971   0.658   7.985   6.737
 5243WAT     H215972   0.565   7.851   6.742
 5244WAT      O15973   0.128   7.669   4.675
 5244WAT     H115974   0.181   7.753   4.678
 5244WAT     H215975   0.190   7.591   4.663
 5245WAT      O15976   0.443   5.820   2.252
 5245WAT     H115977   0.499   5.884   2.199
 5245WAT     H215978   0.502   5.759   2.304
 5246WAT      O15979   6.549   2.638   8.003
 5246WAT     H115980   6.509   2.552   7.970
 5246WAT     H215981   6.546   2.640   8.103
 5247WAT      O15982   6.272   8.815   4.822
 5247WAT     H115983   6.320   8.894   4.785
 5247WAT     H215984   6.202   8.784   4.757
 5248WAT      O15985   8.555   1.747   6.604
 5248WAT     H115986   8.520   1.734   6.697
 5248WAT     H215987   8.653   1.729   6.603
 5249WAT      O15988   2.855   7.242   2.349
 5249WAT     H115989   2.949   7.229   2.382
 5249WAT     H215990   2.829   7.162   2.294
 5250WAT      O15991   8.892   1.844   6.167
 5250WAT     H115992   8.827   1.916   6.190
 5250WAT     H215993   8.910   1.846   6.069
 5251WAT      O15994   2.250   4.349   7.113
 5251WAT     H115995   2.173   4.313   7.166
 5251WAT     H215996   2.321   4.382   7.176
 5252WAT      O15997   9.053   9.692   7.265
 5252WAT     H115998   9.149   9.721   7.269
 5252WAT     H215999   9.007   9.717   7.350
 5253WAT      O16000   6.911   1.774   3.185
 5253WAT     H116001   6.907   1.684   3.229
 5253WAT     H216002   7.002   1.814   3.198
 5254WAT      O16003   1.960   8.302   8.919
 5254WAT     H116004   2.053   8.339   8.922
 5254WAT     H216005   1.932   8.273   9.010
 5255WAT      O16006   9.257   3.582   2.327
 5255WAT     H116007   9.194   3.542   2.260
 5255WAT     H216008   9.332   3.628   2.279
 5256WAT      O16009   6.352   1.310   8.369
 5256WAT     H116010   6.382   1.267   8.454
 5256WAT     H216011   6.337   1.408   8.385
 5257WAT      O16012   7.501   2.412   9.326
 5257WAT     H116013   7.555   2.380   9.247
 5257WAT     H216014   7.409   2.375   9.320
 5258WAT      O16015   7.420   5.981   2.709
 5258WAT     H116016   7.345   5.931   2.752
 5258WAT     H216017   7.394   6.077   2.700
 5259WAT      O16018   6.909   3.705   3.224
 5259WAT     H116019   6.861   3.787   3.189
 5259WAT     H216020   6.964   3.666   3.151
 5260WAT      O16021   3.858   2.849   3.658
 5260WAT     H116022   3.911   2.884   3.735
 5260WAT     H216023   3.858   2.749   3.660
 5261WAT      O16024   4.514   7.765   5.229
 5261WAT     H116025   4.467   7.836   5.281
 5261WAT     H216026   4.462   7.680   5.233
 5262WAT      O16027   5.227   9.378   5.073
 5262WAT     H116028   5.263   9.344   4.986
 5262WAT     H216029   5.242   9.477   5.078
 5263WAT      O16030   6.404   8.602   7.577
 5263WAT     H116031   6.360   8.598   7.487
 5263WAT     H216032   6.386   8.690   7.620
 5264WAT      O16033   4.675   5.289   8.221
 5264WAT     H116034   4.735   5.353   8.268
 5264WAT     H216035   4.596   5.268   8.279
 5265WAT      O16036   4.973   1.260   3.633
 5265WAT     H116037   4.979   1.293   3.539
 5265WAT     H216038   5.026   1.320   3.693
 5266WAT      O16039   5.074   9.839   8.783
 5266WAT     H116040   5.082   9.769   8.711
 5266WAT     H216041   5.148   9.905   8.772
 5267WAT      O16042   7.891   9.093   4.493
 5267WAT     H116043   7.833   9.070   4.415
 5267WAT     H216044   7.905   9.011   4.549
 5268WAT      O16045   1.391   7.014   2.382
 5268WAT     H116046   1.440   7.082   2.435
 5268WAT     H216047   1.293   7.035   2.382
 5269WAT      O16048   6.276   5.186   0.291
 5269WAT     H116049   6.258   5.164   0.387
 5269WAT     H216050   6.231   5.119   0.232
 5270WAT      O16051   7.870   0.934   8.661
 5270WAT     H116052   7.942   0.887   8.713
 5270WAT     H216053   7.823   0.999   8.720
 5271WAT      O16054   7.703   3.084   6.182
 5271WAT     H116055   7.749   3.155   6.128
 5271WAT     H216056   7.756   3.067   6.265
 5272WAT      O16057   0.815   4.357   0.377
 5272WAT     H116058   0.886   4.328   0.440
 5272WAT     H216059   0.814   4.457   0.371
 5273WAT      O16060   8.630   5.050   3.930
 5273WAT     H116061   8.559   5.095   3.984
 5273WAT     H216062   8.719   5.063   3.974
 5274WAT      O16063   0.579   3.949   9.046
 5274WAT     H116064   0.540   3.958   8.954
 5274WAT     H216065   0.654   4.014   9.057
 5275WAT      O16066   9.745   1.879   0.606
 5275WAT     H116067   9.690   1.906   0.526
 5275WAT     H216068   9.751   1.779   0.609
 5276WAT      O16069   5.871   0.318   4.702
 5276WAT     H116070   5.962   0.311   4.660
 5276WAT     H216071   5.877   0.296   4.799
 5277WAT      O16072   6.525   6.968   7.618
 5277WAT     H116073   6.613   6.922   7.616
 5277WAT     H216074   6.478   6.955   7.531
 5278WAT      O16075   4.003   4.611   4.453
 5278WAT     H116076   3.961   4.701   4.447
 5278WAT     H216077   4.102   4.619   4.442
 5279WAT      O16078   5.716   5.376   2.813
 5279WAT     H116079   5.761   5.320   2.883
 5279WAT     H216080   5.772   5.456   2.793
 5280WAT      O16081   3.972   8.752   5.858
 5280WAT     H116082   3.906   8.736   5.784
 5280WAT     H216083   4.048   8.806   5.822
 5281WAT      O16084   3.777   9.009   3.329
 5281WAT     H116085   3.810   9.081   3.269
 5281WAT     H216086   3.779   9.041   3.424
 5282WAT      O16087   3.503   7.659   2.200
 5282WAT     H116088   3.569   7.676   2.274
 5282WAT     H216089   3.435   7.732   2.199
 5283WAT      O16090   2.995   7.425   3.438
 5283WAT     H116091   3.076   7.457   3.388
 5283WAT     H216092   2.998   7.326   3.447
 5284WAT      O16093   2.866   7.577   5.753
 5284WAT     H116094   2.907   7.493   5.715
 5284WAT     H216095   2.777   7.592   5.712
 5285WAT      O16096   1.625   8.777   7.089
 5285WAT     H116097   1.561   8.831   7.144
 5285WAT     H216098   1.573   8.724   7.021
 5286WAT      O16099   5.752   7.026   3.187
 5286WAT     H116100   5.670   7.084   3.184
 5286WAT     H216101   5.746   6.957   3.115
 5287WAT      O16102   2.173   7.223   1.808
 5287WAT     H116103   2.126   7.169   1.878
 5287WAT     H216104   2.137   7.316   1.808
 5288WAT      O16105   7.790   4.164   5.856
 5288WAT     H116106   7.758   4.225   5.929
 5288WAT     H216107   7.767   4.204   5.767
 5289WAT      O16108   9.759   6.108   2.164
 5289WAT     H116109   9.796   6.201   2.156
 5289WAT     H216110   9.701   6.102   2.244
 5290WAT      O16111   9.428   3.864   5.979
 5290WAT     H116112   9.518   3.824   6.000
 5290WAT     H216113   9.402   3.926   6.052
 5291WAT      O16114   7.192   3.481   1.385
 5291WAT     H116115   7.207   3.508   1.480
 5291WAT     H216116   7.157   3.387   1.382
 5292WAT      O16117   8.999   0.491   5.784
 5292WAT     H116118   9.089   0.514   5.750
 5292WAT     H216119   8.960   0.569   5.833
 5293WAT      O16120   9.366   4.557   5.582
 5293WAT     H116121   9.424   4.523   5.507
 5293WAT     H216122   9.285   4.499   5.590
 5294WAT      O16123   3.937   1.426   8.863
 5294WAT     H116124   3.875   1.399   8.789
 5294WAT     H216125   3.909   1.380   8.948
 5295WAT      O16126   7.291   4.616   4.767
 5295WAT     H116127   7.391   4.607   4.766
 5295WAT     H216128   7.263   4.680   4.695
 5296WAT      O16129   7.861   9.082   0.227
 5296WAT     H116130   7.825   9.175   0.219
 5296WAT     H216131   7.787   9.016   0.217
 5297WAT      O16132   0.725   2.656   0.143
 5297WAT     H116133   0.694   2.668   0.237
 5297WAT     H216134   0.769   2.567   0.133
 5298WAT      O16135   3.913   1.325   5.414
 5298WAT     H116136   3.879   1.306   5.322
 5298WAT     H216137   4.001   1.279   5.427
 5299WAT      O16138   7.757   8.192   4.245
 5299WAT     H116139   7.841   8.245   4.247
 5299WAT     H216140   7.702   8.218   4.166
 5300WAT      O16141   0.448   4.834   2.405
 5300WAT     H116142   0.546   4.819   2.416
 5300WAT     H216143   0.428   4.932   2.411
 5301WAT      O16144   6.132   0.700   5.877
 5301WAT     H116145   6.138   0.797   5.851
 5301WAT     H216146   6.189   0.646   5.815
 5302WAT      O16147   7.597   1.562   3.885
 5302WAT     H116148   7.504   1.585   3.911
 5302WAT     H216149   7.657   1.566   3.965
 5303WAT      O16150   2.398   4.823   7.095
 5303WAT     H116151   2.385   4.879   7.013
 5303WAT     H216152   2.325   4.754   7.099
 5304WAT      O16153   9.668   4.880   5.908
 5304WAT     H116154   9.616   4.858   5.990
 5304WAT     H216155   9.637   4.820   5.833
 5305WAT      O16156   0.026   1.706   6.627
 5305WAT     H116157  -0.043   1.742   6.564
 5305WAT     H216158   0.102   1.770   6.634
 5306WAT      O16159   3.150   4.480   1.313
 5306WAT     H116160   3.164   4.540   1.234
 5306WAT     H216161   3.079   4.520   1.371
 5307WAT      O16162   9.161   8.375   3.135
 5307WAT     H116163   9.187   8.330   3.050
 5307WAT     H216164   9.121   8.465   3.115
 5308WAT      O16165   1.958   5.147   6.873
 5308WAT     H116166   1.944   5.092   6.955
 5308WAT     H216167   1.873   5.150   6.820
 5309WAT      O16168   7.826   9.657   7.222
 5309WAT     H116169   7.840   9.630   7.127
 5309WAT     H216170   7.862   9.587   7.283
 5310WAT      O16171   5.874   3.123   1.619
 5310WAT     H116172   5.869   3.032   1.577
 5310WAT     H216173   5.888   3.191   1.547
 5311WAT      O16174   9.038   6.575   5.928
 5311WAT     H116175   9.109   6.578   5.857
 5311WAT     H216176   9.082   6.570   6.018
 5312WAT      O16177   4.301   0.605   2.100
 5312WAT     H116178   4.264   0.606   2.193
 5312WAT     H216179   4.303   0.698   2.063
 5313WAT      O16180   0.707   9.697   7.378
 5313WAT     H116181   0.664   9.609   7.399
 5313WAT     H216182   0.768   9.687   7.300
 5314WAT      O16183   5.229   3.184   6.446
 5314WAT     H116184   5.309   3.238   6.417
 5314WAT     H216185   5.157   3.245   6.477
 5315WAT      O16186   1.729   5.919   8.913
 5315WAT     H116187   1.652   5.886   8.858
 5315WAT     H216188   1.793   5.968   8.853
 5316WAT      O16189   7.028   9.736   6.733
 5316WAT     H116190   7.073   9.725   6.645
 5316WAT     H216191   6.957   9.666   6.744
 5317WAT      O16192   4.572   2.529   3.658
 5317WAT     H116193   4.506   2.521   3.583
 5317WAT     H216194   4.527   2.507   3.745
 5318WAT      O16195   8.249   4.599   0.842
 5318WAT     H116196   8.333   4.625   0.891
 5318WAT     H216197   8.173   4.597   0.906
 5319WAT      O16198   2.664   6.463   7.734
 5319WAT     H116199   2.615   6.380   7.711
 5319WAT     H216200   2.751   6.466   7.683
 5320WAT      O16201   6.712   5.572   2.075
 5320WAT     H116202   6.672   5.615   1.994
 5320WAT     H216203   6.656   5.592   2.155
 5321WAT      O16204   2.075   6.361   4.860
 5321WAT     H116205   2.160   6.389   4.904
 5321WAT     H216206   2.012   6.324   4.929
 5322WAT      O16207   3.294   3.333   0.961
 5322WAT     H116208   3.196   3.351   0.957
 5322WAT     H216209   3.334   3.346   0.870
 5323WAT      O16210   3.206   9.046   3.251
 5323WAT     H116211   3.185   9.079   3.343
 5323WAT     H216212   3.120   9.033   3.201
 5324WAT      O16213   0.754   4.416   3.505
 5324WAT     H116214   0.672   4.428   3.560
 5324WAT     H216215   0.788   4.323   3.514
 5325WAT      O16216   3.770   2.747   1.807
 5325WAT     H116217   3.830   2.683   1.856
 5325WAT     H216218   3.819   2.786   1.729
 5326WAT      O16219   9.027   6.513   2.258
 5326WAT     H116220   8.945   6.568   2.268
 5326WAT     H216221   9.005   6.416   2.269
 5327WAT      O16222   6.847   9.255   8.118
 5327WAT     H116223   6.785   9.176   8.122
 5327WAT     H216224   6.832   9.313   8.198
 5328WAT      O16225   5.116   1.834   5.436
 5328WAT     H116226   5.082   1.798   5.523
 5328WAT     H216227   5.046   1.826   5.366
 5329WAT      O16228   1.246   3.107   7.737
 5329WAT     H116229   1.232   3.037   7.668
 5329WAT     H216230   1.283   3.190   7.694
 5330WAT      O16231   2.621   9.747   8.463
 5330WAT     H116232   2.621   9.763   8.562
 5330WAT     H216233   2.533   9.711   8.435
 5331WAT      O16234   5.348   1.957   9.816
 5331WAT     H116235   5.365   2.048   9.778
 5331WAT     H216236   5.423   1.934   9.878
 5332WAT      O16237   6.536   4.787   3.720
 5332WAT     H116238   6.482   4.731   3.784
 5332WAT     H216239   6.627   4.748   3.710
 5333WAT      O16240   7.504   5.903   7.738
 5333WAT     H116241   7.438   5.974   7.711
 5333WAT     H216242   7.499   5.889   7.837
 5334WAT      O16243   5.415   2.306   2.960
 5334WAT     H116244   5.354   2.385   2.961
 5334WAT     H216245   5.475   2.308   3.041
 5335WAT      O16246   9.082   4.684   2.007
 5335WAT     H116247   9.034   4.756   1.957
 5335WAT     H216248   9.075   4.598   1.956
 5336WAT      O16249   8.164   1.681   9.017
 5336WAT     H116250   8.086   1.621   9.000
 5336WAT     H216251   8.162   1.712   9.112
 5337WAT      O16252   0.524   5.087   3.760
 5337WAT     H116253   0.490   5.003   3.802
 5337WAT     H216254   0.475   5.166   3.798
 5338WAT      O16255   5.260   6.042   7.787
 5338WAT     H116256   5.178   6.025   7.732
 5338WAT     H216257   5.293   6.135   7.768
 5339WAT      O16258   9.665   3.468   0.112
 5339WAT     H116259   9.697   3.497   0.203
 5339WAT     H216260   9.736   3.486   0.044
 5340WAT      O16261   8.425   6.195   9.868
 5340WAT     H116262   8.468   6.216   9.956
 5340WAT     H216263   8.325   6.201   9.877
 5341WAT      O16264   6.596   5.156   1.093
 5341WAT     H116265   6.600   5.256   1.099
 5341WAT     H216266   6.508   5.128   1.056
 5342WAT      O16267   2.638   1.871   2.837
 5342WAT     H116268   2.577   1.812   2.890
 5342WAT     H216269   2.718   1.894   2.893
 5343WAT      O16270   0.495   0.958   8.023
 5343WAT     H116271   0.566   0.971   8.092
 5343WAT     H216272   0.437   0.881   8.049
 5344WAT      O16273   8.249   3.504   1.199
 5344WAT     H116274   8.308   3.498   1.279
 5344WAT     H216275   8.305   3.513   1.117
 5345WAT      O16276   0.905   3.858   0.274
 5345WAT     H116277   0.887   3.765   0.306
 5345WAT     H216278   0.976   3.900   0.331
 5346WAT      O16279   1.218   3.563   7.807
 5346WAT     H116280   1.231   3.542   7.904
 5346WAT     H216281   1.263   3.649   7.786
 5347WAT      O16282   8.634   8.939   3.572
 5347WAT     H116283   8.609   8.842   3.582
 5347WAT     H216284   8.567   8.985   3.515
 5348WAT      O16285   5.566   7.064   6.491
 5348WAT     H116286   5.537   6.972   6.465
 5348WAT     H216287   5.514   7.131   6.439
 5349WAT      O16288   7.682   1.233   8.441
 5349WAT     H116289   7.658   1.138   8.421
 5349WAT     H216290   7.759   1.261   8.383
 5350WAT      O16291   7.968   4.932   3.668
 5350WAT     H116292   7.952   4.975   3.757
 5350WAT     H216293   8.051   4.970   3.627
 5351WAT      O16294   6.124   0.353   5.377
 5351WAT     H116295   6.199   0.344   5.311
 5351WAT     H216296   6.152   0.314   5.465
 5352WAT      O16297   9.658   4.992   4.969
 5352WAT     H116298   9.756   4.975   4.957
 5352WAT     H216299   9.614   4.911   5.006
 5353WAT      O16300   4.913   1.512   3.506
 5353WAT     H116301   4.995   1.530   3.560
 5353WAT     H216302   4.916   1.565   3.422
 5354WAT      O16303   8.405   0.663   6.213
 5354WAT     H116304   8.380   0.600   6.286
 5354WAT     H216305   8.437   0.612   6.133
 5355WAT      O16306   0.027   4.885   5.576
 5355WAT     H116307  -0.069   4.895   5.549
 5355WAT     H216308   0.082   4.862   5.496
 5356WAT      O16309   3.695   5.503   0.973
 5356WAT     H116310   3.740   5.552   0.898
 5356WAT     H216311   3.647   5.424   0.936
 5357WAT      O16312   3.254   5.675   9.758
 5357WAT     H116313   3.264   5.774   9.759
 5357WAT     H216314   3.345   5.632   9.753
 5358WAT      O16315   5.276   3.642   9.343
 5358WAT     H116316   5.292   3.571   9.274
 5358WAT     H216317   5.263   3.599   9.432
 5359WAT      O16318   7.439   5.356   4.206
 5359WAT     H116319   7.423   5.419   4.281
 5359WAT     H216320   7.497   5.399   4.137
 5360WAT      O16321   2.571   4.851   6.831
 5360WAT     H116322   2.603   4.906   6.909
 5360WAT     H216323   2.569   4.755   6.858
 5361WAT      O16324   2.910   1.280   2.700
 5361WAT     H116325   2.812   1.294   2.687
 5361WAT     H216326   2.960   1.327   2.627
 5362WAT      O16327   5.258   2.417   3.904
 5362WAT     H116328   5.349   2.451   3.879
 5362WAT     H216329   5.208   2.489   3.952
 5363WAT      O16330   7.493   1.352   5.234
 5363WAT     H116331   7.427   1.287   5.198
 5363WAT     H216332   7.510   1.333   5.331
 5364WAT      O16333   0.650   9.548   7.849
 5364WAT     H116334   0.601   9.619   7.798
 5364WAT     H216335   0.740   9.534   7.807
 5365WAT      O16336   0.965   7.745   3.427
 5365WAT     H116337   0.965   7.672   3.359
 5365WAT     H216338   0.925   7.712   3.513
 5366WAT      O16339   2.981   7.023   7.052
 5366WAT     H116340   2.941   6.987   6.969
 5366WAT     H216341   2.989   6.950   7.120
 5367WAT      O16342   2.087   5.211   0.965
 5367WAT     H116343   1.998   5.198   0.921
 5367WAT     H216344   2.112   5.308   0.959
 5368WAT      O16345   8.554   0.630   1.200
 5368WAT     H116346   8.469   0.639   1.148
 5368WAT     H216347   8.631   0.621   1.136
 5369WAT      O16348   6.154   0.774   9.196
 5369WAT     H116349   6.235   0.807   9.245
 5369WAT     H216350   6.151   0.674   9.200
 5370WAT      O16351   0.483   2.238   2.925
 5370WAT     H116352   0.498   2.283   2.837
 5370WAT     H216353   0.566   2.246   2.981
 5371WAT      O16354   8.119   2.763   7.703
 5371WAT     H116355   8.173   2.845   7.686
 5371WAT     H216356   8.116   2.707   7.620
 5372WAT      O16357   6.367   5.155   3.095
 5372WAT     H116358   6.422   5.190   3.171
 5372WAT     H216359   6.358   5.056   3.103
 5373WAT      O16360   6.701   9.599   0.976
 5373WAT     H116361   6.765   9.676   0.972
 5373WAT     H216362   6.608   9.634   0.988
 5374WAT      O16363   3.848   8.377   5.323
 5374WAT     H116364   3.849   8.279   5.300
 5374WAT     H216365   3.828   8.430   5.240
 5375WAT      O16366   0.101   2.194   5.210
 5375WAT     H116367   0.066   2.179   5.117
 5375WAT     H216368   0.048   2.140   5.275
 5376WAT      O16369   2.282   4.895   6.146
 5376WAT     H116370   2.357   4.920   6.084
 5376WAT     H216371   2.310   4.914   6.240
 5377WAT      O16372   7.829   5.990   0.932
 5377WAT     H116373   7.785   5.906   0.961
 5377WAT     H216374   7.888   6.024   1.005
 5378WAT      O16375   3.138   7.766   3.843
 5378WAT     H116376   3.214   7.724   3.893
 5378WAT     H216377   3.145   7.866   3.851
 5379WAT      O16378   1.609   5.339   1.904
 5379WAT     H116379   1.569   5.426   1.929
 5379WAT     H216380   1.599   5.274   1.980
 5380WAT      O16381   8.382   8.947   9.196
 5380WAT     H116382   8.378   9.014   9.270
 5380WAT     H216383   8.304   8.962   9.134
 5381WAT      O16384   3.936   8.322   6.755
 5381WAT     H116385   3.886   8.406   6.775
 5381WAT     H216386   4.034   8.337   6.767
 5382WAT      O16387   9.671   5.054   3.632
 5382WAT     H116388   9.726   4.981   3.593
 5382WAT     H216389   9.593   5.015   3.680
 5383WAT      O16390   3.893   5.821   6.428
 5383WAT     H116391   3.964   5.782   6.486
 5383WAT     H216392   3.826   5.869   6.485
 5384WAT      O16393   8.139   2.132   2.732
 5384WAT     H116394   8.176   2.186   2.807
 5384WAT     H216395   8.162   2.176   2.645
 5385WAT      O16396   1.157   4.807   9.248
 5385WAT     H116397   1.085   4.826   9.181
 5385WAT     H216398   1.165   4.885   9.310
 5386WAT      O16399   1.321   2.083   6.928
 5386WAT     H116400   1.226   2.071   6.902
 5386WAT     H216401   1.381   2.044   6.858
 5387WAT      O16402   2.478   5.443   2.954
 5387WAT     H116403   2.520   5.437   3.044
 5387WAT     H216404   2.493   5.535   2.916
 5388WAT      O16405   6.505   6.179   1.782
 5388WAT     H116406   6.548   6.253   1.730
 5388WAT     H216407   6.405   6.187   1.774
 5389WAT      O16408   3.677   0.333   9.314
 5389WAT     H116409   3.760   0.383   9.338
 5389WAT     H216410   3.688   0.291   9.224
 5390WAT      O16411   1.174   6.528   4.011
 5390WAT     H116412   1.188   6.568   3.921
 5390WAT     H216413   1.201   6.593   4.081
 5391WAT      O16414   4.003   0.791   9.884
 5391WAT     H116415   4.040   0.703   9.854
 5391WAT     H216416   3.927   0.817   9.824
 5392WAT      O16417   5.833   7.983   3.086
 5392WAT     H116418   5.747   7.974   3.035
 5392WAT     H216419   5.895   8.042   3.036
 5393WAT      O16420   2.626   0.791   0.635
 5393WAT     H116421   2.692   0.840   0.578
 5393WAT     H216422   2.644   0.811   0.731
 5394WAT      O16423   4.586   4.825   2.163
 5394WAT     H116424   4.651   4.893   2.197
 5394WAT     H216425   4.631   4.736   2.156
 5395WAT      O16426   8.030   9.304   5.157
 5395WAT     H116427   7.969   9.372   5.197
 5395WAT     H216428   8.036   9.319   5.058
 5396WAT      O16429   6.524   4.508   1.446
 5396WAT     H116430   6.583   4.499   1.526
 5396WAT     H216431   6.429   4.523   1.475
 5397WAT      O16432   9.726   3.980   1.917
 5397WAT     H116433   9.777   4.035   1.983
 5397WAT     H216434   9.727   3.884   1.944
 5398WAT      O16435   9.089   5.265   9.738
 5398WAT     H116436   9.150   5.318   9.798
 5398WAT     H216437   9.001   5.253   9.783
 5399WAT      O16438   4.185   0.206   1.276
 5399WAT     H116439   4.121   0.253   1.337
 5399WAT     H216440   4.230   0.132   1.326
 5400WAT      O16441   2.835   8.826   3.363
 5400WAT     H116442   2.747   8.820   3.410
 5400WAT     H216443   2.909   8.817   3.430
 5401WAT      O16444   7.264   3.664   3.095
 5401WAT     H116445   7.310   3.727   3.157
 5401WAT     H216446   7.324   3.643   3.018
 5402WAT      O16447   6.984   0.629   0.274
 5402WAT     H116448   6.903   0.671   0.233
 5402WAT     H216449   6.990   0.657   0.370
 5403WAT      O16450   3.014   6.793   0.192
 5403WAT     H116451   3.042   6.878   0.148
 5403WAT     H216452   3.002   6.722   0.123
 5404WAT      O16453   5.438   3.577   3.339
 5404WAT     H116454   5.410   3.551   3.431
 5404WAT     H216455   5.503   3.653   3.344
 5405WAT      O16456   4.747   7.204   4.817
 5405WAT     H116457   4.812   7.132   4.840
 5405WAT     H216458   4.775   7.290   4.861
 5406WAT      O16459   7.249   5.285   3.658
 5406WAT     H116460   7.188   5.206   3.646
 5406WAT     H216461   7.195   5.369   3.653
 5407WAT      O16462   5.381   4.108   8.453
 5407WAT     H116463   5.441   4.185   8.474
 5407WAT     H216464   5.286   4.140   8.449
 5408WAT      O16465   6.754   3.349   9.001
 5408WAT     H116466   6.835   3.355   9.060
 5408WAT     H216467   6.728   3.253   8.990
 5409WAT      O16468   9.067   8.014   1.273
 5409WAT     H116469   9.052   8.104   1.234
 5409WAT     H216470   9.164   7.991   1.267
 5410WAT      O16471   0.781   9.788   7.023
 5410WAT     H116472   0.869   9.813   6.981
 5410WAT     H216473   0.732   9.871   7.050
 5411WAT      O16474   7.137   0.999   4.014
 5411WAT     H116475   7.106   0.914   3.972
 5411WAT     H216476   7.236   0.996   4.025
 5412WAT      O16477   3.010   7.848   0.771
 5412WAT     H116478   2.930   7.847   0.711
 5412WAT     H216479   3.037   7.943   0.790
 5413WAT      O16480   9.387   6.135   0.448
 5413WAT     H116481   9.401   6.167   0.542
 5413WAT     H216482   9.476   6.123   0.404
 5414WAT      O16483   2.365   0.658   9.843
 5414WAT     H116484   2.407   0.568   9.836
 5414WAT     H216485   2.278   0.659   9.795
 5415WAT      O16486   9.386   5.714   4.796
 5415WAT     H116487   9.426   5.762   4.717
 5415WAT     H216488   9.403   5.766   4.879
 5416WAT      O16489   3.718   9.709   4.491
 5416WAT     H116490   3.739   9.805   4.512
 5416WAT     H216491   3.668   9.668   4.567
 5417WAT      O16492   2.478   4.561   1.512
 5417WAT     H116493   2.508   4.547   1.606
 5417WAT     H216494   2.438   4.477   1.476
 5418WAT      O16495   1.536   7.148   8.815
 5418WAT     H116496   1.447   7.103   8.809
 5418WAT     H216497   1.537   7.209   8.895
 5419WAT      O16498   2.084   6.119   5.829
 5419WAT     H116499   2.068   6.100   5.926
 5419WAT     H216500   2.048   6.210   5.806
 5420WAT      O16501   4.273   9.319   8.433
 5420WAT     H116502   4.276   9.309   8.532
 5420WAT     H216503   4.237   9.409   8.409
 5421WAT      O16504   4.043   3.668   7.744
 5421WAT     H116505   3.962   3.651   7.689
 5421WAT     H216506   4.017   3.678   7.840
 5422WAT      O16507   1.087   9.490   1.251
 5422WAT     H116508   1.140   9.467   1.333
 5422WAT     H216509   1.149   9.502   1.173
 5423WAT      O16510   8.534   5.628   4.728
 5423WAT     H116511   8.446   5.674   4.742
 5423WAT     H216512   8.600   5.693   4.690
 5424WAT      O16513   1.304   8.197   4.239
 5424WAT     H116514   1.231   8.238   4.293
 5424WAT     H216515   1.378   8.167   4.299
 5425WAT      O16516   9.743   6.526   6.725
 5425WAT     H116517   9.660   6.472   6.710
 5425WAT     H216518   9.822   6.465   6.729
 5426WAT      O16519   5.610   4.019   0.433
 5426WAT     H116520   5.666   4.048   0.356
 5426WAT     H216521   5.668   3.971   0.500
 5427WAT      O16522   1.579   5.946   8.314
 5427WAT     H116523   1.656   5.895   8.276
 5427WAT     H216524   1.496   5.889   8.312
 5428WAT      O16525   3.012   6.507   2.007
 5428WAT     H116526   3.082   6.447   2.044
 5428WAT     H216527   2.921   6.472   2.031
 5429WAT      O16528   4.892   1.217   8.478
 5429WAT     H116529   4.976   1.164   8.492
 5429WAT     H216530   4.863   1.209   8.383
 5430WAT      O16531   5.678   0.226   8.654
 5430WAT     H116532   5.584   0.254   8.672
 5430WAT     H216533   5.680   0.167   8.574
 5431WAT      O16534   5.552   3.515   4.049
 5431WAT     H116535   5.639   3.555   4.019
 5431WAT     H216536   5.484   3.587   4.060
 5432WAT      O16537   9.731   0.979   1.563
 5432WAT     H116538   9.741   1.006   1.467
 5432WAT     H216539   9.820   0.951   1.599
 5433WAT      O16540   2.251   4.552   4.068
 5433WAT     H116541   2.156   4.564   4.037
 5433WAT     H216542   2.280   4.632   4.119
 5434WAT      O16543   0.195   2.729   3.160
 5434WAT     H116544   0.239   2.818   3.155
 5434WAT     H216545   0.194   2.686   3.069
 5435WAT      O16546   8.694   1.820   8.620
 5435WAT     H116547   8.774   1.832   8.680
 5435WAT     H216548   8.724   1.790   8.530
 5436WAT      O16549   9.040   8.960   1.951
 5436WAT     H116550   8.972   9.025   1.917
 5436WAT     H216551   9.002   8.868   1.947
 5437WAT      O16552   4.014   2.186   8.864
 5437WAT     H116553   3.954   2.111   8.892
 5437WAT     H216554   4.050   2.232   8.946
 5438WAT      O16555   8.545   6.147   7.616
 5438WAT     H116556   8.520   6.176   7.708
 5438WAT     H216557   8.536   6.223   7.553
 5439WAT      O16558   8.928   6.394   1.507
 5439WAT     H116559   8.937   6.303   1.545
 5439WAT     H216560   9.018   6.438   1.506
 5440WAT      O16561   5.585   8.643   3.203
 5440WAT     H116562   5.488   8.643   3.179
 5440WAT     H216563   5.598   8.590   3.287
 5441WAT      O16564   3.767   3.438   2.000
 5441WAT     H116565   3.709   3.464   1.923
 5441WAT     H216566   3.714   3.383   2.065
 5442WAT      O16567   9.059   0.774   0.463
 5442WAT     H116568   8.969   0.746   0.429
 5442WAT     H216569   9.083   0.863   0.424
 5443WAT      O16570   5.725   6.977   4.248
 5443WAT     H116571   5.813   6.989   4.294
 5443WAT     H216572   5.740   6.959   4.151
 5444WAT      O16573   9.831   0.936   8.175
 5444WAT     H116574   9.748   0.933   8.119
 5444WAT     H216575   9.904   0.884   8.130
 5445WAT      O16576   3.969   6.255   6.304
 5445WAT     H116577   3.905   6.254   6.381
 5445WAT     H216578   3.936   6.317   6.233
 5446WAT      O16579   0.979   3.175   9.417
 5446WAT     H116580   0.947   3.241   9.485
 5446WAT     H216581   1.005   3.090   9.463
 5447WAT      O16582   9.494   4.460   7.902
 5447WAT     H116583   9.552   4.409   7.965
 5447WAT     H216584   9.398   4.438   7.919
 5448WAT      O16585   7.642   2.269   2.087
 5448WAT     H116586   7.585   2.351   2.086
 5448WAT     H216587   7.733   2.292   2.121
 5449WAT      O16588   5.153   7.855   0.052
 5449WAT     H116589   5.238   7.902   0.028
 5449WAT     H216590   5.128   7.793  -0.022
 5450WAT      O16591   0.847   5.906   6.583
 5450WAT     H116592   0.856   5.896   6.484
 5450WAT     H216593   0.828   6.002   6.605
 5451WAT      O16594   8.105   4.531   9.749
 5451WAT     H116595   8.183   4.546   9.809
 5451WAT     H216596   8.049   4.613   9.747
 5452WAT      O16597   9.822   1.323   4.898
 5452WAT     H116598   9.914   1.343   4.866
 5452WAT     H216599   9.819   1.231   4.938
 5453WAT      O16600   0.091   7.467   1.265
 5453WAT     H116601   0.011   7.411   1.241
 5453WAT     H216602   0.149   7.478   1.184
 5454WAT      O16603   2.997   3.383   7.556
 5454WAT     H116604   2.934   3.455   7.526
 5454WAT     H216605   2.985   3.368   7.654
 5455WAT      O16606   9.767   8.369   6.439
 5455WAT     H116607   9.757   8.294   6.505
 5455WAT     H216608   9.802   8.332   6.352
 5456WAT      O16609   0.927   3.898   8.783
 5456WAT     H116610   0.839   3.943   8.802
 5456WAT     H216611   0.948   3.835   8.858
 5457WAT      O16612   0.324   8.882   7.964
 5457WAT     H116613   0.405   8.874   7.905
 5457WAT     H216614   0.257   8.812   7.938
 5458WAT      O16615   3.594   2.450   0.949
 5458WAT     H116616   3.600   2.522   1.018
 5458WAT     H216617   3.665   2.382   0.965
 5459WAT      O16618   3.366   4.827   9.733
 5459WAT     H116619   3.360   4.776   9.647
 5459WAT     H216620   3.458   4.865   9.743
 5460WAT      O16621   5.718   1.770   5.582
 5460WAT     H116622   5.761   1.733   5.664
 5460WAT     H216623   5.670   1.697   5.533
 5461WAT      O16624   1.675   3.476   0.873
 5461WAT     H116625   1.648   3.380   0.886
 5461WAT     H216626   1.767   3.479   0.832
 5462WAT      O16627   8.549   8.753   0.832
 5462WAT     H116628   8.620   8.683   0.833
 5462WAT     H216629   8.459   8.710   0.829
 5463WAT      O16630   3.513   0.063   3.411
 5463WAT     H116631   3.562  -0.024   3.397
 5463WAT     H216632   3.544   0.105   3.496
 5464WAT      O16633   8.250   5.319   3.127
 5464WAT     H116634   8.236   5.303   3.030
 5464WAT     H216635   8.184   5.265   3.180
 5465WAT      O16636   2.911   4.025   8.912
 5465WAT     H116637   2.885   4.015   9.008
 5465WAT     H216638   2.939   4.119   8.895
 5466WAT      O16639   7.004   3.669   7.042
 5466WAT     H116640   6.956   3.625   7.118
 5466WAT     H216641   6.984   3.621   6.957
 5467WAT      O16642   2.950   5.322   7.900
 5467WAT     H116643   2.973   5.401   7.957
 5467WAT     H216644   2.875   5.346   7.838
 5468WAT      O16645   6.763   9.000   9.866
 5468WAT     H116646   6.739   9.096   9.853
 5468WAT     H216647   6.682   8.943   9.854
 5469WAT      O16648   8.629   3.818   3.503
 5469WAT     H116649   8.642   3.789   3.598
 5469WAT     H216650   8.551   3.770   3.464
 5470WAT      O16651   4.182   3.885   1.092
 5470WAT     H116652   4.243   3.868   1.169
 5470WAT     H216653   4.087   3.879   1.123
 5471WAT      O16654   9.142   5.266   2.679
 5471WAT     H116655   9.066   5.213   2.717
 5471WAT     H216656   9.195   5.307   2.753
 5472WAT      O16657   4.048   3.180   2.623
 5472WAT     H116658   3.985   3.231   2.564
 5472WAT     H216659   4.112   3.128   2.567
 5473WAT      O16660   1.856   7.142   8.453
 5473WAT     H116661   1.804   7.220   8.489
 5473WAT     H216662   1.793   7.067   8.432
 5474WAT      O16663   5.496   6.727   9.413
 5474WAT     H116664   5.596   6.730   9.408
 5474WAT     H216665   5.459   6.701   9.324
 5475WAT      O16666   7.253   6.379   0.426
 5475WAT     H116667   7.343   6.417   0.405
 5475WAT     H216668   7.211   6.344   0.342
 5476WAT      O16669   9.162   3.944   0.244
 5476WAT     H116670   9.070   3.910   0.264
 5476WAT     H216671   9.187   4.013   0.312
 5477WAT      O16672   3.172   0.172   4.921
 5477WAT     H116673   3.209   0.113   4.849
 5477WAT     H216674   3.102   0.232   4.882
 5478WAT      O16675   7.695   8.617   8.813
 5478WAT     H116676   7.625   8.634   8.882
 5478WAT     H216677   7.784   8.609   8.857
 5479WAT      O16678   9.244   3.736   8.517
 5479WAT     H116679   9.268   3.687   8.433
 5479WAT     H216680   9.172   3.686   8.566
 5480WAT      O16681   6.927   7.580   9.260
 5480WAT     H116682   6.963   7.640   9.331
 5480WAT     H216683   6.870   7.509   9.301
 5481WAT      O16684   7.923   7.917   5.415
 5481WAT     H116685   8.011   7.954   5.443
 5481WAT     H216686   7.875   7.983   5.357
 5482WAT      O16687   8.205   1.251   1.369
 5482WAT     H116688   8.112   1.222   1.392
 5482WAT     H216689   8.269   1.213   1.435
 5483WAT      O16690   4.739   1.796   2.563
 5483WAT     H116691   4.677   1.850   2.506
 5483WAT     H216692   4.745   1.837   2.654
 5484WAT      O16693   4.605   0.425   0.396
 5484WAT     H116694   4.618   0.364   0.475
 5484WAT     H216695   4.523   0.481   0.411
 5485WAT      O16696   7.270   3.352   2.798
 5485WAT     H116697   7.189   3.295   2.799
 5485WAT     H216698   7.326   3.333   2.879
 5486WAT      O16699   8.198   6.164   7.735
 5486WAT     H116700   8.294   6.174   7.758
 5486WAT     H216701   8.142   6.220   7.796
 5487WAT      O16702   5.399   0.371   0.891
 5487WAT     H116703   5.359   0.378   0.982
 5487WAT     H216704   5.449   0.455   0.870
 5488WAT      O16705   5.531   0.510   0.016
 5488WAT     H116706   5.495   0.537  -0.074
 5488WAT     H216707   5.459   0.521   0.084
 5489WAT      O16708   3.867   9.028   7.358
 5489WAT     H116709   3.852   9.032   7.457
 5489WAT     H216710   3.786   9.064   7.311
 5490WAT      O16711   0.180   5.272   1.786
 5490WAT     H116712   0.268   5.224   1.780
 5490WAT     H216713   0.188   5.362   1.744
 5491WAT      O16714   8.541   6.423   5.881
 5491WAT     H116715   8.632   6.444   5.843
 5491WAT     H216716   8.498   6.353   5.825
 5492WAT      O16717   8.917   7.440   9.075
 5492WAT     H116718   8.965   7.457   8.988
 5492WAT     H216719   8.924   7.520   9.134
 5493WAT      O16720   4.785   7.566   2.368
 5493WAT     H116721   4.867   7.513   2.389
 5493WAT     H216722   4.806   7.664   2.373
 5494WAT      O16723   5.454   4.256   6.492
 5494WAT     H116724   5.511   4.239   6.411
 5494WAT     H216725   5.412   4.346   6.485
 5495WAT      O16726   9.491   9.611   2.544
 5495WAT     H116727   9.414   9.658   2.501
 5495WAT     H216728   9.475   9.604   2.643
 5496WAT      O16729   2.970   3.256   5.216
 5496WAT     H116730   3.053   3.201   5.219
 5496WAT     H216731   2.953   3.287   5.122
 5497WAT      O16732   0.149   2.679   7.825
 5497WAT     H116733   0.168   2.591   7.870
 5497WAT     H216734   0.150   2.667   7.726
 5498WAT      O16735   2.424   7.758   3.100
 5498WAT     H116736   2.523   7.774   3.092
 5498WAT     H216737   2.376   7.811   3.030
 5499WAT      O16738   3.372   8.808   5.792
 5499WAT     H116739   3.275   8.783   5.792
 5499WAT     H216740   3.405   8.814   5.886
 5500WAT      O16741   4.805   8.668   9.124
 5500WAT     H116742   4.824   8.570   9.132
 5500WAT     H216743   4.808   8.695   9.027
 5501WAT      O16744   8.280   1.148   4.395
 5501WAT     H116745   8.210   1.148   4.466
 5501WAT     H216746   8.249   1.204   4.318
 5502WAT      O16747   5.770   1.527   7.800
 5502WAT     H116748   5.724   1.601   7.848
 5502WAT     H216749   5.855   1.503   7.849
 5503WAT      O16750   3.568   9.780   9.830
 5503WAT     H116751   3.497   9.731   9.780
 5503WAT     H216752   3.527   9.856   9.881
 5504WAT      O16753   1.993   1.412   0.096
 5504WAT     H116754   2.062   1.476   0.062
 5504WAT     H216755   1.957   1.356   0.021
 5505WAT      O16756   6.945   0.974   9.807
 5505WAT     H116757   7.007   0.896   9.797
 5505WAT     H216758   6.852   0.941   9.822
 5506WAT      O16759   0.079   2.487   1.246
 5506WAT     H116760   0.006   2.531   1.195
 5506WAT     H216761   0.048   2.466   1.339
 5507WAT      O16762   0.553   6.382   8.171
 5507WAT     H116763   0.641   6.336   8.171
 5507WAT     H216764   0.504   6.359   8.087
 5508WAT      O16765   0.119   4.483   6.176
 5508WAT     H116766   0.129   4.581   6.160
 5508WAT     H216767   0.187   4.434   6.121
 5509WAT      O16768   1.568   7.842   4.201
 5509WAT     H116769   1.506   7.902   4.150
 5509WAT     H216770   1.515   7.770   4.246
 5510WAT      O16771   6.849   0.816   3.184
 5510WAT     H116772   6.942   0.808   3.219
 5510WAT     H216773   6.809   0.902   3.215
 5511WAT      O16774   6.313   8.035   0.446
 5511WAT     H116775   6.402   8.041   0.492
 5511WAT     H216776   6.276   8.127   0.433
 5512WAT      O16777   7.461   2.467   2.045
 5512WAT     H116778   7.373   2.499   2.012
 5512WAT     H216779   7.518   2.546   2.069
 5513WAT      O16780   4.112   1.671   9.206
 5513WAT     H116781   4.040   1.655   9.139
 5513WAT     H216782   4.201   1.674   9.161
 5514WAT      O16783   5.909   9.403   0.057
 5514WAT     H116784   5.908   9.321   0.113
 5514WAT     H216785   5.992   9.456   0.076
 5515WAT      O16786   5.944   6.857   2.238
 5515WAT     H116787   5.915   6.795   2.311
 5515WAT     H216788   5.902   6.828   2.151
 5516WAT      O16789   2.972   3.574   6.737
 5516WAT     H116790   2.934   3.503   6.797
 5516WAT     H216791   2.897   3.622   6.692
 5517WAT      O16792   9.302   4.908   3.078
 5517WAT     H116793   9.276   4.825   3.127
 5517WAT     H216794   9.384   4.890   3.024
 5518WAT      O16795   0.403   5.337   4.847
 5518WAT     H116796   0.500   5.318   4.836
 5518WAT     H216797   0.349   5.263   4.808
 5519WAT      O16798   5.704   7.908   1.796
 5519WAT     H116799   5.716   7.931   1.893
 5519WAT     H216800   5.687   7.992   1.744
 5520WAT      O16801   0.627   3.613   1.971
 5520WAT     H116802   0.690   3.608   1.894
 5520WAT     H216803   0.535   3.633   1.938
 5521WAT      O16804   8.971   5.087   2.767
 5521WAT     H116805   8.985   5.053   2.860
 5521WAT     H216806   8.894   5.040   2.725
 5522WAT      O16807   5.071   3.038   3.130
 5522WAT     H116808   5.090   3.059   3.035
 5522WAT     H216809   4.973   3.043   3.147
 5523WAT      O16810   6.760   2.255   6.107
 5523WAT     H116811   6.680   2.314   6.118
 5523WAT     H216812   6.807   2.245   6.195
 5524WAT      O16813   9.817   7.282   3.299
 5524WAT     H116814   9.854   7.194   3.328
 5524WAT     H216815   9.837   7.296   3.202
 5525WAT      O16816   0.170   7.971   1.726
 5525WAT     H116817   0.259   7.934   1.698
 5525WAT     H216818   0.103   7.954   1.654
 5526WAT      O16819   0.234   3.648   1.520
 5526WAT     H116820   0.238   3.568   1.580
 5526WAT     H216821   0.305   3.643   1.451
 5527WAT      O16822   6.116   8.470   0.517
 5527WAT     H116823   6.126   8.566   0.544
 5527WAT     H216824   6.136   8.461   0.419
 5528WAT      O16825   7.278   2.140   9.835
 5528WAT     H116826   7.364   2.091   9.828
 5528WAT     H216827   7.204   2.075   9.856
 5529WAT      O16828   0.086   5.839   4.798
 5529WAT     H116829   0.049   5.928   4.824
 5529WAT     H216830   0.123   5.844   4.706
 5530WAT      O16831   9.439   8.476   1.788
 5530WAT     H116832   9.458   8.513   1.697
 5530WAT     H216833   9.403   8.549   1.846
 5531WAT      O16834   2.366   3.954   9.715
 5531WAT     H116835   2.360   3.985   9.810
 5531WAT     H216836   2.342   4.029   9.654
 5532WAT      O16837   0.061   6.254   7.214
 5532WAT     H116838   0.081   6.254   7.116
 5532WAT     H216839   0.095   6.170   7.256
 5533WAT      O16840   1.268   8.565   8.605
 5533WAT     H116841   1.198   8.524   8.546
 5533WAT     H216842   1.250   8.540   8.700
 5534WAT      O16843   0.333   4.416   0.898
 5534WAT     H116844   0.287   4.361   0.967
 5534WAT     H216845   0.308   4.512   0.910
 5535WAT      O16846   5.698   8.222   0.423
 5535WAT     H116847   5.637   8.149   0.391
 5535WAT     H216848   5.785   8.217   0.374
 5536WAT      O16849   7.338   0.122   2.736
 5536WAT     H116850   7.377   0.056   2.800
 5536WAT     H216851   7.411   0.172   2.690
 5537WAT      O16852   0.902   9.339   2.186
 5537WAT     H116853   0.873   9.402   2.258
 5537WAT     H216854   0.934   9.253   2.227
 5538WAT      O16855   7.726   2.468   6.333
 5538WAT     H116856   7.704   2.396   6.399
 5538WAT     H216857   7.751   2.427   6.245
 5539WAT      O16858   4.333   2.798   9.829
 5539WAT     H116859   4.334   2.890   9.791
 5539WAT     H216860   4.425   2.772   9.857
 5540WAT      O16861   8.983   5.840   8.759
 5540WAT     H116862   8.925   5.920   8.772
 5540WAT     H216863   8.936   5.758   8.792
 5541WAT      O16864   6.062   1.321   2.192
 5541WAT     H116865   6.062   1.228   2.157
 5541WAT     H216866   6.125   1.329   2.269
 5542WAT      O16867   4.261   2.594   1.315
 5542WAT     H116868   4.280   2.589   1.413
 5542WAT     H216869   4.291   2.510   1.271
 5543WAT      O16870   3.552   5.377   1.823
 5543WAT     H116871   3.529   5.328   1.907
 5543WAT     H216872   3.612   5.320   1.767
 5544WAT      O16873   1.947   1.631   2.526
 5544WAT     H116874   2.012   1.632   2.602
 5544WAT     H216875   1.859   1.665   2.556
 5545WAT      O16876   5.692   0.592   8.198
 5545WAT     H116877   5.646   0.525   8.255
 5545WAT     H216878   5.624   0.645   8.147
 5546WAT      O16879   3.132   8.323   1.204
 5546WAT     H116880   3.206   8.336   1.137
 5546WAT     H216881   3.088   8.411   1.222
 5547WAT      O16882   1.926   7.992   0.075
 5547WAT     H116883   2.015   7.951   0.095
 5547WAT     H216884   1.932   8.042  -0.012
 5548WAT      O16885   8.994   6.909   9.182
 5548WAT     H116886   8.914   6.848   9.178
 5548WAT     H216887   8.964   7.004   9.172
 5549WAT      O16888   5.870   0.420   9.872
 5549WAT     H116889   5.841   0.418   9.776
 5549WAT     H216890   5.962   0.459   9.878
 5550WAT      O16891   5.971   8.739   3.933
 5550WAT     H116892   5.982   8.724   3.835
 5550WAT     H216893   5.880   8.710   3.961
 5551WAT      O16894   1.353   8.182   8.644
 5551WAT     H116895   1.306   8.201   8.558
 5551WAT     H216896   1.434   8.241   8.651
 5552WAT      O16897   7.355   1.778   3.008
 5552WAT     H116898   7.344   1.795   2.910
 5552WAT     H216899   7.274   1.729   3.042
 5553WAT      O16900   6.841   4.521   3.259
 5553WAT     H116901   6.902   4.563   3.192
 5553WAT     H216902   6.865   4.425   3.270
 5554WAT      O16903   5.455   2.663   4.399
 5554WAT     H116904   5.370   2.611   4.392
 5554WAT     H216905   5.529   2.602   4.430
 5555WAT      O16906   6.015   4.061   8.258
 5555WAT     H116907   6.099   4.113   8.251
 5555WAT     H216908   6.023   3.994   8.331
 5556WAT      O16909   4.099   1.077   6.881
 5556WAT     H116910   4.059   1.122   6.801
 5556WAT     H216911   4.187   1.038   6.857
 5557WAT      O16912   3.681   1.985   5.111
 5557WAT     H116913   3.603   1.974   5.050
 5557WAT     H216914   3.664   2.062   5.173
 5558WAT      O16915   4.614   2.381   4.267
 5558WAT     H116916   4.544   2.321   4.228
 5558WAT     H216917   4.594   2.476   4.242
 5559WAT      O16918   0.990   5.444   5.663
 5559WAT     H116919   0.970   5.538   5.688
 5559WAT     H216920   1.075   5.415   5.706
 5560WAT      O16921   1.061   7.450   5.022
 5560WAT     H116922   1.081   7.548   5.021
 5560WAT     H216923   1.115   7.407   5.094
 5561WAT      O16924   0.131   0.263   0.248
 5561WAT     H116925   0.083   0.307   0.324
 5561WAT     H216926   0.067   0.206   0.197
 5562WAT      O16927   4.741   8.742   0.971
 5562WAT     H116928   4.672   8.678   1.004
 5562WAT     H216929   4.800   8.769   1.047
 5563WAT      O16930   1.998   2.515   3.151
 5563WAT     H116931   1.981   2.496   3.248
 5563WAT     H216932   1.998   2.613   3.136
 5564WAT      O16933   1.744   3.072   8.689
 5564WAT     H116934   1.798   3.019   8.624
 5564WAT     H216935   1.730   3.164   8.652
 5565WAT      O16936   5.140   8.877   6.773
 5565WAT     H116937   5.049   8.855   6.736
 5565WAT     H216938   5.210   8.829   6.720
 5566WAT      O16939   8.042   3.891   8.243
 5566WAT     H116940   8.103   3.869   8.319
 5566WAT     H216941   8.010   3.986   8.252
 5567WAT      O16942   9.208   7.709   0.711
 5567WAT     H116943   9.218   7.786   0.647
 5567WAT     H216944   9.207   7.623   0.660
 5568WAT      O16945   1.237   7.766   2.703
 5568WAT     H116946   1.286   7.679   2.715
 5568WAT     H216947   1.248   7.822   2.785
 5569WAT      O16948   9.021   5.441   9.448
 5569WAT     H116949   8.991   5.366   9.388
 5569WAT     H216950   9.032   5.407   9.541
 5570WAT      O16951   5.402   2.393   0.275
 5570WAT     H116952   5.471   2.335   0.231
 5570WAT     H216953   5.384   2.360   0.367
 5571WAT      O16954   4.190   7.863   5.614
 5571WAT     H116955   4.145   7.774   5.618
 5571WAT     H216956   4.123   7.932   5.587
 5572WAT      O16957   7.927   0.695   3.085
 5572WAT     H116958   7.834   0.724   3.107
 5572WAT     H216959   7.933   0.673   2.988
 5573WAT      O16960   2.648   9.709   5.769
 5573WAT     H116961   2.746   9.696   5.789
 5573WAT     H216962   2.633   9.802   5.736
 5574WAT      O16963   9.787   8.323   9.291
 5574WAT     H116964   9.734   8.382   9.353
 5574WAT     H216965   9.807   8.372   9.207
 5575WAT      O16966   3.754   2.078   9.825
 5575WAT     H116967   3.797   2.051   9.739
 5575WAT     H216968   3.669   2.127   9.806
 5576WAT      O16969   8.988   6.075   4.474
 5576WAT     H116970   8.967   6.172   4.461
 5576WAT     H216971   8.944   6.043   4.558
 5577WAT      O16972   8.344   6.531   5.561
 5577WAT     H116973   8.268   6.522   5.626
 5577WAT     H216974   8.330   6.612   5.504
 5578WAT      O16975   9.144   8.660   0.173
 5578WAT     H116976   9.160   8.696   0.265
 5578WAT     H216977   9.198   8.577   0.159
 5579WAT      O16978   5.074   6.735   0.342
 5579WAT     H116979   5.116   6.661   0.290
 5579WAT     H216980   5.121   6.821   0.322
 5580WAT      O16981   0.282   7.624   2.870
 5580WAT     H116982   0.292   7.689   2.795
 5580WAT     H216983   0.342   7.545   2.854
 5581WAT      O16984   8.670   1.198   2.357
 5581WAT     H116985   8.700   1.155   2.442
 5581WAT     H216986   8.721   1.160   2.281
 5582WAT      O16987   6.349   9.305   4.884
 5582WAT     H116988   6.305   9.390   4.911
 5582WAT     H216989   6.426   9.285   4.945
 5583WAT      O16990   3.576   9.588   0.382
 5583WAT     H116991   3.627   9.530   0.446
 5583WAT     H216992   3.631   9.603   0.300
 5584WAT      O16993   7.859   6.279   2.374
 5584WAT     H116994   7.930   6.280   2.304
 5584WAT     H216995   7.798   6.201   2.360
 5585WAT      O16996   5.936   8.123   2.858
 5585WAT     H116997   6.016   8.063   2.849
 5585WAT     H216998   5.863   8.092   2.797
 5586WAT      O16999   8.076   2.694   0.140
 5586WAT     H117000   8.173   2.700   0.117
 5586WAT     H217001   8.033   2.621   0.087
 5587WAT      O17002   1.866   9.013   5.069
 5587WAT     H117003   1.796   8.944   5.088
 5587WAT     H217004   1.955   8.968   5.061
 5588WAT      O17005   6.879   3.397   1.254
 5588WAT     H117006   6.915   3.438   1.171
 5588WAT     H217007   6.779   3.399   1.252
 5589WAT      O17008   5.996   1.709   7.222
 5589WAT     H117009   5.960   1.769   7.293
 5589WAT     H217010   5.933   1.707   7.144
 5590WAT      O17011   6.362   8.679   4.332
 5590WAT     H117012   6.296   8.704   4.262
 5590WAT     H217013   6.317   8.624   4.403
 5591WAT      O17014   7.657   5.259   8.364
 5591WAT     H117015   7.598   5.324   8.316
 5591WAT     H217016   7.721   5.308   8.423
 5592WAT      O17017   7.010   8.424   6.066
 5592WAT     H117018   7.001   8.510   6.016
 5592WAT     H217019   7.016   8.442   6.164
 5593WAT      O17020   4.353   1.220   4.462
 5593WAT     H117021   4.259   1.239   4.491
 5593WAT     H217022   4.351   1.163   4.379
 5594WAT      O17023   5.754   8.190   8.749
 5594WAT     H117024   5.741   8.147   8.660
 5594WAT     H217025   5.817   8.267   8.740
 5595WAT      O17026   2.433   0.465   4.425
 5595WAT     H117027   2.336   0.474   4.445
 5595WAT     H217028   2.467   0.379   4.463
 5596WAT      O17029   8.794   7.401   8.624
 5596WAT     H117030   8.725   7.413   8.696
 5596WAT     H217031   8.771   7.458   8.546
 5597WAT      O17032   5.803   2.705   1.719
 5597WAT     H117033   5.797   2.613   1.681
 5597WAT     H217034   5.717   2.728   1.765
 5598WAT      O17035   1.221   9.725   7.635
 5598WAT     H117036   1.155   9.766   7.573
 5598WAT     H217037   1.195   9.745   7.730
 5599WAT      O17038   0.712   0.206   5.351
 5599WAT     H117039   0.727   0.280   5.285
 5599WAT     H217040   0.632   0.153   5.323
 5600WAT      O17041   8.142   4.583   5.997
 5600WAT     H117042   8.223   4.549   6.044
 5600WAT     H217043   8.171   4.635   5.916
 5601WAT      O17044   8.301   2.731   7.053
 5601WAT     H117045   8.371   2.708   7.121
 5601WAT     H217046   8.254   2.649   7.023
 5602WAT      O17047   8.104   5.546   7.544
 5602WAT     H117048   8.044   5.561   7.623
 5602WAT     H217049   8.155   5.461   7.558
 5603WAT      O17050   6.703   1.260   1.167
 5603WAT     H117051   6.677   1.350   1.133
 5603WAT     H217052   6.721   1.265   1.265
 5604WAT      O17053   1.486   1.812   5.445
 5604WAT     H117054   1.530   1.839   5.531
 5604WAT     H217055   1.389   1.835   5.448
 5605WAT      O17056   2.950   1.115   1.219
 5605WAT     H117057   2.851   1.112   1.206
 5605WAT     H217058   2.993   1.042   1.166
 5606WAT      O17059   1.916   2.825   8.259
 5606WAT     H117060   2.009   2.797   8.281
 5606WAT     H217061   1.917   2.884   8.179
 5607WAT      O17062   3.013   9.638   3.659
 5607WAT     H117063   2.955   9.685   3.726
 5607WAT     H217064   3.042   9.703   3.588
 5608WAT      O17065   8.292   7.913   0.568
 5608WAT     H117066   8.265   7.873   0.481
 5608WAT     H217067   8.215   7.909   0.632
 5609WAT      O17068   2.018   0.381   3.504
 5609WAT     H117069   1.996   0.400   3.408
 5609WAT     H217070   1.982   0.454   3.562
 5610WAT      O17071   4.942   6.195   6.256
 5610WAT     H117072   4.930   6.098   6.235
 5610WAT     H217073   4.892   6.217   6.340
 5611WAT      O17074   6.831   7.736   6.525
 5611WAT     H117075   6.883   7.657   6.557
 5611WAT     H217076   6.768   7.765   6.597
 5612WAT      O17077   0.934   2.611   9.276
 5612WAT     H117078   0.986   2.643   9.355
 5612WAT     H217079   0.891   2.689   9.231
 5613WAT      O17080   5.486   3.280   3.690
 5613WAT     H117081   5.524   3.200   3.645
 5613WAT     H217082   5.395   3.259   3.725
 5614WAT      O17083   8.426   5.960   5.945
 5614WAT     H117084   8.397   5.912   5.863
 5614WAT     H217085   8.455   5.894   6.015
 5615WAT      O17086   0.323   5.163   1.201
 5615WAT     H117087   0.298   5.184   1.296
 5615WAT     H217088   0.253   5.199   1.139
 5616WAT      O17089   8.889   4.454   1.667
 5616WAT     H117090   8.885   4.513   1.586
 5616WAT     H217091   8.797   4.443   1.704
 5617WAT      O17092   6.028   0.973   9.036
 5617WAT     H117093   6.064   0.923   9.114
 5617WAT     H217094   5.957   1.037   9.067
 5618WAT      O17095   5.229   0.306   7.663
 5618WAT     H117096   5.236   0.383   7.727
 5618WAT     H217097   5.320   0.266   7.650
 5619WAT      O17098   9.539   3.888   4.130
 5619WAT     H117099   9.585   3.813   4.083
 5619WAT     H217100   9.467   3.925   4.071
 5620WAT      O17101   1.332   1.262   1.754
 5620WAT     H117102   1.312   1.181   1.807
 5620WAT     H217103   1.371   1.235   1.665
 5621WAT      O17104   8.108   5.578   9.013
 5621WAT     H117105   8.136   5.667   8.980
 5621WAT     H217106   8.094   5.582   9.112
 5622WAT      O17107   5.629   1.391   5.981
 5622WAT     H117108   5.572   1.417   5.903
 5622WAT     H217109   5.634   1.291   5.987
 5623WAT      O17110   0.327   8.918   1.014
 5623WAT     H117111   0.358   8.958   1.100
 5623WAT     H217112   0.339   8.818   1.018
 5624WAT      O17113   8.452   2.282   8.089
 5624WAT     H117114   8.451   2.232   8.176
 5624WAT     H217115   8.361   2.277   8.047
 5625WAT      O17116   1.417   9.767   1.911
 5625WAT     H117117   1.475   9.759   1.992
 5625WAT     H217118   1.359   9.686   1.904
 5626WAT      O17119   2.807   7.084   0.975
 5626WAT     H117120   2.853   7.042   0.897
 5626WAT     H217121   2.770   7.173   0.948
 5627WAT      O17122   4.240   8.247   5.569
 5627WAT     H117123   4.205   8.329   5.523
 5627WAT     H217124   4.279   8.272   5.657
 5628WAT      O17125   6.254   8.221   8.649
 5628WAT     H117126   6.223   8.183   8.562
 5628WAT     H217127   6.190   8.195   8.721
 5629WAT      O17128   8.482   9.518   7.383
 5629WAT     H117129   8.524   9.428   7.396
 5629WAT     H217130   8.408   9.529   7.449
 5630WAT      O17131   1.773   1.158   8.745
 5630WAT     H117132   1.761   1.209   8.830
 5630WAT     H217133   1.801   1.064   8.766
 5631WAT      O17134   8.258   1.771   4.932
 5631WAT     H117135   8.317   1.788   5.011
 5631WAT     H217136   8.249   1.672   4.917
 5632WAT      O17137   7.050   6.406   5.749
 5632WAT     H117138   7.145   6.404   5.783
 5632WAT     H217139   7.036   6.331   5.685
 5633WAT      O17140   7.415   4.468   5.356
 5633WAT     H117141   7.442   4.552   5.403
 5633WAT     H217142   7.402   4.486   5.259
 5634WAT      O17143   0.412   3.473   3.452
 5634WAT     H117144   0.315   3.484   3.474
 5634WAT     H217145   0.466   3.538   3.505
 5635WAT      O17146   3.851   6.244   0.078
 5635WAT     H117147   3.916   6.264   0.004
 5635WAT     H217148   3.902   6.220   0.161
 5636WAT      O17149   9.826   1.196   2.900
 5636WAT     H117150   9.784   1.235   2.818
 5636WAT     H217151   9.765   1.210   2.978
 5637WAT      O17152   0.958   0.341   4.089
 5637WAT     H117153   0.888   0.368   4.023
 5637WAT     H217154   0.933   0.253   4.130
 5638WAT      O17155   1.586   9.306   6.467
 5638WAT     H117156   1.592   9.303   6.368
 5638WAT     H217157   1.673   9.277   6.507
 5639WAT      O17158   5.352   6.427   8.096
 5639WAT     H117159   5.309   6.345   8.135
 5639WAT     H217160   5.295   6.463   8.023
 5640WAT      O17161   2.011   4.302   6.107
 5640WAT     H117162   1.948   4.277   6.180
 5640WAT     H217163   2.099   4.329   6.146
 5641WAT      O17164   3.289   2.533   4.656
 5641WAT     H117165   3.215   2.579   4.606
 5641WAT     H217166   3.375   2.543   4.606
 5642WAT      O17167   2.711   7.516   8.966
 5642WAT     H117168   2.635   7.457   8.939
 5642WAT     H217169   2.732   7.579   8.892
 5643WAT      O17170   6.218   9.331   0.477
 5643WAT     H117171   6.206   9.345   0.575
 5643WAT     H217172   6.134   9.357   0.429
 5644WAT      O17173   7.765   2.786   3.541
 5644WAT     H117174   7.675   2.798   3.499
 5644WAT     H217175   7.800   2.875   3.572
 5645WAT      O17176   4.917   9.595   7.451
 5645WAT     H117177   5.010   9.630   7.437
 5645WAT     H217178   4.918   9.495   7.453
 5646WAT      O17179   7.952   1.619   7.567
 5646WAT     H117180   8.033   1.561   7.568
 5646WAT     H217181   7.970   1.702   7.514
 5647WAT      O17182   8.637   2.939   6.658
 5647WAT     H117183   8.571   2.865   6.656
 5647WAT     H217184   8.672   2.950   6.750
 5648WAT      O17185   6.369   5.185   4.712
 5648WAT     H117186   6.327   5.272   4.689
 5648WAT     H217187   6.298   5.115   4.719
 5649WAT      O17188   5.751   8.070   2.669
 5649WAT     H117189   5.752   7.970   2.660
 5649WAT     H217190   5.794   8.111   2.589
 5650WAT      O17191   8.822   6.011   2.371
 5650WAT     H117192   8.752   6.023   2.442
 5650WAT     H217193   8.823   5.915   2.341
 5651WAT      O17194   4.539   4.809   3.313
 5651WAT     H117195   4.619   4.855   3.351
 5651WAT     H217196   4.473   4.790   3.386
 5652WAT      O17197   8.443   3.060   2.119
 5652WAT     H117198   8.386   3.104   2.049
 5652WAT     H217199   8.507   3.127   2.157
 5653WAT      O17200   0.135   9.612   3.655
 5653WAT     H117201   0.166   9.695   3.608
 5653WAT     H217202   0.192   9.535   3.628
 5654WAT      O17203   0.955   4.905   8.730
 5654WAT     H117204   1.036   4.936   8.680
 5654WAT     H217205   0.899   4.984   8.756
 5655WAT      O17206   3.151   5.329   9.085
 5655WAT     H117207   3.130   5.237   9.118
 5655WAT     H217208   3.113   5.342   8.993
 5656WAT      O17209   5.110   7.486   3.702
 5656WAT     H117210   5.128   7.419   3.774
 5656WAT     H217211   5.131   7.578   3.736
 5657WAT      O17212   2.827   5.096   3.145
 5657WAT     H117213   2.758   5.026   3.131
 5657WAT     H217214   2.845   5.106   3.243
 5658WAT      O17215   0.146   3.728   7.244
 5658WAT     H117216   0.096   3.642   7.247
 5658WAT     H217217   0.235   3.714   7.201
 5659WAT      O17218   1.893   0.161   3.621
 5659WAT     H117219   1.959   0.228   3.588
 5659WAT     H217220   1.800   0.194   3.604
 5660WAT      O17221   1.531   3.628   9.490
 5660WAT     H117222   1.550   3.544   9.540
 5660WAT     H217223   1.466   3.683   9.542
 5661WAT      O17224   0.290   7.833   8.513
 5661WAT     H117225   0.194   7.834   8.485
 5661WAT     H217226   0.341   7.770   8.455
 5662WAT      O17227   8.806   1.011   6.237
 5662WAT     H117228   8.895   0.966   6.235
 5662WAT     H217229   8.737   0.949   6.274
 5663WAT      O17230   9.834   8.565   7.911
 5663WAT     H117231   9.759   8.629   7.926
 5663WAT     H217232   9.840   8.501   7.988
 5664WAT      O17233   9.308   0.280   8.796
 5664WAT     H117234   9.235   0.271   8.863
 5664WAT     H217235   9.274   0.328   8.715
 5665WAT      O17236   4.924   2.583   2.158
 5665WAT     H117237   4.964   2.658   2.106
 5665WAT     H217238   4.901   2.508   2.096
 5666WAT      O17239   7.794   7.113   0.805
 5666WAT     H117240   7.832   7.094   0.714
 5666WAT     H217241   7.865   7.098   0.874
 5667WAT      O17242   8.174   0.559   6.083
 5667WAT     H117243   8.204   0.496   6.011
 5667WAT     H217244   8.193   0.519   6.173
 5668WAT      O17245   5.294   3.236   2.721
 5668WAT     H117246   5.317   3.317   2.667
 5668WAT     H217247   5.302   3.154   2.663
 5669WAT      O17248   3.107   1.166   3.840
 5669WAT     H117249   3.060   1.178   3.927
 5669WAT     H217250   3.206   1.163   3.856
 5670WAT      O17251   2.763   2.193   5.234
 5670WAT     H117252   2.744   2.104   5.195
 5670WAT     H217253   2.850   2.191   5.283
 5671WAT      O17254   4.499   2.668   5.331
 5671WAT     H117255   4.438   2.596   5.363
 5671WAT     H217256   4.552   2.634   5.253
 5672WAT      O17257   5.519   6.653   2.749
 5672WAT     H117258   5.483   6.709   2.825
 5672WAT     H217259   5.483   6.560   2.757
 5673WAT      O17260   6.934   2.684   7.681
 5673WAT     H117261   6.943   2.746   7.603
 5673WAT     H217262   6.849   2.704   7.729
 5674WAT      O17263   7.044   6.716   6.511
 5674WAT     H117264   7.051   6.814   6.529
 5674WAT     H217265   7.077   6.665   6.591
 5675WAT      O17266   9.784   1.088   5.044
 5675WAT     H117267   9.721   1.011   5.044
 5675WAT     H217268   9.877   1.055   5.057
 5676WAT      O17269   2.046   1.702   9.858
 5676WAT     H117270   2.102   1.773   9.815
 5676WAT     H217271   1.983   1.664   9.790
 5677WAT      O17272   7.657   5.474   0.463
 5677WAT     H117273   7.574   5.512   0.504
 5677WAT     H217274   7.704   5.416   0.530
 5678WAT      O17275   2.314   4.568   2.824
 5678WAT     H117276   2.282   4.625   2.748
 5678WAT     H217277   2.410   4.545   2.811
 5679WAT      O17278   4.614   2.688   9.651
 5679WAT     H117279   4.620   2.623   9.727
 5679WAT     H217280   4.522   2.684   9.612
 5680WAT      O17281   8.019   5.966   0.369
 5680WAT     H117282   8.018   5.881   0.317
 5680WAT     H217283   7.961   6.034   0.324
 5681WAT      O17284   6.550   5.454   0.727
 5681WAT     H117285   6.552   5.525   0.798
 5681WAT     H217286   6.474   5.472   0.665
 5682WAT      O17287   2.029   2.874   4.402
 5682WAT     H117288   1.952   2.815   4.379
 5682WAT     H217289   2.054   2.862   4.499
 5683WAT      O17290   9.279   2.376   3.851
 5683WAT     H117291   9.378   2.377   3.865
 5683WAT     H217292   9.243   2.288   3.882
 5684WAT      O17293   1.769   7.429   5.520
 5684WAT     H117294   1.853   7.379   5.496
 5684WAT     H217295   1.791   7.525   5.535
 5685WAT      O17296   7.896   0.527   6.841
 5685WAT     H117297   7.954   0.607   6.858
 5685WAT     H217298   7.952   0.451   6.808
 5686WAT      O17299   8.070   9.462   4.895
 5686WAT     H117300   8.164   9.426   4.901
 5686WAT     H217301   8.074   9.560   4.878
 5687WAT      O17302   2.453   5.148   6.768
 5687WAT     H117303   2.497   5.235   6.792
 5687WAT     H217304   2.512   5.098   6.705
 5688WAT      O17305   1.766   8.871   7.897
 5688WAT     H117306   1.852   8.891   7.942
 5688WAT     H217307   1.733   8.953   7.849
 5689WAT      O17308   7.042   1.322   8.872
 5689WAT     H117309   7.037   1.235   8.822
 5689WAT     H217310   7.084   1.306   8.962
 5690WAT      O17311   4.070   0.715   4.051
 5690WAT     H117312   4.071   0.633   3.994
 5690WAT     H217313   4.153   0.768   4.035
 5691WAT      O17314   6.307   5.221   4.265
 5691WAT     H117315   6.369   5.156   4.310
 5691WAT     H217316   6.350   5.312   4.264
 5692WAT      O17317   9.532   8.466   3.666
 5692WAT     H117318   9.464   8.532   3.635
 5692WAT     H217319   9.623   8.494   3.634
 5693WAT      O17320   6.807   9.318   4.185
 5693WAT     H117321   6.861   9.381   4.240
 5693WAT     H217322   6.725   9.364   4.152
 5694WAT      O17323   7.402   7.459   7.423
 5694WAT     H117324   7.402   7.396   7.345
 5694WAT     H217325   7.331   7.529   7.410
 5695WAT      O17326   8.229   6.219   8.323
 5695WAT     H117327   8.327   6.200   8.327
 5695WAT     H217328   8.209   6.278   8.245
 5696WAT      O17329   6.150   1.861   2.963
 5696WAT     H117330   6.143   1.818   3.053
 5696WAT     H217331   6.239   1.839   2.922
 5697WAT      O17332   7.779   1.251   0.600
 5697WAT     H117333   7.726   1.310   0.661
 5697WAT     H217334   7.842   1.306   0.546
 5698WAT      O17335   6.752   9.579   9.716
 5698WAT     H117336   6.747   9.666   9.666
 5698WAT     H217337   6.764   9.598   9.814
 5699WAT      O17338   5.702   3.017   3.152
 5699WAT     H117339   5.626   2.968   3.110
 5699WAT     H217340   5.678   3.114   3.159
 5700WAT      O17341   4.885   1.980   6.317
 5700WAT     H117342   4.791   1.987   6.285
 5700WAT     H217343   4.917   2.070   6.346
 5701WAT      O17344   0.191   6.971   9.880
 5701WAT     H117345   0.180   7.037   9.806
 5701WAT     H217346   0.159   7.010   9.966
 5702WAT      O17347   8.906   9.307   2.883
 5702WAT     H117348   8.945   9.355   2.962
 5702WAT     H217349   8.971   9.238   2.851
 5703WAT      O17350   2.142   4.845   3.143
 5703WAT     H117351   2.124   4.843   3.241
 5703WAT     H217352   2.235   4.813   3.125
 5704WAT      O17353   4.486   5.374   1.468
 5704WAT     H117354   4.519   5.467   1.453
 5704WAT     H217355   4.510   5.345   1.561
 5705WAT      O17356   4.813   3.149   0.873
 5705WAT     H117357   4.792   3.243   0.900
 5705WAT     H217358   4.912   3.136   0.871
 5706WAT      O17359   1.011   9.258   8.154
 5706WAT     H117360   1.096   9.309   8.169
 5706WAT     H217361   0.966   9.242   8.242
 5707WAT      O17362   3.633   3.854   0.780
 5707WAT     H117363   3.564   3.782   0.794
 5707WAT     H217364   3.722   3.821   0.812
 5708WAT      O17365   3.306   5.785   9.475
 5708WAT     H117366   3.219   5.749   9.442
 5708WAT     H217367   3.372   5.710   9.485
 5709WAT      O17368   5.426   1.274   3.052
 5709WAT     H117369   5.421   1.343   2.979
 5709WAT     H217370   5.335   1.236   3.067
 5710WAT      O17371   4.543   6.667   5.994
 5710WAT     H117372   4.496   6.663   5.907
 5710WAT     H217373   4.621   6.730   5.987
 5711WAT      O17374   4.664   0.182   2.542
 5711WAT     H117375   4.666   0.278   2.568
 5711WAT     H217376   4.757   0.146   2.537
 5712WAT      O17377   0.402   3.814   9.195
 5712WAT     H117378   0.460   3.875   9.141
 5712WAT     H217379   0.385   3.730   9.144
 5713WAT      O17380   1.906   2.090   7.896
 5713WAT     H117381   1.929   2.188   7.895
 5713WAT     H217382   1.964   2.042   7.831
 5714WAT      O17383   1.940   0.936   8.694
 5714WAT     H117384   2.032   0.975   8.701
 5714WAT     H217385   1.924   0.874   8.771
 5715WAT      O17386   4.173   5.626   2.906
 5715WAT     H117387   4.100   5.560   2.923
 5715WAT     H217388   4.246   5.612   2.972
 5716WAT      O17389   9.556   9.202   5.782
 5716WAT     H117390   9.516   9.116   5.751
 5716WAT     H217391   9.541   9.212   5.881
 5717WAT      O17392   6.738   0.060   7.097
 5717WAT     H117393   6.737   0.016   7.007
 5717WAT     H217394   6.830   0.052   7.136
 5718WAT      O17395   2.192   0.079   5.122
 5718WAT     H117396   2.175   0.115   5.030
 5718WAT     H217397   2.120   0.109   5.184
 5719WAT      O17398   8.531   0.154   6.004
 5719WAT     H117399   8.594   0.210   5.951
 5719WAT     H217400   8.488   0.086   5.943
 5720WAT      O17401   5.463   0.881   2.618
 5720WAT     H117402   5.423   0.928   2.540
 5720WAT     H217403   5.403   0.889   2.697
 5721WAT      O17404   8.867   3.509   2.980
 5721WAT     H117405   8.855   3.446   2.903
 5721WAT     H217406   8.799   3.582   2.975
 5722WAT      O17407   7.844   2.486   5.310
 5722WAT     H117408   7.779   2.414   5.331
 5722WAT     H217409   7.807   2.545   5.238
 5723WAT      O17410   7.726   0.273   6.663
 5723WAT     H117411   7.671   0.313   6.589
 5723WAT     H217412   7.753   0.181   6.637
 5724WAT      O17413   9.155   2.312   2.365
 5724WAT     H117414   9.078   2.333   2.305
 5724WAT     H217415   9.129   2.239   2.428
 5725WAT      O17416   9.572   1.542   3.745
 5725WAT     H117417   9.632   1.477   3.793
 5725WAT     H217418   9.540   1.501   3.660
 5726WAT      O17419   3.266   3.969   9.003
 5726WAT     H117420   3.307   3.968   9.094
 5726WAT     H217421   3.242   3.876   8.976
 5727WAT      O17422   3.352   5.109   8.605
 5727WAT     H117423   3.448   5.086   8.589
 5727WAT     H217424   3.299   5.084   8.524
 5728WAT      O17425   4.617   5.057   7.199
 5728WAT     H117426   4.679   5.063   7.277
 5728WAT     H217427   4.552   4.982   7.213
 5729WAT      O17428   6.951   9.839   5.263
 5729WAT     H117429   6.941   9.739   5.261
 5729WAT     H217430   6.860   9.881   5.261
 5730WAT      O17431   8.500   0.537   3.204
 5730WAT     H117432   8.459   0.453   3.170
 5730WAT     H217433   8.590   0.516   3.243
 5731WAT      O17434   7.687   6.510   1.355
 5731WAT     H117435   7.775   6.557   1.353
 5731WAT     H217436   7.702   6.412   1.344
 5732WAT      O17437   5.037   2.292   2.809
 5732WAT     H117438   5.004   2.380   2.776
 5732WAT     H217439   4.968   2.251   2.869
 5733WAT      O17440   8.730   7.385   6.641
 5733WAT     H117441   8.700   7.290   6.632
 5733WAT     H217442   8.739   7.426   6.551
 5734WAT      O17443   5.663   6.454   5.527
 5734WAT     H117444   5.647   6.526   5.459
 5734WAT     H217445   5.703   6.494   5.609
 5735WAT      O17446   1.085   5.469   5.259
 5735WAT     H117447   1.178   5.498   5.236
 5735WAT     H217448   1.028   5.550   5.274
 5736WAT      O17449   3.933   8.240   2.009
 5736WAT     H117450   3.939   8.264   2.106
 5736WAT     H217451   4.010   8.181   1.984
 5737WAT      O17452   0.067   7.120   8.284
 5737WAT     H117453   0.111   7.186   8.345
 5737WAT     H217454   0.136   7.058   8.247
 5738WAT      O17455   6.591   8.941   7.305
 5738WAT     H117456   6.524   8.945   7.380
 5738WAT     H217457   6.543   8.920   7.220
 5739WAT      O17458   6.429   2.359   4.996
 5739WAT     H117459   6.505   2.313   4.949
 5739WAT     H217460   6.413   2.316   5.084
 5740WAT      O17461   7.170   0.676   5.660
 5740WAT     H117462   7.241   0.706   5.724
 5740WAT     H217463   7.202   0.690   5.566
 5741WAT      O17464   8.282   0.064   0.297
 5741WAT     H117465   8.319   0.017   0.217
 5741WAT     H217466   8.183   0.049   0.302
 5742WAT      O17467   1.488   6.813   5.938
 5742WAT     H117468   1.390   6.835   5.933
 5742WAT     H217469   1.519   6.822   6.032
 5743WAT      O17470   9.061   2.999   0.460
 5743WAT     H117471   9.041   3.083   0.511
 5743WAT     H217472   9.116   3.022   0.379
 5744WAT      O17473   9.582   3.135   7.552
 5744WAT     H117474   9.582   3.072   7.630
 5744WAT     H217475   9.638   3.096   7.478
 5745WAT      O17476   6.307   7.344   9.872
 5745WAT     H117477   6.362   7.314   9.950
 5745WAT     H217478   6.300   7.269   9.805
 5746WAT      O17479   6.487   0.663   6.228
 5746WAT     H117480   6.443   0.703   6.148
 5746WAT     H217481   6.514   0.569   6.207
 5747WAT      O17482   6.557   6.203   8.777
 5747WAT     H117483   6.635   6.155   8.736
 5747WAT     H217484   6.538   6.286   8.726
 5748WAT      O17485   8.270   8.727   0.896
 5748WAT     H117486   8.264   8.698   0.991
 5748WAT     H217487   8.188   8.699   0.847
 5749WAT      O17488   1.284   5.998   4.278
 5749WAT     H117489   1.332   5.930   4.222
 5749WAT     H217490   1.198   5.959   4.311
 5750WAT      O17491   6.397   2.144   4.648
 5750WAT     H117492   6.410   2.098   4.560
 5750WAT     H217493   6.333   2.091   4.704
 5751WAT      O17494   6.613   6.813   9.871
 5751WAT     H117495   6.619   6.756   9.788
 5751WAT     H217496   6.578   6.757   9.946
 5752WAT      O17497   7.381   3.963   2.868
 5752WAT     H117498   7.323   3.885   2.845
 5752WAT     H217499   7.453   3.932   2.930
 5753WAT      O17500   5.074   8.686   3.096
 5753WAT     H117501   5.022   8.606   3.067
 5753WAT     H217502   5.026   8.731   3.171
 5754WAT      O17503   4.307   8.836   3.446
 5754WAT     H117504   4.248   8.858   3.523
 5754WAT     H217505   4.293   8.903   3.373
 5755WAT      O17506   5.984   9.185   4.234
 5755WAT     H117507   5.982   9.090   4.203
 5755WAT     H217508   6.033   9.241   4.167
 5756WAT      O17509   5.160   9.689   3.470
 5756WAT     H117510   5.190   9.707   3.376
 5756WAT     H217511   5.191   9.764   3.529
 5757WAT      O17512   3.400   9.161   1.245
 5757WAT     H117513   3.314   9.119   1.217
 5757WAT     H217514   3.476   9.104   1.213
 5758WAT      O17515   5.384   0.586   5.262
 5758WAT     H117516   5.285   0.588   5.275
 5758WAT     H217517   5.421   0.502   5.302
 5759WAT      O17518   2.571   4.569   6.538
 5759WAT     H117519   2.614   4.496   6.485
 5759WAT     H217520   2.642   4.618   6.590
 5760WAT      O17521   5.569   2.171   4.801
 5760WAT     H117522   5.473   2.179   4.775
 5760WAT     H217523   5.611   2.096   4.750
 5761WAT      O17524   5.651   2.392   4.057
 5761WAT     H117525   5.716   2.461   4.089
 5761WAT     H217526   5.618   2.419   3.966
 5762WAT      O17527   4.030   0.627   8.153
 5762WAT     H117528   4.064   0.711   8.196
 5762WAT     H217529   4.014   0.644   8.056
 5763WAT      O17530   3.374   6.662   1.965
 5763WAT     H117531   3.324   6.723   1.903
 5763WAT     H217532   3.445   6.714   2.012
 5764WAT      O17533   3.776   1.187   3.327
 5764WAT     H117534   3.859   1.148   3.286
 5764WAT     H217535   3.753   1.137   3.410
 5765WAT      O17536   3.054   6.035   3.738
 5765WAT     H117537   2.995   5.954   3.726
 5765WAT     H217538   2.997   6.114   3.759
 5766WAT      O17539   8.570   6.564   8.436
 5766WAT     H117540   8.491   6.621   8.460
 5766WAT     H217541   8.652   6.622   8.433
 5767WAT      O17542   5.137   7.439   4.925
 5767WAT     H117543   5.160   7.402   5.015
 5767WAT     H217544   5.154   7.370   4.855
 5768WAT      O17545   7.332   9.469   8.393
 5768WAT     H117546   7.405   9.523   8.435
 5768WAT     H217547   7.252   9.528   8.378
 5769WAT      O17548   8.925   8.830   3.940
 5769WAT     H117549   9.008   8.794   3.983
 5769WAT     H217550   8.933   8.929   3.931
 5770WAT      O17551   5.353   8.012   9.499
 5770WAT     H117552   5.265   8.047   9.467
 5770WAT     H217553   5.353   7.912   9.492
 5771WAT      O17554   3.807   7.981   6.076
 5771WAT     H117555   3.822   8.072   6.036
 5771WAT     H217556   3.733   7.935   6.027
 5772WAT      O17557   3.324   5.693   9.120
 5772WAT     H117558   3.261   5.734   9.184
 5772WAT     H217559   3.366   5.612   9.161
 5773WAT      O17560   0.936   7.197   9.446
 5773WAT     H117561   0.944   7.152   9.357
 5773WAT     H217562   1.023   7.241   9.469
 5774WAT      O17563   7.164   2.244   3.476
 5774WAT     H117564   7.107   2.231   3.394
 5774WAT     H217565   7.206   2.156   3.501
 5775WAT      O17566   5.722   6.836   7.912
 5775WAT     H117567   5.706   6.933   7.931
 5775WAT     H217568   5.636   6.794   7.883
 5776WAT      O17569   1.982   6.865   4.556
 5776WAT     H117570   2.068   6.901   4.519
 5776WAT     H217571   1.907   6.886   4.493
 5777WAT      O17572   1.148   6.154   3.020
 5777WAT     H117573   1.112   6.207   3.097
 5777WAT     H217574   1.210   6.083   3.054
 5778WAT      O17575   9.217   8.368   3.386
 5778WAT     H117576   9.178   8.380   3.295
 5778WAT     H217577   9.317   8.361   3.378
 5779WAT      O17578   5.159   0.396   9.634
 5779WAT     H117579   5.148   0.491   9.661
 5779WAT     H217580   5.087   0.341   9.676
 5780WAT      O17581   7.665   1.046   4.631
 5780WAT     H117582   7.675   0.949   4.606
 5780WAT     H217583   7.662   1.055   4.730
 5781WAT      O17584   4.234   8.326   6.622
 5781WAT     H117585   4.253   8.236   6.582
 5781WAT     H217586   4.242   8.320   6.721
 5782WAT      O17587   3.851   2.017   7.675
 5782WAT     H117588   3.812   2.031   7.584
 5782WAT     H217589   3.888   1.924   7.682
 5783WAT      O17590   5.320   2.514   7.030
 5783WAT     H117591   5.306   2.613   7.023
 5783WAT     H217592   5.360   2.492   7.119
 5784WAT      O17593   2.580   9.575   4.462
 5784WAT     H117594   2.666   9.568   4.512
 5784WAT     H217595   2.514   9.511   4.501
 5785WAT      O17596   1.408   2.493   6.292
 5785WAT     H117597   1.353   2.574   6.269
 5785WAT     H217598   1.446   2.504   6.384
 5786WAT      O17599   8.657   6.207   6.371
 5786WAT     H117600   8.654   6.307   6.361
 5786WAT     H217601   8.723   6.183   6.443
 5787WAT      O17602   3.108   8.792   7.117
 5787WAT     H117603   3.010   8.775   7.107
 5787WAT     H217604   3.156   8.705   7.127
 5788WAT      O17605   5.200   7.985   5.720
 5788WAT     H117606   5.269   8.046   5.758
 5788WAT     H217607   5.169   8.019   5.632
 5789WAT      O17608   3.379   5.394   8.732
 5789WAT     H117609   3.303   5.346   8.689
 5789WAT     H217610   3.344   5.462   8.796
 5790WAT      O17611   1.118   6.548   2.756
 5790WAT     H117612   1.032   6.498   2.740
 5790WAT     H217613   1.147   6.591   2.670
 5791WAT      O17614   9.487   4.310   2.852
 5791WAT     H117615   9.417   4.241   2.834
 5791WAT     H217616   9.490   4.329   2.950
 5792WAT      O17617   1.479   5.296   2.769
 5792WAT     H117618   1.389   5.278   2.729
 5792WAT     H217619   1.501   5.394   2.760
 5793WAT      O17620   6.404   5.050   1.482
 5793WAT     H117621   6.416   5.142   1.443
 5793WAT     H217622   6.371   5.058   1.576
 5794WAT      O17623   3.264   8.592   6.501
 5794WAT     H117624   3.199   8.556   6.434
 5794WAT     H217625   3.272   8.691   6.490
 5795WAT      O17626   6.340   8.687   5.341
 5795WAT     H117627   6.370   8.627   5.266
 5795WAT     H217628   6.244   8.711   5.327
 5796WAT      O17629   7.759   6.986   4.261
 5796WAT     H117630   7.779   6.980   4.163
 5796WAT     H217631   7.843   7.012   4.310
 5797WAT      O17632   9.213   9.754   8.758
 5797WAT     H117633   9.187   9.847   8.733
 5797WAT     H217634   9.155   9.722   8.832
 5798WAT      O17635   2.539   7.794   0.401
 5798WAT     H117636   2.604   7.857   0.360
 5798WAT     H217637   2.515   7.723   0.334
 5799WAT      O17638   1.543   9.070   4.030
 5799WAT     H117639   1.574   9.052   3.936
 5799WAT     H217640   1.601   9.019   4.094
 5800WAT      O17641   2.779   2.954   9.543
 5800WAT     H117642   2.809   2.997   9.458
 5800WAT     H217643   2.848   2.889   9.574
 5801WAT      O17644   7.202   1.098   0.674
 5801WAT     H117645   7.211   1.027   0.604
 5801WAT     H217646   7.247   1.068   0.758
 5802WAT      O17647   0.134   5.594   4.903
 5802WAT     H117648   0.234   5.589   4.895
 5802WAT     H217649   0.103   5.683   4.869
 5803WAT      O17650   9.365   1.972   4.863
 5803WAT     H117651   9.439   2.027   4.902
 5803WAT     H217652   9.278   2.018   4.878
 5804WAT      O17653   5.815   6.224   4.556
 5804WAT     H117654   5.895   6.165   4.570
 5804WAT     H217655   5.732   6.173   4.579
 5805WAT      O17656   6.197   5.763   3.617
 5805WAT     H117657   6.124   5.825   3.589
 5805WAT     H217658   6.281   5.815   3.633
 5806WAT      O17659   6.517   3.171   0.203
 5806WAT     H117660   6.482   3.121   0.282
 5806WAT     H217661   6.564   3.254   0.235
 5807WAT      O17662   7.225   2.097   4.862
 5807WAT     H117663   7.272   2.104   4.950
 5807WAT     H217664   7.277   2.146   4.792
 5808WAT      O17665   4.700   4.905   3.728
 5808WAT     H117666   4.770   4.885   3.658
 5808WAT     H217667   4.644   4.823   3.743
 5809WAT      O17668   6.700   1.086   2.053
 5809WAT     H117669   6.702   1.154   2.127
 5809WAT     H217670   6.644   1.008   2.081
 5810WAT      O17671   3.772   2.875   7.163
 5810WAT     H117672   3.753   2.796   7.220
 5810WAT     H217673   3.814   2.947   7.219
 5811WAT      O17674   3.587   8.579   6.594
 5811WAT     H117675   3.506   8.522   6.602
 5811WAT     H217676   3.559   8.675   6.584
 5812WAT      O17677   0.209   8.786   2.274
 5812WAT     H117678   0.217   8.698   2.227
 5812WAT     H217679   0.297   8.833   2.274
 5813WAT      O17680   2.733   1.297   6.549
 5813WAT     H117681   2.782   1.240   6.483
 5813WAT     H217682   2.705   1.241   6.627
 5814WAT      O17683   6.676   0.037   1.813
 5814WAT     H117684   6.763   0.085   1.802
 5814WAT     H217685   6.637   0.059   1.903
 5815WAT      O17686   4.408   5.699   8.705
 5815WAT     H117687   4.490   5.644   8.684
 5815WAT     H217688   4.329   5.659   8.660
 5816WAT      O17689   9.277   7.908   0.242
 5816WAT     H117690   9.347   7.861   0.190
 5816WAT     H217691   9.234   7.978   0.185
 5817WAT      O17692   8.209   7.874   2.597
 5817WAT     H117693   8.286   7.914   2.547
 5817WAT     H217694   8.143   7.946   2.620
 5818WAT      O17695   2.050   1.178   6.713
 5818WAT     H117696   2.140   1.164   6.671
 5818WAT     H217697   2.008   1.089   6.733
 5819WAT      O17698   7.197   0.531   6.399
 5819WAT     H117699   7.259   0.548   6.475
 5819WAT     H217700   7.245   0.546   6.312
 5820WAT      O17701   1.242   7.741   9.493
 5820WAT     H117702   1.209   7.699   9.408
 5820WAT     H217703   1.199   7.831   9.503
 5821WAT      O17704   5.414   7.720   8.724
 5821WAT     H117705   5.395   7.644   8.662
 5821WAT     H217706   5.458   7.794   8.674
 5822WAT      O17707   3.559   3.080   0.544
 5822WAT     H117708   3.646   3.032   0.537
 5822WAT     H217709   3.486   3.014   0.567
 5823WAT      O17710   1.992   1.606   9.588
 5823WAT     H117711   1.909   1.582   9.538
 5823WAT     H217712   2.048   1.668   9.533
 5824WAT      O17713   5.595   0.346   5.661
 5824WAT     H117714   5.568   0.312   5.571
 5824WAT     H217715   5.618   0.443   5.655
 5825WAT      O17716   8.019   2.262   1.684
 5825WAT     H117717   8.052   2.179   1.728
 5825WAT     H217718   7.930   2.288   1.721
 5826WAT      O17719   8.028   2.446   4.893
 5826WAT     H117720   7.956   2.386   4.929
 5826WAT     H217721   8.116   2.417   4.929
 5827WAT      O17722   7.260   1.041   3.387
 5827WAT     H117723   7.231   1.133   3.359
 5827WAT     H217724   7.248   1.031   3.485
 5828WAT      O17725   8.835   3.824   1.177
 5828WAT     H117726   8.912   3.822   1.114
 5828WAT     H217727   8.750   3.836   1.125
 5829WAT      O17728   6.149   0.736   8.893
 5829WAT     H117729   6.150   0.757   8.991
 5829WAT     H217730   6.068   0.681   8.872
 5830WAT      O17731   2.581   3.260   0.950
 5830WAT     H117732   2.520   3.311   1.011
 5830WAT     H217733   2.582   3.304   0.860
 5831WAT      O17734   3.594   1.463   2.436
 5831WAT     H117735   3.527   1.537   2.430
 5831WAT     H217736   3.658   1.483   2.511
 5832WAT      O17737   3.669   4.721   8.012
 5832WAT     H117738   3.638   4.640   7.961
 5832WAT     H217739   3.609   4.799   7.990
 5833WAT      O17740   3.958   6.169   1.037
 5833WAT     H117741   3.931   6.163   0.941
 5833WAT     H217742   4.001   6.258   1.054
 5834WAT      O17743   1.801   0.455   6.575
 5834WAT     H117744   1.845   0.383   6.521
 5834WAT     H217745   1.866   0.491   6.642
 5835WAT      O17746   5.257   4.417   7.052
 5835WAT     H117747   5.173   4.470   7.042
 5835WAT     H217748   5.286   4.384   6.962
 5836WAT      O17749   5.572   5.682   0.242
 5836WAT     H117750   5.671   5.677   0.230
 5836WAT     H217751   5.532   5.730   0.164
 5837WAT      O17752   7.849   3.908   7.375
 5837WAT     H117753   7.798   3.899   7.460
 5837WAT     H217754   7.947   3.912   7.396
 5838WAT      O17755   8.818   3.093   1.851
 5838WAT     H117756   8.750   3.020   1.854
 5838WAT     H217757   8.910   3.054   1.858
 5839WAT      O17758   5.430   3.249   9.819
 5839WAT     H117759   5.360   3.193   9.775
 5839WAT     H217760   5.387   3.328   9.863
 5840WAT      O17761   0.467   4.134   4.527
 5840WAT     H117762   0.558   4.164   4.497
 5840WAT     H217763   0.398   4.197   4.493
 5841WAT      O17764   3.426   0.091   6.052
 5841WAT     H117765   3.335   0.074   6.089
 5841WAT     H217766   3.451   0.017   5.990
 5842WAT      O17767   0.924   5.053   4.664
 5842WAT     H117768   0.871   5.019   4.742
 5842WAT     H217769   0.875   5.130   4.621
 5843WAT      O17770   9.502   8.261   1.969
 5843WAT     H117771   9.485   8.340   1.911
 5843WAT     H217772   9.547   8.190   1.916
 5844WAT      O17773   6.456   0.481   3.265
 5844WAT     H117774   6.520   0.557   3.278
 5844WAT     H217775   6.470   0.412   3.336
 5845WAT      O17776   3.289   8.738   0.917
 5845WAT     H117777   3.275   8.766   1.012
 5845WAT     H217778   3.257   8.644   0.906
 5846WAT      O17779   1.006   2.172   4.493
 5846WAT     H117780   0.975   2.256   4.448
 5846WAT     H217781   1.093   2.190   4.539
 5847WAT      O17782   6.137   6.026   3.222
 5847WAT     H117783   6.077   6.049   3.298
 5847WAT     H217784   6.083   6.012   3.139
 5848WAT      O17785   0.519   2.139   4.209
 5848WAT     H117786   0.536   2.188   4.295
 5848WAT     H217787   0.492   2.045   4.229
 5849WAT      O17788   5.418   2.538   1.642
 5849WAT     H117789   5.346   2.606   1.629
 5849WAT     H217790   5.379   2.454   1.680
 5850WAT      O17791   6.440   4.981   3.589
 5850WAT     H117792   6.478   4.903   3.639
 5850WAT     H217793   6.457   4.969   3.491
 5851WAT      O17794   6.073   6.092   7.041
 5851WAT     H117795   5.980   6.126   7.025
 5851WAT     H217796   6.126   6.161   7.090
 5852WAT      O17797   5.976   4.969   7.930
 5852WAT     H117798   5.975   4.893   7.865
 5852WAT     H217799   5.998   5.054   7.882
 5853WAT      O17800   4.468   6.272   9.791
 5853WAT     H117801   4.498   6.365   9.812
 5853WAT     H217802   4.495   6.249   9.697
 5854WAT      O17803   1.702   5.450   3.141
 5854WAT     H117804   1.761   5.482   3.067
 5854WAT     H217805   1.643   5.377   3.108
 5855WAT      O17806   5.405   0.791   3.335
 5855WAT     H117807   5.452   0.814   3.249
 5855WAT     H217808   5.402   0.692   3.345
 5856WAT      O17809   9.220   9.603   9.477
 5856WAT     H117810   9.164   9.662   9.419
 5856WAT     H217811   9.164   9.568   9.553
 5857WAT      O17812   2.643   3.111   5.810
 5857WAT     H117813   2.647   3.116   5.909
 5857WAT     H217814   2.572   3.173   5.776
 5858WAT      O17815   2.548   0.415   2.630
 5858WAT     H117816   2.618   0.485   2.642
 5858WAT     H217817   2.457   0.458   2.634
 5859WAT      O17818   6.052   9.103   3.870
 5859WAT     H117819   6.044   9.043   3.950
 5859WAT     H217820   5.963   9.110   3.825
 5860WAT      O17821   7.110   4.450   5.785
 5860WAT     H117822   7.116   4.350   5.784
 5860WAT     H217823   7.145   4.485   5.872
 5861WAT      O17824   5.645   0.310   6.242
 5861WAT     H117825   5.572   0.369   6.206
 5861WAT     H217826   5.734   0.345   6.213
 5862WAT      O17827   6.295   7.811   5.906
 5862WAT     H117828   6.392   7.792   5.891
 5862WAT     H217829   6.281   7.838   6.001
 5863WAT      O17830   9.771   7.870   3.754
 5863WAT     H117831   9.681   7.844   3.718
 5863WAT     H217832   9.786   7.822   3.841
 5864WAT      O17833   3.611   0.984   4.209
 5864WAT     H117834   3.667   1.017   4.285
 5864WAT     H217835   3.653   1.012   4.122
 5865WAT      O17836   4.140   9.720   5.793
 5865WAT     H117837   4.120   9.676   5.706
 5865WAT     H217838   4.081   9.801   5.804
 5866WAT      O17839   2.942   0.706   0.926
 5866WAT     H117840   2.978   0.792   0.962
 5866WAT     H217841   2.996   0.678   0.847
 5867WAT      O17842   3.377   7.936   0.206
 5867WAT     H117843   3.369   8.035   0.215
 5867WAT     H217844   3.392   7.896   0.297
 5868WAT      O17845   7.288   2.492   3.491
 5868WAT     H117846   7.205   2.545   3.473
 5868WAT     H217847   7.271   2.396   3.468
 5869WAT      O17848   2.666   5.019   6.617
 5869WAT     H117849   2.658   4.954   6.692
 5869WAT     H217850   2.669   4.969   6.530
 5870WAT      O17851   6.003   2.272   0.860
 5870WAT     H117852   6.090   2.259   0.813
 5870WAT     H217853   5.989   2.370   0.877
 5871WAT      O17854   8.614   9.814   7.416
 5871WAT     H117855   8.568   9.773   7.337
 5871WAT     H217856   8.607   9.753   7.494
 5872WAT      O17857   7.618   4.103   9.598
 5872WAT     H117858   7.526   4.106   9.636
 5872WAT     H217859   7.665   4.190   9.615
 5873WAT      O17860   1.440   1.494   5.933
 5873WAT     H117861   1.373   1.522   6.002
 5873WAT     H217862   1.499   1.572   5.911
 5874WAT      O17863   0.307   9.212   0.459
 5874WAT     H117864   0.316   9.177   0.366
 5874WAT     H217865   0.367   9.161   0.520
 5875WAT      O17866   8.293   5.791   5.474
 5875WAT     H117867   8.385   5.827   5.458
 5875WAT     H217868   8.298   5.694   5.494
 5876WAT      O17869   3.773   1.093   9.318
 5876WAT     H117870   3.788   1.056   9.409
 5876WAT     H217871   3.694   1.049   9.276
 5877WAT      O17872   6.480   5.595   8.403
 5877WAT     H117873   6.509   5.657   8.476
 5877WAT     H217874   6.441   5.512   8.442
 5878WAT      O17875   2.396   9.345   2.299
 5878WAT     H117876   2.484   9.308   2.269
 5878WAT     H217877   2.373   9.308   2.390
 5879WAT      O17878   1.042   5.214   5.354
 5879WAT     H117879   0.996   5.165   5.280
 5879WAT     H217880   1.060   5.308   5.324
 5880WAT      O17881   6.370   2.755   0.558
 5880WAT     H117882   6.445   2.689   0.560
 5880WAT     H217883   6.384   2.820   0.484
 5881WAT      O17884   8.686   7.158   4.103
 5881WAT     H117885   8.744   7.084   4.070
 5881WAT     H217886   8.723   7.246   4.072
 5882WAT      O17887   2.396   2.851   0.214
 5882WAT     H117888   2.306   2.809   0.208
 5882WAT     H217889   2.386   2.951   0.221
 5883WAT      O17890   1.542   7.721   0.306
 5883WAT     H117891   1.563   7.624   0.319
 5883WAT     H217892   1.611   7.762   0.246
 5884WAT      O17893   4.045   1.369   1.494
 5884WAT     H117894   4.071   1.446   1.436
 5884WAT     H217895   4.060   1.392   1.590
 5885WAT      O17896   4.339   3.294   9.839
 5885WAT     H117897   4.270   3.328   9.775
 5885WAT     H217898   4.326   3.336   9.928
 5886WAT      O17899   6.555   1.532   8.218
 5886WAT     H117900   6.592   1.466   8.284
 5886WAT     H217901   6.482   1.585   8.261
 5887WAT      O17902   8.967   2.720   6.094
 5887WAT     H117903   9.004   2.794   6.149
 5887WAT     H217904   9.018   2.636   6.111
 5888WAT      O17905   4.811   1.011   3.251
 5888WAT     H117906   4.743   1.083   3.237
 5888WAT     H217907   4.897   1.051   3.280
 5889WAT      O17908   6.191   8.401   7.580
 5889WAT     H117909   6.256   8.474   7.603
 5889WAT     H217910   6.189   8.389   7.481
 5890WAT      O17911   9.083   7.601   5.211
 5890WAT     H117912   9.180   7.611   5.190
 5890WAT     H217913   9.073   7.558   5.301
 5891WAT      O17914   0.250   5.861   4.579
 5891WAT     H117915   0.216   5.954   4.561
 5891WAT     H217916   0.326   5.866   4.643
 5892WAT      O17917   8.316   1.053   8.848
 5892WAT     H117918   8.248   1.055   8.921
 5892WAT     H217919   8.272   1.079   8.762
 5893WAT      O17920   5.273   7.313   4.700
 5893WAT     H117921   5.320   7.344   4.617
 5893WAT     H217922   5.337   7.264   4.758
 5894WAT      O17923   4.508   2.750   0.348
 5894WAT     H117924   4.485   2.846   0.330
 5894WAT     H217925   4.433   2.692   0.316
 5895WAT      O17926   8.892   5.525   1.261
 5895WAT     H117927   8.904   5.593   1.334
 5895WAT     H217928   8.968   5.461   1.262
 5896WAT      O17929   7.599   8.460   4.214
 5896WAT     H117930   7.555   8.469   4.303
 5896WAT     H217931   7.629   8.550   4.183
 5897WAT      O17932   5.314   0.888   3.809
 5897WAT     H117933   5.229   0.845   3.840
 5897WAT     H217934   5.390   0.853   3.863
 5898WAT      O17935   2.380   1.834   5.841
 5898WAT     H117936   2.468   1.794   5.813
 5898WAT     H217937   2.334   1.772   5.904
 5899WAT      O17938   8.719   0.602   2.343
 5899WAT     H117939   8.734   0.689   2.295
 5899WAT     H217940   8.800   0.545   2.335
 5900WAT      O17941   3.768   5.087   6.300
 5900WAT     H117942   3.753   5.178   6.339
 5900WAT     H217943   3.681   5.051   6.265
 5901WAT      O17944   4.483   2.253   7.751
 5901WAT     H117945   4.526   2.192   7.685
 5901WAT     H217946   4.390   2.273   7.722
 5902WAT      O17947   3.468   0.782   7.461
 5902WAT     H117948   3.440   0.797   7.366
 5902WAT     H217949   3.401   0.725   7.507
 5903WAT      O17950   1.915   8.594   9.878
 5903WAT     H117951   2.005   8.594   9.833
 5903WAT     H217952   1.867   8.679   9.857
 5904WAT      O17953   6.032   7.264   8.012
 5904WAT     H117954   6.000   7.359   8.011
 5904WAT     H217955   6.000   7.217   7.930
 5905WAT      O17956   5.767   7.464   5.654
 5905WAT     H117957   5.766   7.554   5.610
 5905WAT     H217958   5.683   7.414   5.630
 5906WAT      O17959   7.987   7.480   0.101
 5906WAT     H117960   8.077   7.441   0.081
 5906WAT     H217961   7.968   7.473   0.199
 5907WAT      O17962   6.383   2.088   0.424
 5907WAT     H117963   6.332   2.005   0.403
 5907WAT     H217964   6.407   2.089   0.522
 5908WAT      O17965   2.047   1.040   1.288
 5908WAT     H117966   1.962   1.027   1.339
 5908WAT     H217967   2.125   1.009   1.343
 5909WAT      O17968   1.533   2.937   0.224
 5909WAT     H117969   1.553   2.963   0.130
 5909WAT     H217970   1.446   2.978   0.253
 5910WAT      O17971   3.121   8.019   4.676
 5910WAT     H117972   3.093   8.115   4.674
 5910WAT     H217973   3.219   8.014   4.695
 5911WAT      O17974   3.544   0.010   6.913
 5911WAT     H117975   3.626   0.041   6.961
 5911WAT     H217976   3.534  -0.089   6.926
 5912WAT      O17977   1.216   6.029   8.140
 5912WAT     H117978   1.134   5.982   8.174
 5912WAT     H217979   1.244   5.989   8.053
 5913WAT      O17980   6.756   8.195   9.333
 5913WAT     H117981   6.768   8.218   9.236
 5913WAT     H217982   6.771   8.276   9.388
 5914WAT      O17983   6.439   7.699   3.930
 5914WAT     H117984   6.518   7.645   3.899
 5914WAT     H217985   6.389   7.733   3.850
 5915WAT      O17986   7.377   2.516   1.076
 5915WAT     H117987   7.297   2.575   1.066
 5915WAT     H217988   7.442   2.537   1.002
 5916WAT      O17989   4.925   0.398   9.100
 5916WAT     H117990   4.916   0.485   9.149
 5916WAT     H217991   4.854   0.392   9.030
 5917WAT      O17992   3.476   7.874   7.859
 5917WAT     H117993   3.476   7.944   7.930
 5917WAT     H217994   3.528   7.907   7.780
 5918WAT      O17995   9.743   4.679   1.112
 5918WAT     H117996   9.732   4.601   1.174
 5918WAT     H217997   9.795   4.650   1.031
 5919WAT      O17998   8.721   9.731   1.464
 5919WAT     H117999   8.694   9.800   1.397
 5919WAT     H218000   8.708   9.640   1.425
 5920WAT      O18001   9.073   2.536   0.634
 5920WAT     H118002   8.986   2.533   0.585
 5920WAT     H218003   9.147   2.507   0.572
 5921WAT      O18004   9.222   3.949   4.803
 5921WAT     H118005   9.159   4.022   4.774
 5921WAT     H218006   9.206   3.929   4.899
 5922WAT      O18007   3.962   4.488   3.372
 5922WAT     H118008   3.996   4.505   3.464
 5922WAT     H218009   3.991   4.561   3.311
 5923WAT      O18010   0.483   6.897   5.941
 5923WAT     H118011   0.399   6.882   5.890
 5923WAT     H218012   0.539   6.815   5.939
 5924WAT      O18013   1.354   0.993   8.514
 5924WAT     H118014   1.323   0.899   8.497
 5924WAT     H218015   1.363   1.041   8.428
 5925WAT      O18016   6.735   9.384   3.545
 5925WAT     H118017   6.642   9.356   3.570
 5925WAT     H218018   6.779   9.426   3.625
 5926WAT      O18019   9.510   7.437   2.612
 5926WAT     H118020   9.549   7.509   2.554
 5926WAT     H218021   9.584   7.386   2.656
 5927WAT      O18022   0.258   8.634   9.182
 5927WAT     H118023   0.196   8.645   9.260
 5927WAT     H218024   0.269   8.723   9.136
 5928WAT      O18025   6.297   7.165   4.292
 5928WAT     H118026   6.322   7.083   4.342
 5928WAT     H218027   6.197   7.177   4.295
 5929WAT      O18028   4.617   8.900   2.372
 5929WAT     H118029   4.611   8.997   2.349
 5929WAT     H218030   4.531   8.869   2.413
 5930WAT      O18031   7.415   4.605   9.131
 5930WAT     H118032   7.399   4.642   9.040
 5930WAT     H218033   7.452   4.677   9.190
 5931WAT      O18034   6.134   8.743   8.804
 5931WAT     H118035   6.121   8.833   8.848
 5931WAT     H218036   6.046   8.708   8.773
 5932WAT      O18037   8.739   2.101   3.923
 5932WAT     H118038   8.808   2.064   3.861
 5932WAT     H218039   8.648   2.078   3.890
 5933WAT      O18040   7.432   9.260   8.249
 5933WAT     H118041   7.370   9.214   8.186
 5933WAT     H218042   7.389   9.343   8.284
 5934WAT      O18043   2.512   6.485   1.043
 5934WAT     H118044   2.415   6.468   1.030
 5934WAT     H218045   2.553   6.410   1.094
 5935WAT      O18046   6.615   7.742   7.029
 5935WAT     H118047   6.629   7.644   7.015
 5935WAT     H218048   6.521   7.766   7.007
 5936WAT      O18049   2.373   0.617   3.182
 5936WAT     H118050   2.388   0.706   3.138
 5936WAT     H218051   2.293   0.573   3.142
 5937WAT      O18052   7.436   8.833   8.812
 5937WAT     H118053   7.514   8.873   8.764
 5937WAT     H218054   7.443   8.733   8.811
 5938WAT      O18055   4.511   5.363   2.423
 5938WAT     H118056   4.514   5.413   2.510
 5938WAT     H218057   4.604   5.334   2.398
 5939WAT      O18058   0.776   3.062   3.108
 5939WAT     H118059   0.679   3.036   3.099
 5939WAT     H218060   0.788   3.117   3.191
 5940WAT      O18061   3.306   8.596   2.963
 5940WAT     H118062   3.307   8.589   2.864
 5940WAT     H218063   3.327   8.507   3.004
 5941WAT      O18064   8.578   5.939   4.405
 5941WAT     H118065   8.572   5.839   4.413
 5941WAT     H218066   8.601   5.962   4.310
 5942WAT      O18067   1.283   2.191   5.917
 5942WAT     H118068   1.322   2.279   5.890
 5942WAT     H218069   1.186   2.188   5.895
 5943WAT      O18070   9.126   5.511   8.517
 5943WAT     H118071   9.102   5.499   8.614
 5943WAT     H218072   9.079   5.591   8.481
 5944WAT      O18073   4.786   8.692   2.311
 5944WAT     H118074   4.847   8.671   2.387
 5944WAT     H218075   4.744   8.782   2.326
 5945WAT      O18076   1.593   6.063   3.141
 5945WAT     H118077   1.524   6.007   3.094
 5945WAT     H218078   1.593   6.155   3.101
 5946WAT      O18079   3.234   0.952   5.195
 5946WAT     H118080   3.202   0.995   5.279
 5946WAT     H218081   3.309   1.006   5.156
 5947WAT      O18082   6.310   4.414   5.389
 5947WAT     H118083   6.355   4.502   5.401
 5947WAT     H218084   6.297   4.370   5.477
 5948WAT      O18085   0.481   8.755   8.297
 5948WAT     H118086   0.514   8.747   8.391
 5948WAT     H218087   0.521   8.682   8.242
 5949WAT      O18088   0.608   6.789   2.265
 5949WAT     H118089   0.641   6.727   2.194
 5949WAT     H218090   0.560   6.736   2.335
 5950WAT      O18091   8.426   5.207   1.122
 5950WAT     H118092   8.378   5.208   1.210
 5950WAT     H218093   8.421   5.115   1.082
 5951WAT      O18094   7.306   2.154   6.837
 5951WAT     H118095   7.212   2.128   6.858
 5951WAT     H218096   7.366   2.122   6.911
 5952WAT      O18097   8.281   4.535   1.200
 5952WAT     H118098   8.224   4.601   1.248
 5952WAT     H218099   8.236   4.446   1.200
 5953WAT      O18100   5.159   6.000   1.184
 5953WAT     H118101   5.179   5.929   1.252
 5953WAT     H218102   5.186   6.089   1.220
 5954WAT      O18103   2.911   4.057   5.184
 5954WAT     H118104   2.964   4.136   5.214
 5954WAT     H218105   2.827   4.050   5.239
 5955WAT      O18106   4.112   5.238   2.353
 5955WAT     H118107   4.122   5.325   2.303
 5955WAT     H218108   4.036   5.186   2.315
 5956WAT      O18109   3.422   4.580   0.601
 5956WAT     H118110   3.386   4.618   0.686
 5956WAT     H218111   3.386   4.487   0.589
 5957WAT      O18112   6.000   9.204   4.516
 5957WAT     H118113   5.989   9.215   4.418
 5957WAT     H218114   6.094   9.177   4.536
 5958WAT      O18115   5.672   2.510   3.621
 5958WAT     H118116   5.577   2.496   3.595
 5958WAT     H218117   5.688   2.608   3.637
 5959WAT      O18118   5.995   3.835   5.355
 5959WAT     H118119   6.015   3.825   5.452
 5959WAT     H218120   5.901   3.806   5.337
 5960WAT      O18121   6.813   5.525   9.077
 5960WAT     H118122   6.881   5.454   9.093
 5960WAT     H218123   6.854   5.599   9.023
 5961WAT      O18124   1.461   9.591   1.322
 5961WAT     H118125   1.528   9.604   1.249
 5961WAT     H218126   1.446   9.493   1.336
 5962WAT      O18127   9.681   5.384   6.357
 5962WAT     H118128   9.755   5.438   6.316
 5962WAT     H218129   9.705   5.362   6.452
 5963WAT      O18130   9.276   3.626   5.899
 5963WAT     H118131   9.317   3.705   5.945
 5963WAT     H218132   9.344   3.553   5.893
 5964WAT      O18133   5.348   2.784   1.327
 5964WAT     H118134   5.294   2.803   1.409
 5964WAT     H218135   5.305   2.826   1.248
 5965WAT      O18136   7.520   8.010   5.661
 5965WAT     H118137   7.436   7.966   5.629
 5965WAT     H218138   7.596   7.947   5.654
 5966WAT      O18139   7.247   9.782   9.539
 5966WAT     H118140   7.336   9.813   9.573
 5966WAT     H218141   7.261   9.714   9.467
 5967WAT      O18142   2.462   1.433   2.582
 5967WAT     H118143   2.394   1.419   2.654
 5967WAT     H218144   2.416   1.435   2.493
 5968WAT      O18145   1.017   4.520   4.638
 5968WAT     H118146   0.971   4.470   4.564
 5968WAT     H218147   0.956   4.527   4.717
 5969WAT      O18148   5.323   3.559   3.083
 5969WAT     H118149   5.383   3.578   3.160
 5969WAT     H218150   5.324   3.461   3.063
 5970WAT      O18151   3.728   2.708   5.376
 5970WAT     H118152   3.804   2.648   5.403
 5970WAT     H218153   3.659   2.654   5.327
 5971WAT      O18154   2.850   1.058   5.559
 5971WAT     H118155   2.799   0.974   5.575
 5971WAT     H218156   2.789   1.128   5.522
 5972WAT      O18157   0.584   3.276   3.344
 5972WAT     H118158   0.520   3.338   3.390
 5972WAT     H218159   0.671   3.276   3.393
 5973WAT      O18160   0.201   3.980   1.498
 5973WAT     H118161   0.200   4.020   1.590
 5973WAT     H218162   0.215   3.881   1.505
 5974WAT      O18163   6.175   5.136   9.383
 5974WAT     H118164   6.122   5.053   9.403
 5974WAT     H218165   6.263   5.131   9.431
 5975WAT      O18166   8.098   3.938   7.514
 5975WAT     H118167   8.144   3.985   7.589
 5975WAT     H218168   8.117   3.840   7.520
 5976WAT      O18169   3.367   5.076   5.348
 5976WAT     H118170   3.390   5.066   5.445
 5976WAT     H218171   3.441   5.039   5.292
 5977WAT      O18172   2.009   3.891   5.933
 5977WAT     H118173   2.051   3.978   5.906
 5977WAT     H218174   1.935   3.869   5.871
 5978WAT      O18175   9.647   4.344   8.406
 5978WAT     H118176   9.597   4.321   8.490
 5978WAT     H218177   9.655   4.263   8.349
 5979WAT      O18178   8.908   4.418   0.831
 5979WAT     H118179   8.940   4.511   0.810
 5979WAT     H218180   8.894   4.368   0.746
 5980WAT      O18181   1.956   8.528   1.679
 5980WAT     H118182   1.982   8.617   1.643
 5980WAT     H218183   1.858   8.514   1.667
 5981WAT      O18184   2.365   4.516   9.648
 5981WAT     H118185   2.365   4.483   9.743
 5981WAT     H218186   2.416   4.602   9.643
 5982WAT      O18187   4.940   6.360   3.264
 5982WAT     H118188   4.963   6.370   3.167
 5982WAT     H218189   4.840   6.363   3.275
 5983WAT      O18190   1.587   1.027   9.435
 5983WAT     H118191   1.496   1.001   9.467
 5983WAT     H218192   1.622   0.959   9.371
 5984WAT      O18193   9.595   5.972   6.146
 5984WAT     H118194   9.612   5.874   6.139
 5984WAT     H218195   9.647   6.021   6.076
 5985WAT      O18196   7.309   4.045   8.409
 5985WAT     H118197   7.285   3.948   8.408
 5985WAT     H218198   7.275   4.089   8.326
 5986WAT      O18199   6.411   6.828   8.818
 5986WAT     H118200   6.346   6.904   8.809
 5986WAT     H218201   6.428   6.790   8.727
 5987WAT      O18202   4.417   3.914   9.782
 5987WAT     H118203   4.456   3.972   9.854
 5987WAT     H218204   4.488   3.889   9.717
 5988WAT      O18205   7.666   5.276   7.715
 5988WAT     H118206   7.694   5.282   7.619
 5988WAT     H218207   7.695   5.359   7.764
 5989WAT      O18208   4.564   6.960   6.529
 5989WAT     H118209   4.540   7.002   6.441
 5989WAT     H218210   4.483   6.956   6.588
 5990WAT      O18211   7.656   1.210   5.420
 5990WAT     H118212   7.646   1.256   5.509
 5990WAT     H218213   7.753   1.207   5.396
 5991WAT      O18214   5.503   1.295   7.735
 5991WAT     H118215   5.485   1.265   7.642
 5991WAT     H218216   5.565   1.230   7.780
 5992WAT      O18217   7.565   5.065   9.410
 5992WAT     H118218   7.582   5.098   9.503
 5992WAT     H218219   7.468   5.074   9.388
 5993WAT      O18220   7.559   4.341   6.456
 5993WAT     H118221   7.537   4.253   6.498
 5993WAT     H218222   7.605   4.326   6.369
 5994WAT      O18223   3.235   9.110   6.042
 5994WAT     H118224   3.325   9.115   6.085
 5994WAT     H218225   3.244   9.127   5.944
 5995WAT      O18226   2.754   6.130   7.241
 5995WAT     H118227   2.826   6.175   7.189
 5995WAT     H218228   2.793   6.088   7.322
 5996WAT      O18229   9.293   4.083   3.624
 5996WAT     H118230   9.255   4.130   3.544
 5996WAT     H218231   9.251   4.119   3.707
 5997WAT      O18232   6.672   0.202   1.597
 5997WAT     H118233   6.742   0.134   1.620
 5997WAT     H218234   6.717   0.284   1.561
 5998WAT      O18235   6.471   1.885   9.455
 5998WAT     H118236   6.400   1.916   9.391
 5998WAT     H218237   6.436   1.810   9.510
 5999WAT      O18238   4.585   9.530   5.954
 5999WAT     H118239   4.492   9.568   5.955
 5999WAT     H218240   4.649   9.597   5.991
 6000WAT      O18241   0.186   5.453   8.414
 6000WAT     H118242   0.123   5.398   8.469
 6000WAT     H218243   0.276   5.453   8.457
 6001WAT      O18244   0.171   2.568   4.956
 6001WAT     H118245   0.210   2.659   4.966
 6001WAT     H218246   0.241   2.499   4.978
 6002WAT      O18247   6.596   8.027   0.483
 6002WAT     H118248   6.643   7.953   0.532
 6002WAT     H218249   6.632   8.034   0.391
 6003WAT      O18250   6.695   0.755   8.111
 6003WAT     H118251   6.711   0.659   8.132
 6003WAT     H218252   6.740   0.778   8.025
 6004WAT      O18253   7.293   5.236   8.004
 6004WAT     H118254   7.317   5.150   8.049
 6004WAT     H218255   7.352   5.309   8.040
 6005WAT      O18256   7.139   8.833   5.258
 6005WAT     H118257   7.149   8.759   5.324
 6005WAT     H218258   7.186   8.915   5.292
 6006WAT      O18259   6.756   0.487   8.137
 6006WAT     H118260   6.713   0.440   8.060
 6006WAT     H218261   6.724   0.447   8.223
 6007WAT      O18262   1.969   2.772   3.141
 6007WAT     H118263   1.872   2.748   3.139
 6007WAT     H218264   1.982   2.856   3.194
 6008WAT      O18265   9.446   4.810   3.723
 6008WAT     H118266   9.364   4.846   3.768
 6008WAT     H218267   9.469   4.721   3.763
 6009WAT      O18268   5.098   0.991   5.428
 6009WAT     H118269   5.031   0.916   5.435
 6009WAT     H218270   5.138   1.007   5.518
 6010WAT      O18271   2.142   9.249   3.909
 6010WAT     H118272   2.054   9.211   3.936
 6010WAT     H218273   2.213   9.178   3.915
 6011WAT      O18274   2.416   6.212   1.887
 6011WAT     H118275   2.406   6.310   1.871
 6011WAT     H218276   2.350   6.162   1.831
 6012WAT      O18277   1.951   3.012   3.271
 6012WAT     H118278   1.968   2.984   3.365
 6012WAT     H218279   1.978   3.108   3.259
 6013WAT      O18280   0.100   5.243   2.659
 6013WAT     H118281   0.011   5.243   2.703
 6013WAT     H218282   0.093   5.281   2.567
 6014WAT      O18283   7.636   2.495   7.739
 6014WAT     H118284   7.576   2.416   7.745
 6014WAT     H218285   7.620   2.544   7.653
 6015WAT      O18286   4.442   9.136   7.931
 6015WAT     H118287   4.362   9.173   7.979
 6015WAT     H218288   4.411   9.080   7.854
 6016WAT      O18289   8.084   4.169   5.039
 6016WAT     H118290   8.157   4.235   5.021
 6016WAT     H218291   8.124   4.080   5.062
 6017WAT      O18292   1.075   8.097   3.862
 6017WAT     H118293   1.085   7.998   3.857
 6017WAT     H218294   1.155   8.140   3.820
 6018WAT      O18295   7.504   1.343   7.925
 6018WAT     H118296   7.431   1.397   7.883
 6018WAT     H218297   7.468   1.291   8.002
 6019WAT      O18298   1.801   6.044   2.915
 6019WAT     H118299   1.824   5.973   2.982
 6019WAT     H218300   1.702   6.053   2.910
 6020WAT      O18301   1.948   6.780   6.776
 6020WAT     H118302   2.034   6.728   6.776
 6020WAT     H218303   1.965   6.870   6.816
 6021WAT      O18304   8.665   3.299   3.219
 6021WAT     H118305   8.744   3.360   3.218
 6021WAT     H218306   8.584   3.351   3.247
 6022WAT      O18307   5.844   8.353   7.383
 6022WAT     H118308   5.851   8.416   7.306
 6022WAT     H218309   5.924   8.293   7.383
 6023WAT      O18310   3.359   2.786   0.773
 6023WAT     H118311   3.268   2.773   0.812
 6023WAT     H218312   3.351   2.817   0.679
 6024WAT      O18313   5.367   0.738   9.683
 6024WAT     H118314   5.392   0.835   9.676
 6024WAT     H218315   5.395   0.690   9.600
 6025WAT      O18316   0.791   7.031   4.157
 6025WAT     H118317   0.890   7.033   4.166
 6025WAT     H218318   0.754   6.960   4.218
 6026WAT      O18319   2.678   1.555   9.523
 6026WAT     H118320   2.722   1.558   9.433
 6026WAT     H218321   2.718   1.480   9.577
 6027WAT      O18322   9.529   8.832   5.707
 6027WAT     H118323   9.524   8.796   5.613
 6027WAT     H218324   9.451   8.893   5.724
 6028WAT      O18325   7.358   4.632   3.308
 6028WAT     H118326   7.313   4.544   3.318
 6028WAT     H218327   7.457   4.621   3.313
 6029WAT      O18328   5.609   7.736   1.608
 6029WAT     H118329   5.652   7.802   1.670
 6029WAT     H218330   5.612   7.771   1.515
 6030WAT      O18331   0.479   1.558   8.952
 6030WAT     H118332   0.392   1.510   8.944
 6030WAT     H218333   0.477   1.619   9.031
 6031WAT      O18334   8.373   2.562   8.377
 6031WAT     H118335   8.274   2.575   8.385
 6031WAT     H218336   8.398   2.470   8.406
 6032WAT      O18337   3.581   0.387   8.662
 6032WAT     H118338   3.542   0.345   8.743
 6032WAT     H218339   3.680   0.371   8.661
 6033WAT      O18340   8.275   7.144   6.384
 6033WAT     H118341   8.357   7.150   6.328
 6033WAT     H218342   8.194   7.156   6.326
 6034WAT      O18343   0.465   8.247   8.642
 6034WAT     H118344   0.468   8.337   8.599
 6034WAT     H218345   0.451   8.258   8.741
 6035WAT      O18346   7.674   4.080   2.889
 6035WAT     H118347   7.589   4.090   2.837
 6035WAT     H218348   7.655   4.034   2.976
 6036WAT      O18349   3.723   2.232   5.360
 6036WAT     H118350   3.720   2.249   5.458
 6036WAT     H218351   3.706   2.317   5.310
 6037WAT      O18352   5.710   7.339   2.053
 6037WAT     H118353   5.734   7.296   2.140
 6037WAT     H218354   5.677   7.432   2.070
 6038WAT      O18355   7.310   7.105   1.869
 6038WAT     H118356   7.343   7.195   1.897
 6038WAT     H218357   7.302   7.102   1.769
 6039WAT      O18358   8.736   5.161   8.657
 6039WAT     H118359   8.734   5.125   8.750
 6039WAT     H218360   8.763   5.088   8.594
 6040WAT      O18361   9.297   4.595   6.447
 6040WAT     H118362   9.392   4.591   6.414
 6040WAT     H218363   9.290   4.661   6.521
 6041WAT      O18364   4.106   1.072   8.947
 6041WAT     H118365   4.133   1.169   8.950
 6041WAT     H218366   4.122   1.031   9.036
 6042WAT      O18367   7.388   8.291   3.830
 6042WAT     H118368   7.391   8.374   3.774
 6042WAT     H218369   7.410   8.212   3.773
 6043WAT      O18370   7.319   4.706   8.899
 6043WAT     H118371   7.229   4.724   8.939
 6043WAT     H218372   7.330   4.760   8.816
 6044WAT      O18373   3.154   2.390   3.335
 6044WAT     H118374   3.143   2.295   3.364
 6044WAT     H218375   3.073   2.418   3.282
 6045WAT      O18376   8.016   5.323   6.446
 6045WAT     H118377   8.047   5.233   6.415
 6045WAT     H218378   8.073   5.353   6.523
 6046WAT      O18379   4.741   0.797   5.312
 6046WAT     H118380   4.693   0.884   5.301
 6046WAT     H218381   4.818   0.809   5.375
 6047WAT      O18382   4.472   7.174   5.820
 6047WAT     H118383   4.565   7.139   5.813
 6047WAT     H218384   4.409   7.097   5.828
 6048WAT      O18385   4.919   5.712   7.810
 6048WAT     H118386   4.921   5.800   7.857
 6048WAT     H218387   4.986   5.712   7.735
 6049WAT      O18388   3.160   1.679   4.702
 6049WAT     H118389   3.178   1.637   4.791
 6049WAT     H218390   3.157   1.608   4.632
 6050WAT      O18391   8.073   2.097   2.054
 6050WAT     H118392   8.156   2.152   2.063
 6050WAT     H218393   8.014   2.137   1.985
 6051WAT      O18394   0.637   3.546   9.808
 6051WAT     H118395   0.663   3.523   9.714
 6051WAT     H218396   0.710   3.520   9.870
 6052WAT      O18397   6.897   0.918   2.481
 6052WAT     H118398   6.900   0.853   2.405
 6052WAT     H218399   6.987   0.922   2.524
 6053WAT      O18400   6.584   5.943   7.979
 6053WAT     H118401   6.546   6.036   7.975
 6053WAT     H218402   6.553   5.899   8.063
 6054WAT      O18403   4.245   5.412   7.995
 6054WAT     H118404   4.209   5.358   7.918
 6054WAT     H218405   4.339   5.438   7.977
 6055WAT      O18406   2.566   6.596   7.502
 6055WAT     H118407   2.585   6.694   7.507
 6055WAT     H218408   2.581   6.554   7.591
 6056WAT      O18409   2.290   4.710   6.811
 6056WAT     H118410   2.315   4.807   6.816
 6056WAT     H218411   2.369   4.653   6.832
 6057WAT      O18412   4.369   1.245   2.222
 6057WAT     H118413   4.352   1.147   2.221
 6057WAT     H218414   4.285   1.293   2.248
 6058WAT      O18415   7.452   4.898   3.639
 6058WAT     H118416   7.421   4.804   3.656
 6058WAT     H218417   7.546   4.896   3.604
 6059WAT      O18418   6.250   3.919   3.273
 6059WAT     H118419   6.255   3.998   3.336
 6059WAT     H218420   6.284   3.947   3.183
 6060WAT      O18421   0.940   4.873   5.927
 6060WAT     H118422   0.918   4.953   5.871
 6060WAT     H218423   1.031   4.883   5.966
 6061WAT      O18424   4.288   7.087   2.361
 6061WAT     H118425   4.263   7.164   2.304
 6061WAT     H218426   4.383   7.098   2.392
 6062WAT      O18427   3.626   0.315   9.825
 6062WAT     H118428   3.604   0.410   9.848
 6062WAT     H218429   3.573   0.287   9.745
 6063WAT      O18430   2.387   1.911   6.444
 6063WAT     H118431   2.429   1.930   6.533
 6063WAT     H218432   2.416   1.980   6.378
 6064WAT      O18433   5.712   3.524   0.567
 6064WAT     H118434   5.776   3.516   0.644
 6064WAT     H218435   5.734   3.455   0.498
 6065WAT      O18436   5.121   8.345   4.331
 6065WAT     H118437   5.096   8.248   4.325
 6065WAT     H218438   5.041   8.402   4.315
 6066WAT      O18439   2.913   1.199   4.066
 6066WAT     H118440   2.938   1.115   4.114
 6066WAT     H218441   2.859   1.177   3.985
 6067WAT      O18442   5.410   5.336   7.595
 6067WAT     H118443   5.334   5.368   7.650
 6067WAT     H218444   5.425   5.238   7.613
 6068WAT      O18445   4.296   8.802   7.454
 6068WAT     H118446   4.274   8.752   7.370
 6068WAT     H218447   4.265   8.749   7.533
 6069WAT      O18448   6.055   4.011   4.116
 6069WAT     H118449   6.089   3.953   4.190
 6069WAT     H218450   6.132   4.049   4.066
 6070WAT      O18451   1.784   3.316   8.544
 6070WAT     H118452   1.733   3.276   8.468
 6070WAT     H218453   1.719   3.352   8.611
 6071WAT      O18454   3.379   3.054   8.118
 6071WAT     H118455   3.281   3.073   8.121
 6071WAT     H218456   3.428   3.137   8.093
 6072WAT      O18457   4.624   0.221   4.861
 6072WAT     H118458   4.645   0.314   4.830
 6072WAT     H218459   4.630   0.159   4.783
 6073WAT      O18460   2.304   9.452   0.578
 6073WAT     H118461   2.316   9.448   0.677
 6073WAT     H218462   2.391   9.472   0.534
 6074WAT      O18463   4.516   2.299   8.563
 6074WAT     H118464   4.426   2.269   8.596
 6074WAT     H218465   4.515   2.399   8.551
 6075WAT      O18466   6.836   5.539   2.942
 6075WAT     H118467   6.797   5.499   2.859
 6075WAT     H218468   6.832   5.639   2.936
 6076WAT      O18469   9.304   4.554   3.002
 6076WAT     H118470   9.377   4.486   3.006
 6076WAT     H218471   9.223   4.517   3.048
 6077WAT      O18472   2.367   6.721   2.351
 6077WAT     H118473   2.347   6.814   2.380
 6077WAT     H218474   2.287   6.663   2.366
 6078WAT      O18475   0.175   3.983   9.730
 6078WAT     H118476   0.205   3.891   9.709
 6078WAT     H218477   0.077   3.992   9.709
 6079WAT      O18478   2.261   4.142   9.062
 6079WAT     H118479   2.288   4.085   8.985
 6079WAT     H218480   2.330   4.138   9.134
 6080WAT      O18481   9.439   8.111   9.412
 6080WAT     H118482   9.416   8.202   9.378
 6080WAT     H218483   9.378   8.087   9.487
 6081WAT      O18484   9.465   0.700   7.025
 6081WAT     H118485   9.453   0.601   7.039
 6081WAT     H218486   9.375   0.744   7.020
 6082WAT      O18487   7.783   7.803   8.383
 6082WAT     H118488   7.688   7.822   8.410
 6082WAT     H218489   7.842   7.878   8.413
 6083WAT      O18490   4.880   6.919   4.360
 6083WAT     H118491   4.875   6.907   4.261
 6083WAT     H218492   4.788   6.921   4.398
 6084WAT      O18493   4.322   4.716   9.261
 6084WAT     H118494   4.405   4.673   9.297
 6084WAT     H218495   4.324   4.715   9.161
 6085WAT      O18496   0.336   1.518   3.999
 6085WAT     H118497   0.326   1.441   3.936
 6085WAT     H218498   0.272   1.590   3.972
 6086WAT      O18499   6.705   7.779   6.780
 6086WAT     H118500   6.792   7.730   6.790
 6086WAT     H218501   6.656   7.779   6.867
 6087WAT      O18502   6.752   4.127   6.138
 6087WAT     H118503   6.792   4.090   6.054
 6087WAT     H218504   6.731   4.052   6.201
 6088WAT      O18505   0.274   0.652   2.615
 6088WAT     H118506   0.322   0.721   2.670
 6088WAT     H218507   0.330   0.628   2.536
 6089WAT      O18508   3.547   3.533   0.172
 6089WAT     H118509   3.589   3.514   0.261
 6089WAT     H218510   3.619   3.549   0.104
 6090WAT      O18511   9.562   0.306   3.693
 6090WAT     H118512   9.556   0.243   3.771
 6090WAT     H218513   9.657   0.310   3.661
 6091WAT      O18514   6.011   4.137   0.024
 6091WAT     H118515   6.009   4.122   0.123
 6091WAT     H218516   5.982   4.053  -0.023
 6092WAT      O18517   0.567   1.350   0.827
 6092WAT     H118518   0.482   1.401   0.837
 6092WAT     H218519   0.620   1.357   0.912
 6093WAT      O18520   3.551   7.116   8.455
 6093WAT     H118521   3.641   7.127   8.497
 6093WAT     H218522   3.480   7.129   8.525
 6094WAT      O18523   6.647   3.935   6.951
 6094WAT     H118524   6.709   3.885   6.890
 6094WAT     H218525   6.605   3.870   7.015
 6095WAT      O18526   4.498   5.418   7.229
 6095WAT     H118527   4.563   5.390   7.300
 6095WAT     H218528   4.534   5.392   7.140
 6096WAT      O18529   1.273   4.242   6.266
 6096WAT     H118530   1.249   4.261   6.171
 6096WAT     H218531   1.191   4.219   6.317
 6097WAT      O18532   4.054   9.359   9.310
 6097WAT     H118533   4.114   9.380   9.233
 6097WAT     H218534   4.052   9.437   9.373
 6098WAT      O18535   3.567   6.569   0.742
 6098WAT     H118536   3.591   6.541   0.835
 6098WAT     H218537   3.613   6.655   0.720
 6099WAT      O18538   9.019   7.135   1.539
 6099WAT     H118539   9.044   7.229   1.518
 6099WAT     H218540   9.050   7.112   1.632
 6100WAT      O18541   3.873   1.017   0.397
 6100WAT     H118542   3.906   1.112   0.399
 6100WAT     H218543   3.945   0.957   0.362
 6101WAT      O18544   6.098   7.868   3.658
 6101WAT     H118545   6.053   7.865   3.747
 6101WAT     H218546   6.031   7.853   3.585
 6102WAT      O18547   2.903   5.489   2.292
 6102WAT     H118548   2.925   5.418   2.360
 6102WAT     H218549   2.908   5.449   2.200
 6103WAT      O18550   6.646   5.326   3.549
 6103WAT     H118551   6.745   5.340   3.542
 6103WAT     H218552   6.624   5.289   3.640
 6104WAT      O18553   2.915   9.320   0.792
 6104WAT     H118554   3.005   9.345   0.825
 6104WAT     H218555   2.901   9.357   0.700
 6105WAT      O18556   3.320   0.694   3.066
 6105WAT     H118557   3.395   0.736   3.117
 6105WAT     H218558   3.350   0.672   2.973
 6106WAT      O18559   6.749   7.883   5.499
 6106WAT     H118560   6.762   7.982   5.492
 6106WAT     H218561   6.761   7.854   5.594
 6107WAT      O18562   2.330   4.960   5.243
 6107WAT     H118563   2.370   4.881   5.291
 6107WAT     H218564   2.381   4.976   5.158
 6108WAT      O18565   7.187   3.076   9.879
 6108WAT     H118566   7.125   3.102   9.952
 6108WAT     H218567   7.260   3.018   9.917
 6109WAT      O18568   3.839   2.481   5.726
 6109WAT     H118569   3.890   2.475   5.641
 6109WAT     H218570   3.902   2.468   5.803
 6110WAT      O18571   8.914   5.601   5.800
 6110WAT     H118572   9.013   5.613   5.815
 6110WAT     H218573   8.899   5.531   5.730
 6111WAT      O18574   7.236   0.336   3.823
 6111WAT     H118575   7.231   0.245   3.864
 6111WAT     H218576   7.206   0.332   3.728
 6112WAT      O18577   3.055   4.865   3.606
 6112WAT     H118578   3.145   4.864   3.562
 6112WAT     H218579   3.067   4.881   3.704
 6113WAT      O18580   7.494   7.651   5.413
 6113WAT     H118581   7.486   7.600   5.328
 6113WAT     H218582   7.479   7.590   5.491
 6114WAT      O18583   4.247   6.820   1.670
 6114WAT     H118584   4.236   6.721   1.667
 6114WAT     H218585   4.207   6.855   1.755
 6115WAT      O18586   8.831   3.180   8.147
 6115WAT     H118587   8.927   3.177   8.176
 6115WAT     H218588   8.823   3.135   8.058
 6116WAT      O18589   4.397   1.579   9.567
 6116WAT     H118590   4.433   1.522   9.494
 6116WAT     H218591   4.368   1.667   9.530
 6117WAT      O18592   4.107   2.631   5.052
 6117WAT     H118593   4.094   2.536   5.081
 6117WAT     H218594   4.063   2.646   4.964
 6118WAT      O18595   9.605   4.975   0.916
 6118WAT     H118596   9.568   5.054   0.868
 6118WAT     H218597   9.654   4.916   0.852
 6119WAT      O18598   7.116   9.718   5.682
 6119WAT     H118599   7.073   9.639   5.638
 6119WAT     H218600   7.049   9.791   5.692
 6120WAT      O18601   1.238   5.005   5.102
 6120WAT     H118602   1.280   5.002   5.011
 6120WAT     H218603   1.159   5.067   5.099
 6121WAT      O18604   7.896   3.669   0.095
 6121WAT     H118605   7.825   3.601   0.076
 6121WAT     H218606   7.947   3.642   0.176
 6122WAT      O18607   8.062   1.059   3.986
 6122WAT     H118608   8.099   1.003   3.911
 6122WAT     H218609   8.015   1.138   3.949
 6123WAT      O18610   9.671   0.066   5.869
 6123WAT     H118611   9.576   0.042   5.889
 6123WAT     H218612   9.674   0.153   5.819
 6124WAT      O18613   5.103   7.888   7.494
 6124WAT     H118614   5.033   7.827   7.458
 6124WAT     H218615   5.089   7.900   7.593
 6125WAT      O18616   7.368   8.861   4.417
 6125WAT     H118617   7.331   8.899   4.502
 6125WAT     H218618   7.341   8.918   4.340
 6126WAT      O18619   3.147   4.998   0.195
 6126WAT     H118620   3.072   4.935   0.174
 6126WAT     H218621   3.179   5.041   0.110
 6127WAT      O18622   1.288   8.218   3.751
 6127WAT     H118623   1.278   8.228   3.652
 6127WAT     H218624   1.385   8.213   3.775
 6128WAT      O18625   4.508   1.271   7.586
 6128WAT     H118626   4.597   1.264   7.631
 6128WAT     H218627   4.512   1.229   7.496
 6129WAT      O18628   2.915   3.720   0.458
 6129WAT     H118629   2.888   3.801   0.406
 6129WAT     H218630   2.949   3.748   0.548
 6130WAT      O18631   2.436   2.176   9.399
 6130WAT     H118632   2.418   2.252   9.337
 6130WAT     H218633   2.350   2.132   9.425
 6131WAT      O18634   1.657   6.837   7.012
 6131WAT     H118635   1.639   6.914   6.950
 6131WAT     H218636   1.739   6.788   6.982
 6132WAT      O18637   9.236   4.904   3.858
 6132WAT     H118638   9.156   4.955   3.826
 6132WAT     H218639   9.206   4.833   3.922
 6133WAT      O18640   9.300   9.542   8.178
 6133WAT     H118641   9.331   9.637   8.168
 6133WAT     H218642   9.231   9.538   8.250
 6134WAT      O18643   7.537   6.746   2.791
 6134WAT     H118644   7.566   6.721   2.699
 6134WAT     H218645   7.539   6.845   2.800
 6135WAT      O18646   5.583   5.212   4.324
 6135WAT     H118647   5.663   5.246   4.275
 6135WAT     H218648   5.503   5.266   4.298
 6136WAT      O18649   8.150   0.353   0.627
 6136WAT     H118650   8.228   0.413   0.611
 6136WAT     H218651   8.081   0.402   0.681
 6137WAT      O18652   2.379   9.689   2.561
 6137WAT     H118653   2.398   9.779   2.601
 6137WAT     H218654   2.431   9.619   2.610
 6138WAT      O18655   7.796   8.459   1.952
 6138WAT     H118656   7.816   8.451   1.855
 6138WAT     H218657   7.848   8.391   2.003
 6139WAT      O18658   8.045   5.275   0.917
 6139WAT     H118659   8.142   5.264   0.940
 6139WAT     H218660   8.021   5.213   0.842
 6140WAT      O18661   4.285   0.978   2.252
 6140WAT     H118662   4.282   0.968   2.351
 6140WAT     H218663   4.194   0.961   2.214
 6141WAT      O18664   5.092   4.775   8.659
 6141WAT     H118665   5.108   4.741   8.752
 6141WAT     H218666   5.079   4.697   8.598
 6142WAT      O18667   7.418   8.373   6.163
 6142WAT     H118668   7.355   8.391   6.088
 6142WAT     H218669   7.502   8.425   6.148
 6143WAT      O18670   4.026   4.327   0.078
 6143WAT     H118671   3.967   4.349  -0.000
 6143WAT     H218672   4.050   4.412   0.125
 6144WAT      O18673   5.830   5.310   0.673
 6144WAT     H118674   5.804   5.406   0.685
 6144WAT     H218675   5.900   5.285   0.740
 6145WAT      O18676   3.720   1.306   3.815
 6145WAT     H118677   3.790   1.357   3.767
 6145WAT     H218678   3.636   1.360   3.820
 6146WAT      O18679   1.676   8.759   0.921
 6146WAT     H118680   1.727   8.686   0.967
 6146WAT     H218681   1.588   8.725   0.890
 6147WAT      O18682   1.123   1.699   6.335
 6147WAT     H118683   1.027   1.722   6.319
 6147WAT     H218684   1.162   1.765   6.400
 6148WAT      O18685   2.759   2.602   9.700
 6148WAT     H118686   2.743   2.511   9.738
 6148WAT     H218687   2.675   2.637   9.660
 6149WAT      O18688   9.534   4.742   5.073
 6149WAT     H118689   9.457   4.697   5.118
 6149WAT     H218690   9.537   4.714   4.977
 6150WAT      O18691   4.375   5.755   3.861
 6150WAT     H118692   4.451   5.691   3.847
 6150WAT     H218693   4.386   5.833   3.799
 6151WAT      O18694   9.209   2.243   5.550
 6151WAT     H118695   9.199   2.199   5.461
 6151WAT     H218696   9.306   2.249   5.573
 6152WAT      O18697   9.167   9.255   9.654
 6152WAT     H118698   9.223   9.284   9.577
 6152WAT     H218699   9.139   9.335   9.707
 6153WAT      O18700   3.628   3.383   2.966
 6153WAT     H118701   3.646   3.480   2.980
 6153WAT     H218702   3.657   3.357   2.874
 6154WAT      O18703   6.601   1.230   6.677
 6154WAT     H118704   6.599   1.160   6.605
 6154WAT     H218705   6.547   1.199   6.755
 6155WAT      O18706   4.725   9.195   8.742
 6155WAT     H118707   4.804   9.221   8.796
 6155WAT     H218708   4.753   9.130   8.671
 6156WAT      O18709   6.126   3.604   2.047
 6156WAT     H118710   6.166   3.573   2.133
 6156WAT     H218711   6.072   3.687   2.063
 6157WAT      O18712   9.565   8.591   7.629
 6157WAT     H118713   9.660   8.608   7.655
 6157WAT     H218714   9.549   8.492   7.621
 6158WAT      O18715   0.693   5.438   9.068
 6158WAT     H118716   0.723   5.486   8.986
 6158WAT     H218717   0.660   5.347   9.043
 6159WAT      O18718   1.110   8.970   2.541
 6159WAT     H118719   1.080   8.968   2.636
 6159WAT     H218720   1.202   8.930   2.534
 6160WAT      O18721   9.760   2.620   1.129
 6160WAT     H118722   9.673   2.579   1.152
 6160WAT     H218723   9.764   2.713   1.167
 6161WAT      O18724   7.933   1.895   5.207
 6161WAT     H118725   7.874   1.861   5.280
 6161WAT     H218726   7.964   1.987   5.229
 6162WAT      O18727   4.200   9.630   1.760
 6162WAT     H118728   4.188   9.593   1.852
 6162WAT     H218729   4.222   9.556   1.696
 6163WAT      O18730   1.018   3.833   7.938
 6163WAT     H118731   0.958   3.762   7.901
 6163WAT     H218732   1.040   3.898   7.866
 6164WAT      O18733   4.296   0.205   1.872
 6164WAT     H118734   4.383   0.225   1.918
 6164WAT     H218735   4.269   0.111   1.894
 6165WAT      O18736   2.265   2.364   5.714
 6165WAT     H118737   2.302   2.372   5.807
 6165WAT     H218738   2.284   2.273   5.678
 6166WAT      O18739   0.390   9.818   7.524
 6166WAT     H118740   0.305   9.781   7.487
 6166WAT     H218741   0.377   9.915   7.546
 6167WAT      O18742   5.665   3.744   6.520
 6167WAT     H118743   5.683   3.703   6.431
 6167WAT     H218744   5.570   3.775   6.524
 6168WAT      O18745   1.781   2.454   1.973
 6168WAT     H118746   1.766   2.389   2.047
 6168WAT     H218747   1.857   2.424   1.916
 6169WAT      O18748   6.554   9.580   5.090
 6169WAT     H118749   6.564   9.647   5.163
 6169WAT     H218750   6.627   9.592   5.023
 6170WAT      O18751   5.296   4.853   2.070
 6170WAT     H118752   5.233   4.912   2.020
 6170WAT     H218753   5.390   4.875   2.045
 6171WAT      O18754   9.602   1.056   7.717
 6171WAT     H118755   9.587   0.957   7.716
 6171WAT     H218756   9.687   1.076   7.766
 6172WAT      O18757   6.292   3.320   8.144
 6172WAT     H118758   6.390   3.299   8.150
 6172WAT     H218759   6.278   3.417   8.163
 6173WAT      O18760   8.525   6.931   1.492
 6173WAT     H118761   8.593   6.870   1.533
 6173WAT     H218762   8.454   6.878   1.446
 6174WAT      O18763   4.849   3.193   7.866
 6174WAT     H118764   4.755   3.217   7.888
 6174WAT     H218765   4.891   3.145   7.943
 6175WAT      O18766   1.874   6.318   3.080
 6175WAT     H118767   1.800   6.251   3.075
 6175WAT     H218768   1.839   6.406   3.112
 6176WAT      O18769   1.274   1.276   4.249
 6176WAT     H118770   1.317   1.187   4.230
 6176WAT     H218771   1.328   1.325   4.318
 6177WAT      O18772   2.200   0.106   8.780
 6177WAT     H118773   2.114   0.150   8.805
 6177WAT     H218774   2.229   0.044   8.853
 6178WAT      O18775   2.757   8.812   2.596
 6178WAT     H118776   2.838   8.798   2.540
 6178WAT     H218777   2.696   8.878   2.551
 6179WAT      O18778   8.996   9.451   6.653
 6179WAT     H118779   9.009   9.541   6.696
 6179WAT     H218780   8.914   9.454   6.595
 6180WAT      O18781   5.677   0.142   7.043
 6180WAT     H118782   5.709   0.221   7.096
 6180WAT     H218783   5.585   0.159   7.008
 6181WAT      O18784   0.408   5.267   3.528
 6181WAT     H118785   0.490   5.246   3.475
 6181WAT     H218786   0.350   5.330   3.475
 6182WAT      O18787   5.880   5.418   4.525
 6182WAT     H118788   5.825   5.336   4.546
 6182WAT     H218789   5.974   5.404   4.555
 6183WAT      O18790   5.358   5.181   4.897
 6183WAT     H118791   5.351   5.177   4.996
 6183WAT     H218792   5.270   5.157   4.856
 6184WAT      O18793   7.208   0.391   1.485
 6184WAT     H118794   7.167   0.420   1.399
 6184WAT     H218795   7.266   0.465   1.521
 6185WAT      O18796   1.881   1.175   8.044
 6185WAT     H118797   1.806   1.193   7.981
 6185WAT     H218798   1.968   1.173   7.994
 6186WAT      O18799   7.025   8.499   7.007
 6186WAT     H118800   7.015   8.539   7.098
 6186WAT     H218801   6.942   8.448   6.983
 6187WAT      O18802   2.989   5.398   1.133
 6187WAT     H118803   2.955   5.312   1.171
 6187WAT     H218804   2.923   5.434   1.067
 6188WAT      O18805   1.154   5.977   4.797
 6188WAT     H118806   1.157   6.076   4.813
 6188WAT     H218807   1.118   5.931   4.878
 6189WAT      O18808   9.574   5.172   7.440
 6189WAT     H118809   9.590   5.188   7.538
 6189WAT     H218810   9.549   5.076   7.426
 6190WAT      O18811   7.242   3.378   1.130
 6190WAT     H118812   7.269   3.286   1.159
 6190WAT     H218813   7.218   3.433   1.210
 6191WAT      O18814   2.424   2.691   1.725
 6191WAT     H118815   2.329   2.695   1.694
 6191WAT     H218816   2.485   2.702   1.646
 6192WAT      O18817   6.214   8.658   6.327
 6192WAT     H118818   6.174   8.739   6.284
 6192WAT     H218819   6.290   8.686   6.386
 6193WAT      O18820   0.955   2.155   7.954
 6193WAT     H118821   1.045   2.130   7.988
 6193WAT     H218822   0.906   2.073   7.923
 6194WAT      O18823   2.753   5.215   0.069
 6194WAT     H118824   2.728   5.286   0.002
 6194WAT     H218825   2.689   5.218   0.145
 6195WAT      O18826   4.284   5.637   1.016
 6195WAT     H118827   4.315   5.726   0.983
 6195WAT     H218828   4.358   5.591   1.064
 6196WAT      O18829   1.505   3.710   5.134
 6196WAT     H118830   1.533   3.624   5.177
 6196WAT     H218831   1.569   3.733   5.061
 6197WAT      O18832   1.925   9.637   9.380
 6197WAT     H118833   1.960   9.706   9.317
 6197WAT     H218834   1.961   9.547   9.354
 6198WAT      O18835   3.913   8.367   0.674
 6198WAT     H118836   3.938   8.406   0.762
 6198WAT     H218837   3.862   8.434   0.620
 6199WAT      O18838   3.943   2.692   2.174
 6199WAT     H118839   3.996   2.674   2.257
 6199WAT     H218840   4.005   2.704   2.096
 6200WAT      O18841   7.480   7.786   4.629
 6200WAT     H118842   7.409   7.717   4.640
 6200WAT     H218843   7.568   7.742   4.608
 6201WAT      O18844   0.688   5.008   5.332
 6201WAT     H118845   0.642   5.024   5.419
 6201WAT     H218846   0.698   4.909   5.318
 6202WAT      O18847   7.071   8.351   4.603
 6202WAT     H118848   7.140   8.279   4.614
 6202WAT     H218849   7.100   8.413   4.530
 6203WAT      O18850   3.357   5.570   8.243
 6203WAT     H118851   3.257   5.564   8.243
 6203WAT     H218852   3.390   5.578   8.337
 6204WAT      O18853   7.564   4.818   4.631
 6204WAT     H118854   7.559   4.917   4.644
 6204WAT     H218855   7.555   4.773   4.720
 6205WAT      O18856   5.332   4.319   0.145
 6205WAT     H118857   5.298   4.236   0.190
 6205WAT     H218858   5.286   4.399   0.184
 6206WAT      O18859   7.772   9.504   0.829
 6206WAT     H118860   7.812   9.439   0.764
 6206WAT     H218861   7.834   9.516   0.907
 6207WAT      O18862   1.408   4.650   9.497
 6207WAT     H118863   1.453   4.733   9.466
 6207WAT     H218864   1.427   4.635   9.594
 6208WAT      O18865   0.145   4.242   4.885
 6208WAT     H118866   0.150   4.292   4.971
 6208WAT     H218867   0.186   4.151   4.897
 6209WAT      O18868   6.982   0.684   9.713
 6209WAT     H118869   6.885   0.683   9.687
 6209WAT     H218870   7.039   0.672   9.632
 6210WAT      O18871   4.444   3.799   1.290
 6210WAT     H118872   4.435   3.859   1.369
 6210WAT     H218873   4.513   3.835   1.227
 6211WAT      O18874   0.678   0.914   5.776
 6211WAT     H118875   0.707   0.878   5.688
 6211WAT     H218876   0.585   0.883   5.796
 6212WAT      O18877   1.270   8.106   2.003
 6212WAT     H118878   1.201   8.114   1.931
 6212WAT     H218879   1.357   8.078   1.962
 6213WAT      O18880   2.365   2.941   6.778
 6213WAT     H118881   2.296   3.008   6.807
 6213WAT     H218882   2.386   2.880   6.854
 6214WAT      O18883   0.850   1.851   0.773
 6214WAT     H118884   0.901   1.836   0.858
 6214WAT     H218885   0.758   1.814   0.783
 6215WAT      O18886   4.229   8.025   6.811
 6215WAT     H118887   4.215   7.931   6.841
 6215WAT     H218888   4.171   8.087   6.865
 6216WAT      O18889   1.916   9.441   6.084
 6216WAT     H118890   1.991   9.412   6.024
 6216WAT     H218891   1.843   9.373   6.082
 6217WAT      O18892   3.037   5.686   5.031
 6217WAT     H118893   3.060   5.693   5.128
 6217WAT     H218894   2.954   5.631   5.020
 6218WAT      O18895   4.038   9.544   8.428
 6218WAT     H118896   4.001   9.620   8.375
 6218WAT     H218897   3.972   9.468   8.427
 6219WAT      O18898   9.753   6.974   6.161
 6219WAT     H118899   9.720   7.051   6.215
 6219WAT     H218900   9.789   7.008   6.074
 6220WAT      O18901   3.821   7.557   4.575
 6220WAT     H118902   3.767   7.484   4.533
 6220WAT     H218903   3.890   7.590   4.511
 6221WAT      O18904   6.552   9.678   3.422
 6221WAT     H118905   6.510   9.691   3.512
 6221WAT     H218906   6.496   9.617   3.367
 6222WAT      O18907   3.211   6.634   6.477
 6222WAT     H118908   3.206   6.642   6.377
 6222WAT     H218909   3.238   6.541   6.502
 6223WAT      O18910   1.174   6.663   3.773
 6223WAT     H118911   1.125   6.694   3.691
 6223WAT     H218912   1.249   6.726   3.792
 6224WAT      O18913   3.617   9.102   8.225
 6224WAT     H118914   3.559   9.054   8.159
 6224WAT     H218915   3.712   9.078   8.209
 6225WAT      O18916   3.275   9.806   4.753
 6225WAT     H118917   3.238   9.808   4.660
 6225WAT     H218918   3.354   9.744   4.755
 6226WAT      O18919   8.171   4.191   3.914
 6226WAT     H118920   8.116   4.149   3.842
 6226WAT     H218921   8.182   4.127   3.989
 6227WAT      O18922   1.034   5.937   5.617
 6227WAT     H118923   1.061   5.990   5.537
 6227WAT     H218924   1.052   5.989   5.700
 6228WAT      O18925   4.005   3.061   0.856
 6228WAT     H118926   3.939   3.010   0.912
 6228WAT     H218927   3.969   3.070   0.763
 6229WAT      O18928   5.046   6.316   0.453
 6229WAT     H118929   4.976   6.254   0.487
 6229WAT     H218930   5.058   6.302   0.355
 6230WAT      O18931   8.589   8.884   2.572
 6230WAT     H118932   8.522   8.910   2.502
 6230WAT     H218933   8.545   8.826   2.640
 6231WAT      O18934   2.444   9.338   5.377
 6231WAT     H118935   2.543   9.327   5.372
 6231WAT     H218936   2.417   9.423   5.331
 6232WAT      O18937   6.547   5.263   6.541
 6232WAT     H118938   6.560   5.166   6.559
 6232WAT     H218939   6.621   5.316   6.583
 6233WAT      O18940   0.835   7.486   4.287
 6233WAT     H118941   0.736   7.490   4.294
 6233WAT     H218942   0.870   7.578   4.269
 6234WAT      O18943   6.717   0.821   2.934
 6234WAT     H118944   6.760   0.820   3.024
 6234WAT     H218945   6.722   0.914   2.896
 6235WAT      O18946   0.905   1.951   0.114
 6235WAT     H118947   0.849   1.873   0.084
 6235WAT     H218948   0.870   1.986   0.200
 6236WAT      O18949   5.088   7.319   7.884
 6236WAT     H118950   5.176   7.273   7.871
 6236WAT     H218951   5.087   7.404   7.830
 6237WAT      O18952   1.189   6.981   7.500
 6237WAT     H118953   1.235   7.067   7.524
 6237WAT     H218954   1.258   6.912   7.478
 6238WAT      O18955   6.980   1.064   7.247
 6238WAT     H118956   7.048   1.130   7.279
 6238WAT     H218957   7.024   0.975   7.233
 6239WAT      O18958   8.231   5.780   6.482
 6239WAT     H118959   8.230   5.873   6.519
 6239WAT     H218960   8.298   5.726   6.533
 6240WAT      O18961   9.241   3.797   2.759
 6240WAT     H118962   9.191   3.731   2.815
 6240WAT     H218963   9.200   3.801   2.668
 6241WAT      O18964   9.338   7.598   4.143
 6241WAT     H118965   9.307   7.690   4.167
 6241WAT     H218966   9.306   7.575   4.051
 6242WAT      O18967   2.335   9.756   4.815
 6242WAT     H118968   2.320   9.671   4.865
 6242WAT     H218969   2.387   9.819   4.873
 6243WAT      O18970   1.230   6.219   4.927
 6243WAT     H118971   1.145   6.259   4.892
 6243WAT     H218972   1.268   6.278   4.998
 6244WAT      O18973   6.158   2.858   4.319
 6244WAT     H118974   6.128   2.929   4.255
 6244WAT     H218975   6.247   2.884   4.358
 6245WAT      O18976   4.871   1.758   0.919
 6245WAT     H118977   4.834   1.717   0.835
 6245WAT     H218978   4.896   1.685   0.983
 6246WAT      O18979   0.049   4.853   3.607
 6246WAT     H118980   0.127   4.792   3.592
 6246WAT     H218981  -0.004   4.860   3.523
 6247WAT      O18982   9.066   0.788   5.636
 6247WAT     H118983   9.139   0.818   5.697
 6247WAT     H218984   8.978   0.824   5.668
 6248WAT      O18985   4.985   6.940   8.434
 6248WAT     H118986   5.055   6.906   8.371
 6248WAT     H218987   4.934   7.013   8.389
 6249WAT      O18988   2.698   2.048   7.325
 6249WAT     H118989   2.745   2.028   7.239
 6249WAT     H218990   2.672   1.963   7.369
 6250WAT      O18991   2.739   3.515   0.504
 6250WAT     H118992   2.644   3.537   0.484
 6250WAT     H218993   2.794   3.598   0.500
 6251WAT      O18994   0.017   4.157   2.577
 6251WAT     H118995   0.055   4.217   2.647
 6251WAT     H218996   0.043   4.191   2.486
 6252WAT      O18997   1.111   1.205   1.573
 6252WAT     H118998   1.177   1.195   1.648
 6252WAT     H218999   1.065   1.118   1.557
 6253WAT      O19000   0.724   6.351   9.210
 6253WAT     H119001   0.628   6.361   9.183
 6253WAT     H219002   0.782   6.396   9.143
 6254WAT      O19003   4.485   7.646   0.815
 6254WAT     H119004   4.458   7.704   0.738
 6254WAT     H219005   4.421   7.658   0.890
 6255WAT      O19006   9.578   5.104   5.189
 6255WAT     H119007   9.481   5.131   5.185
 6255WAT     H219008   9.603   5.058   5.104
 6256WAT      O19009   9.285   1.797   9.700
 6256WAT     H119010   9.374   1.750   9.699
 6256WAT     H219011   9.265   1.834   9.609
 6257WAT      O19012   4.444   6.175   0.267
 6257WAT     H119013   4.399   6.264   0.262
 6257WAT     H219014   4.532   6.185   0.313
 6258WAT      O19015   6.851   1.570   1.107
 6258WAT     H119016   6.908   1.644   1.071
 6258WAT     H219017   6.755   1.585   1.080
 6259WAT      O19018   9.766   1.603   2.797
 6259WAT     H119019   9.829   1.655   2.740
 6259WAT     H219020   9.741   1.658   2.877
 6260WAT      O19021   7.102   8.074   9.695
 6260WAT     H119022   7.159   8.001   9.731
 6260WAT     H219023   7.154   8.159   9.691
 6261WAT      O19024   5.440   7.957   0.729
 6261WAT     H119025   5.347   7.929   0.752
 6261WAT     H219026   5.488   7.984   0.813
 6262WAT      O19027   3.735   2.725   9.136
 6262WAT     H119028   3.715   2.629   9.115
 6262WAT     H219029   3.834   2.741   9.126
 6263WAT      O19030   0.621   0.681   3.612
 6263WAT     H119031   0.540   0.739   3.605
 6263WAT     H219032   0.613   0.621   3.691
 6264WAT      O19033   5.714   0.942   1.660
 6264WAT     H119034   5.755   0.956   1.570
 6264WAT     H219035   5.648   1.014   1.679
 6265WAT      O19036   3.447   1.844   5.567
 6265WAT     H119037   3.347   1.845   5.577
 6265WAT     H219038   3.475   1.757   5.528
 6266WAT      O19039   4.628   7.438   4.942
 6266WAT     H119040   4.534   7.467   4.924
 6266WAT     H219041   4.653   7.463   5.036
 6267WAT      O19042   7.374   6.775   5.524
 6267WAT     H119043   7.312   6.792   5.601
 6267WAT     H219044   7.345   6.693   5.474
 6268WAT      O19045   6.555   0.221   0.467
 6268WAT     H119046   6.626   0.280   0.505
 6268WAT     H219047   6.597   0.145   0.417
 6269WAT      O19048   0.476   8.148   4.869
 6269WAT     H119049   0.407   8.109   4.931
 6269WAT     H219050   0.511   8.077   4.808
 6270WAT      O19051   2.073   7.952   1.551
 6270WAT     H119052   2.135   7.912   1.483
 6270WAT     H219053   1.985   7.970   1.508
 6271WAT      O19054   5.106   3.559   1.284
 6271WAT     H119055   5.130   3.462   1.288
 6271WAT     H219056   5.176   3.608   1.232
 6272WAT      O19057   7.137   7.031   2.049
 6272WAT     H119058   7.177   6.954   2.098
 6272WAT     H219059   7.203   7.068   1.985
 6273WAT      O19060   5.810   5.670   7.236
 6273WAT     H119061   5.843   5.659   7.330
 6273WAT     H219062   5.887   5.672   7.173
 6274WAT      O19063   3.288   9.293   8.573
 6274WAT     H119064   3.364   9.288   8.509
 6274WAT     H219065   3.203   9.309   8.522
 6275WAT      O19066   8.256   9.813   4.021
 6275WAT     H119067   8.328   9.879   3.999
 6275WAT     H219068   8.262   9.734   3.960
 6276WAT      O19069   3.522   7.415   0.589
 6276WAT     H119070   3.599   7.474   0.614
 6276WAT     H219071   3.454   7.416   0.663
 6277WAT      O19072   6.418   5.176   2.523
 6277WAT     H119073   6.360   5.251   2.556
 6277WAT     H219074   6.370   5.089   2.535
 6278WAT      O19075   1.254   8.260   3.490
 6278WAT     H119076   1.338   8.233   3.442
 6278WAT     H219077   1.176   8.248   3.429
 6279WAT      O19078   3.661   5.193   9.006
 6279WAT     H119079   3.720   5.114   9.026
 6279WAT     H219080   3.565   5.165   9.010
 6280WAT      O19081   3.898   1.932   9.619
 6280WAT     H119082   3.982   1.877   9.625
 6280WAT     H219083   3.845   1.903   9.540
 6281WAT      O19084   7.349   0.581   3.139
 6281WAT     H119085   7.312   0.508   3.080
 6281WAT     H219086   7.329   0.559   3.235
 6282WAT      O19087   4.225   6.859   2.953
 6282WAT     H119088   4.201   6.764   2.932
 6282WAT     H219089   4.321   6.864   2.978
 6283WAT      O19090   2.644   1.249   2.649
 6283WAT     H119091   2.586   1.316   2.603
 6283WAT     H219092   2.607   1.229   2.739
 6284WAT      O19093   6.691   0.274   5.859
 6284WAT     H119094   6.747   0.208   5.909
 6284WAT     H219095   6.732   0.365   5.866
 6285WAT      O19096   1.635   1.124   4.521
 6285WAT     H119097   1.631   1.150   4.618
 6285WAT     H219098   1.686   1.192   4.470
 6286WAT      O19099   8.264   7.416   0.081
 6286WAT     H119100   8.212   7.339   0.044
 6286WAT     H219101   8.362   7.393   0.082
 6287WAT      O19102   3.689   4.394   1.815
 6287WAT     H119103   3.731   4.304   1.811
 6287WAT     H219104   3.750   4.458   1.862
 6288WAT      O19105   6.559   7.175   2.421
 6288WAT     H119106   6.593   7.169   2.327
 6288WAT     H219107   6.462   7.153   2.422
 6289WAT      O19108   1.685   9.567   4.648
 6289WAT     H119109   1.617   9.509   4.694
 6289WAT     H219110   1.776   9.533   4.668
 6290WAT      O19111   5.558   9.822   4.555
 6290WAT     H119112   5.482   9.847   4.496
 6290WAT     H219113   5.573   9.723   4.550
 6291WAT      O19114   0.682   3.661   5.504
 6291WAT     H119115   0.705   3.635   5.598
 6291WAT     H219116   0.685   3.761   5.495
 6292WAT      O19117   3.792   6.036   8.064
 6292WAT     H119118   3.741   5.959   8.024
 6292WAT     H219119   3.864   6.001   8.124
 6293WAT      O19120   9.635   8.736   7.905
 6293WAT     H119121   9.590   8.762   7.990
 6293WAT     H219122   9.614   8.803   7.834
 6294WAT      O19123   7.759   2.285   9.800
 6294WAT     H119124   7.772   2.237   9.713
 6294WAT     H219125   7.799   2.230   9.874
 6295WAT      O19126   6.982   6.537   9.468
 6295WAT     H119127   7.041   6.515   9.547
 6295WAT     H219128   6.887   6.544   9.499
 6296WAT      O19129   4.276   6.974   5.858
 6296WAT     H119130   4.205   7.026   5.811
 6296WAT     H219131   4.242   6.883   5.880
 6297WAT      O19132   6.692   7.482   5.611
 6297WAT     H119133   6.715   7.432   5.528
 6297WAT     H219134   6.639   7.424   5.672
 6298WAT      O19135   6.935   5.933   1.685
 6298WAT     H119136   6.948   6.014   1.628
 6298WAT     H219137   6.848   5.941   1.734
 6299WAT      O19138   5.769   0.357   3.520
 6299WAT     H119139   5.854   0.380   3.567
 6299WAT     H219140   5.694   0.410   3.559
 6300WAT      O19141   5.223   7.451   1.371
 6300WAT     H119142   5.138   7.441   1.421
 6300WAT     H219143   5.299   7.463   1.436
 6301WAT      O19144   0.035   4.990   6.374
 6301WAT     H119145  -0.051   4.941   6.364
 6301WAT     H219146   0.108   4.926   6.397
 6302WAT      O19147   9.526   6.382   5.700
 6302WAT     H119148   9.532   6.324   5.619
 6302WAT     H219149   9.592   6.457   5.693
 6303WAT      O19150   6.147   3.532   3.046
 6303WAT     H119151   6.134   3.460   2.978
 6303WAT     H219152   6.244   3.555   3.053
 6304WAT      O19153   0.337   4.559   8.345
 6304WAT     H119154   0.384   4.557   8.433
 6304WAT     H219155   0.281   4.477   8.335
 6305WAT      O19156   6.785   9.783   3.363
 6305WAT     H119157   6.703   9.732   3.389
 6305WAT     H219158   6.764   9.841   3.284
 6306WAT      O19159   3.611   7.790   3.100
 6306WAT     H119160   3.612   7.830   3.191
 6306WAT     H219161   3.553   7.846   3.040
 6307WAT      O19162   7.867   9.124   7.593
 6307WAT     H119163   7.825   9.097   7.506
 6307WAT     H219164   7.798   9.171   7.650
 6308WAT      O19165   1.849   7.929   5.665
 6308WAT     H119166   1.946   7.922   5.643
 6308WAT     H219167   1.839   7.953   5.761
 6309WAT      O19168   1.290   3.123   3.906
 6309WAT     H119169   1.303   3.051   3.974
 6309WAT     H219170   1.376   3.173   3.893
 6310WAT      O19171   0.862   1.341   8.189
 6310WAT     H119172   0.825   1.434   8.179
 6310WAT     H219173   0.884   1.304   8.099
 6311WAT      O19174   6.051   9.833   0.349
 6311WAT     H119175   6.067   9.784   0.435
 6311WAT     H219176   5.990   9.910   0.365
 6312WAT      O19177   5.586   4.818   5.864
 6312WAT     H119178   5.570   4.801   5.767
 6312WAT     H219179   5.587   4.731   5.913
 6313WAT      O19180   2.130   6.472   7.865
 6313WAT     H119181   2.059   6.408   7.891
 6313WAT     H219182   2.113   6.506   7.773
 6314WAT      O19183   3.062   5.213   0.334
 6314WAT     H119184   3.090   5.124   0.299
 6314WAT     H219185   3.142   5.264   0.364
 6315WAT      O19186   0.114   4.208   9.237
 6315WAT     H119187   0.183   4.142   9.269
 6315WAT     H219188   0.153   4.300   9.236
 6316WAT      O19189   4.307   1.712   8.988
 6316WAT     H119190   4.247   1.686   8.913
 6316WAT     H219191   4.390   1.754   8.952
 6317WAT      O19192   4.165   6.270   2.621
 6317WAT     H119193   4.156   6.171   2.632
 6317WAT     H219194   4.083   6.314   2.656
 6318WAT      O19195   8.628   1.934   3.175
 6318WAT     H119196   8.716   1.964   3.137
 6318WAT     H219197   8.563   2.010   3.173
 6319WAT      O19198   1.923   2.165   4.489
 6319WAT     H119199   1.853   2.161   4.418
 6319WAT     H219200   1.976   2.080   4.489
 6320WAT      O19201   4.007   1.042   6.217
 6320WAT     H119202   4.069   1.014   6.144
 6320WAT     H219203   4.009   0.975   6.291
 6321WAT      O19204   8.422   8.821   6.249
 6321WAT     H119205   8.499   8.877   6.218
 6321WAT     H219206   8.408   8.745   6.185
 6322WAT      O19207   0.537   1.869   1.799
 6322WAT     H119208   0.606   1.855   1.728
 6322WAT     H219209   0.543   1.795   1.866
 6323WAT      O19210   6.774   9.695   2.905
 6323WAT     H119211   6.833   9.651   2.837
 6323WAT     H219212   6.730   9.625   2.962
 6324WAT      O19213   6.277   2.233   0.792
 6324WAT     H119214   6.363   2.184   0.795
 6324WAT     H219215   6.290   2.321   0.746
 6325WAT      O19216   2.025   8.587   6.386
 6325WAT     H119217   2.101   8.563   6.447
 6325WAT     H219218   1.996   8.681   6.403
 6326WAT      O19219   3.715   7.171   6.277
 6326WAT     H119220   3.717   7.092   6.215
 6326WAT     H219221   3.737   7.141   6.370
 6327WAT      O19222   6.839   4.953   8.817
 6327WAT     H119223   6.875   4.864   8.787
 6327WAT     H219224   6.739   4.951   8.814
 6328WAT      O19225   7.042   0.343   6.491
 6328WAT     H119226   6.942   0.345   6.501
 6328WAT     H219227   7.071   0.420   6.435
 6329WAT      O19228   3.236   9.509   7.696
 6329WAT     H119229   3.254   9.606   7.709
 6329WAT     H219230   3.138   9.494   7.682
 6330WAT      O19231   3.026   9.457   9.228
 6330WAT     H119232   3.047   9.542   9.277
 6330WAT     H219233   2.995   9.479   9.135
 6331WAT      O19234   5.787   7.130   3.775
 6331WAT     H119235   5.707   7.191   3.779
 6331WAT     H219236   5.807   7.109   3.679
 6332WAT      O19237   8.298   6.995   2.018
 6332WAT     H119238   8.246   6.995   1.933
 6332WAT     H219239   8.240   7.027   2.093
 6333WAT      O19240   9.034   7.819   2.996
 6333WAT     H119241   9.081   7.880   2.932
 6333WAT     H219242   9.100   7.758   3.038
 6334WAT      O19243   0.419   4.985   4.006
 6334WAT     H119244   0.331   5.017   4.042
 6334WAT     H219245   0.489   4.991   4.077
 6335WAT      O19246   5.990   1.771   3.810
 6335WAT     H119247   6.020   1.866   3.815
 6335WAT     H219248   6.068   1.711   3.795
 6336WAT      O19249   1.714   1.277   4.777
 6336WAT     H119250   1.631   1.331   4.794
 6336WAT     H219251   1.780   1.332   4.726
 6337WAT      O19252   3.700   1.859   1.779
 6337WAT     H119253   3.603   1.883   1.770
 6337WAT     H219254   3.711   1.791   1.851
 6338WAT      O19255   7.389   9.055   7.881
 6338WAT     H119256   7.474   9.103   7.861
 6338WAT     H219257   7.405   8.985   7.951
 6339WAT      O19258   8.045   8.073   4.440
 6339WAT     H119259   7.969   8.028   4.487
 6339WAT     H219260   8.081   8.013   4.369
 6340WAT      O19261   6.386   6.934   6.171
 6340WAT     H119262   6.478   6.898   6.156
 6340WAT     H219263   6.327   6.905   6.095
 6341WAT      O19264   1.175   4.039   6.678
 6341WAT     H119265   1.214   4.097   6.750
 6341WAT     H219266   1.112   4.093   6.622
 6342WAT      O19267   1.352   3.539   6.670
 6342WAT     H119268   1.312   3.593   6.744
 6342WAT     H219269   1.339   3.587   6.583
 6343WAT      O19270   6.173   6.663   5.664
 6343WAT     H119271   6.269   6.661   5.695
 6343WAT     H219272   6.125   6.582   5.699
 6344WAT      O19273   9.695   6.198   4.170
 6344WAT     H119274   9.720   6.294   4.154
 6344WAT     H219275   9.605   6.194   4.213
 6345WAT      O19276   5.557   9.394   0.324
 6345WAT     H119277   5.582   9.410   0.419
 6345WAT     H219278   5.561   9.296   0.304
 6346WAT      O19279   7.169   4.373   5.484
 6346WAT     H119280   7.257   4.408   5.450
 6346WAT     H219281   7.153   4.411   5.576
 6347WAT      O19282   7.750   0.359   0.883
 6347WAT     H119283   7.834   0.382   0.835
 6347WAT     H219284   7.746   0.260   0.896
 6348WAT      O19285   3.828   6.800   5.904
 6348WAT     H119286   3.840   6.844   5.993
 6348WAT     H219287   3.731   6.800   5.879
 6349WAT      O19288   5.525   9.042   6.802
 6349WAT     H119289   5.545   9.116   6.867
 6349WAT     H219290   5.535   8.954   6.847
 6350WAT      O19291   1.434   6.265   1.152
 6350WAT     H119292   1.477   6.191   1.204
 6350WAT     H219293   1.479   6.351   1.173
 6351WAT      O19294   9.031   8.570   3.457
 6351WAT     H119295   9.024   8.654   3.403
 6351WAT     H219296   9.113   8.573   3.514
 6352WAT      O19297   2.380   2.658   8.443
 6352WAT     H119298   2.458   2.717   8.463
 6352WAT     H219299   2.339   2.626   8.528
 6353WAT      O19300   8.874   4.203   4.418
 6353WAT     H119301   8.880   4.143   4.338
 6353WAT     H219302   8.949   4.268   4.416
 6354WAT      O19303   8.991   3.233   9.614
 6354WAT     H119304   9.000   3.313   9.554
 6354WAT     H219305   8.896   3.201   9.612
 6355WAT      O19306   9.623   2.313   3.363
 6355WAT     H119307   9.666   2.403   3.355
 6355WAT     H219308   9.682   2.252   3.415
 6356WAT      O19309   5.339   7.739   5.729
 6356WAT     H119310   5.280   7.819   5.718
 6356WAT     H219311   5.433   7.763   5.705
 6357WAT      O19312   7.455   0.261   8.069
 6357WAT     H119313   7.357   0.272   8.049
 6357WAT     H219314   7.469   0.175   8.118
 6358WAT      O19315   2.541   3.821   7.633
 6358WAT     H119316   2.527   3.745   7.695
 6358WAT     H219317   2.456   3.842   7.585
 6359WAT      O19318   3.819   5.084   8.205
 6359WAT     H119319   3.857   5.000   8.167
 6359WAT     H219320   3.879   5.161   8.183
 6360WAT      O19321   6.101   5.948   7.836
 6360WAT     H119322   6.185   5.978   7.791
 6360WAT     H219323   6.038   5.913   7.767
 6361WAT      O19324   0.610   8.993   7.695
 6361WAT     H119325   0.531   9.038   7.654
 6361WAT     H219326   0.686   9.059   7.701
 6362WAT      O19327   9.287   0.074   7.515
 6362WAT     H119328   9.243   0.018   7.586
 6362WAT     H219329   9.239   0.161   7.507
 6363WAT      O19330   3.285   7.903   6.710
 6363WAT     H119331   3.317   7.865   6.797
 6363WAT     H219332   3.322   7.851   6.634
 6364WAT      O19333   9.483   0.928   2.051
 6364WAT     H119334   9.488   0.828   2.052
 6364WAT     H219335   9.404   0.958   2.104
 6365WAT      O19336   4.179   7.794   6.905
 6365WAT     H119337   4.169   7.782   7.004
 6365WAT     H219338   4.095   7.764   6.860
 6366WAT      O19339   4.700   5.509   3.348
 6366WAT     H119340   4.776   5.568   3.320
 6366WAT     H219341   4.615   5.541   3.307
 6367WAT      O19342   3.240   9.774   2.813
 6367WAT     H119343   3.316   9.809   2.868
 6367WAT     H219344   3.271   9.757   2.720
 6368WAT      O19345   3.583   2.448   4.813
 6368WAT     H119346   3.558   2.524   4.753
 6368WAT     H219347   3.503   2.389   4.827
 6369WAT      O19348   6.204   2.740   5.725
 6369WAT     H119349   6.245   2.686   5.652
 6369WAT     H219350   6.127   2.690   5.765
 6370WAT      O19351   4.377   9.065   3.813
 6370WAT     H119352   4.294   9.064   3.869
 6370WAT     H219353   4.352   9.066   3.716
 6371WAT      O19354   7.579   8.646   9.090
 6371WAT     H119355   7.586   8.729   9.145
 6371WAT     H219356   7.486   8.609   9.096
 6372WAT      O19357   2.011   3.562   4.731
 6372WAT     H119358   1.935   3.576   4.668
 6372WAT     H219359   2.087   3.621   4.705
 6373WAT      O19360   9.146   2.468   4.431
 6373WAT     H119361   9.242   2.454   4.457
 6373WAT     H219362   9.140   2.548   4.371
 6374WAT      O19363   5.240   5.784   9.696
 6374WAT     H119364   5.279   5.697   9.724
 6374WAT     H219365   5.267   5.855   9.762
 6375WAT      O19366   1.115   4.543   7.347
 6375WAT     H119367   1.127   4.639   7.322
 6375WAT     H219368   1.149   4.527   7.439
 6376WAT      O19369   6.601   2.464   4.134
 6376WAT     H119370   6.505   2.437   4.135
 6376WAT     H219371   6.658   2.386   4.159
 6377WAT      O19372   3.500   6.124   3.269
 6377WAT     H119373   3.404   6.139   3.293
 6377WAT     H219374   3.558   6.149   3.347
 6378WAT      O19375   2.266   9.055   9.200
 6378WAT     H119376   2.335   9.100   9.258
 6378WAT     H219377   2.207   8.998   9.257
 6379WAT      O19378   7.036   8.358   2.920
 6379WAT     H119379   7.124   8.403   2.935
 6379WAT     H219380   7.045   8.288   2.849
 6380WAT      O19381   4.880   4.894   9.093
 6380WAT     H119382   4.965   4.882   9.144
 6380WAT     H219383   4.900   4.931   9.002
 6381WAT      O19384   1.706   7.756   8.750
 6381WAT     H119385   1.678   7.783   8.658
 6381WAT     H219386   1.772   7.681   8.744
 6382WAT      O19387   8.771   1.944   1.971
 6382WAT     H119388   8.726   2.017   1.919
 6382WAT     H219389   8.843   1.984   2.028
 6383WAT      O19390   1.364   3.184   5.931
 6383WAT     H119391   1.389   3.178   6.027
 6383WAT     H219392   1.374   3.278   5.899
 6384WAT      O19393   2.032   1.328   7.625
 6384WAT     H119394   1.990   1.240   7.601
 6384WAT     H219395   1.987   1.401   7.575
 6385WAT      O19396   7.071   4.470   4.845
 6385WAT     H119397   7.130   4.544   4.813
 6385WAT     H219398   7.020   4.432   4.767
 6386WAT      O19399   7.388   4.051   2.615
 6386WAT     H119400   7.420   3.998   2.693
 6386WAT     H219401   7.326   3.994   2.560
 6387WAT      O19402   6.307   3.473   2.215
 6387WAT     H119403   6.379   3.542   2.214
 6387WAT     H219404   6.310   3.423   2.302
 6388WAT      O19405   4.053   2.679   1.176
 6388WAT     H119406   4.025   2.622   1.098
 6388WAT     H219407   4.122   2.631   1.229
 6389WAT      O19408   7.320   5.363   0.032
 6389WAT     H119409   7.330   5.395   0.126
 6389WAT     H219410   7.257   5.423  -0.017
 6390WAT      O19411   2.007   7.239   8.899
 6390WAT     H119412   2.029   7.227   8.802
 6390WAT     H219413   1.977   7.151   8.936
 6391WAT      O19414   3.485   9.565   7.262
 6391WAT     H119415   3.458   9.493   7.197
 6391WAT     H219416   3.407   9.588   7.320
 6392WAT      O19417   3.523   9.234   1.874
 6392WAT     H119418   3.495   9.203   1.965
 6392WAT     H219419   3.522   9.334   1.871
 6393WAT      O19420   8.415   7.112   1.325
 6393WAT     H119421   8.330   7.060   1.337
 6393WAT     H219422   8.489   7.068   1.376
 6394WAT      O19423   0.039   6.476   9.267
 6394WAT     H119424   0.117   6.534   9.292
 6394WAT     H219425   0.070   6.382   9.257
 6395WAT      O19426   7.219   3.919   6.685
 6395WAT     H119427   7.180   4.011   6.693
 6395WAT     H219428   7.200   3.867   6.768
 6396WAT      O19429   1.918   3.632   0.583
 6396WAT     H119430   1.959   3.546   0.614
 6396WAT     H219431   1.821   3.617   0.563
 6397WAT      O19432   8.993   4.540   0.444
 6397WAT     H119433   9.064   4.610   0.437
 6397WAT     H219434   8.917   4.574   0.500
 6398WAT      O19435   6.677   5.726   3.535
 6398WAT     H119436   6.643   5.703   3.444
 6398WAT     H219437   6.638   5.662   3.602
 6399WAT      O19438   7.063   9.827   6.122
 6399WAT     H119439   7.078   9.733   6.092
 6399WAT     H219440   7.143   9.882   6.102
 6400WAT      O19441   9.292   5.235   1.987
 6400WAT     H119442   9.326   5.274   1.901
 6400WAT     H219443   9.348   5.156   2.012
 6401WAT      O19444   9.147   2.173   9.654
 6401WAT     H119445   9.230   2.199   9.703
 6401WAT     H219446   9.139   2.226   9.570
 6402WAT      O19447   8.420   6.090   6.375
 6402WAT     H119448   8.509   6.130   6.393
 6402WAT     H219449   8.386   6.121   6.286
 6403WAT      O19450   4.207   4.190   8.863
 6403WAT     H119451   4.280   4.238   8.912
 6403WAT     H219452   4.232   4.094   8.853
 6404WAT      O19453   3.227   7.953   2.775
 6404WAT     H119454   3.182   7.928   2.690
 6404WAT     H219455   3.223   8.052   2.787
 6405WAT      O19456   1.918   7.858   4.759
 6405WAT     H119457   1.825   7.850   4.794
 6405WAT     H219458   1.925   7.811   4.671
 6406WAT      O19459   7.745   5.538   4.721
 6406WAT     H119460   7.674   5.510   4.657
 6406WAT     H219461   7.747   5.638   4.728
 6407WAT      O19462   3.871   7.149   3.794
 6407WAT     H119463   3.912   7.103   3.715
 6407WAT     H219464   3.854   7.245   3.772
 6408WAT      O19465   5.950   6.561   9.677
 6408WAT     H119466   5.988   6.572   9.585
 6408WAT     H219467   5.954   6.465   9.704
 6409WAT      O19468   3.347   9.120   5.751
 6409WAT     H119469   3.309   9.027   5.750
 6409WAT     H219470   3.429   9.123   5.694
 6410WAT      O19471   9.849   3.447   9.271
 6410WAT     H119472   9.834   3.362   9.323
 6410WAT     H219473   9.845   3.525   9.334
 6411WAT      O19474   7.616   8.555   6.102
 6411WAT     H119475   7.712   8.584   6.102
 6411WAT     H219476   7.564   8.614   6.041
 6412WAT      O19477   8.612   6.224   9.318
 6412WAT     H119478   8.590   6.131   9.346
 6412WAT     H219479   8.612   6.230   9.218
 6413WAT      O19480   3.933   4.312   6.496
 6413WAT     H119481   3.999   4.335   6.568
 6413WAT     H219482   3.967   4.344   6.408
 6414WAT      O19483   5.155   3.395   5.689
 6414WAT     H119484   5.069   3.368   5.731
 6414WAT     H219485   5.230   3.341   5.728
 6415WAT      O19486   3.497   8.644   0.511
 6415WAT     H119487   3.495   8.723   0.450
 6415WAT     H219488   3.517   8.674   0.604
 6416WAT      O19489   4.432   3.008   1.925
 6416WAT     H119490   4.529   3.032   1.933
 6416WAT     H219491   4.392   3.059   1.849
 6417WAT      O19492   9.645   3.212   9.730
 6417WAT     H119493   9.738   3.210   9.695
 6417WAT     H219494   9.596   3.290   9.690
 6418WAT      O19495   8.414   3.340   4.960
 6418WAT     H119496   8.353   3.370   4.886
 6418WAT     H219497   8.386   3.248   4.990
 6419WAT      O19498   1.960   3.880   0.710
 6419WAT     H119499   2.054   3.872   0.743
 6419WAT     H219500   1.932   3.793   0.669
 6420WAT      O19501   8.161   1.041   6.864
 6420WAT     H119502   8.148   1.059   6.962
 6420WAT     H219503   8.157   0.942   6.848
 6421WAT      O19504   0.938   4.923   2.323
 6421WAT     H119505   1.004   4.877   2.382
 6421WAT     H219506   0.934   4.877   2.234
 6422WAT      O19507   8.545   0.595   6.471
 6422WAT     H119508   8.562   0.667   6.403
 6422WAT     H219509   8.620   0.594   6.538
 6423WAT      O19510   8.280   3.693   4.349
 6423WAT     H119511   8.378   3.674   4.343
 6423WAT     H219512   8.262   3.744   4.434
 6424WAT      O19513   5.952   3.711   1.646
 6424WAT     H119514   5.951   3.612   1.662
 6424WAT     H219515   5.978   3.729   1.551
 6425WAT      O19516   9.051   3.879   6.596
 6425WAT     H119517   8.975   3.878   6.661
 6425WAT     H219518   9.029   3.821   6.518
 6426WAT      O19519   8.038   3.625   2.037
 6426WAT     H119520   7.973   3.688   2.081
 6426WAT     H219521   8.001   3.532   2.039
 6427WAT      O19522   3.415   7.572   0.368
 6427WAT     H119523   3.440   7.540   0.459
 6427WAT     H219524   3.395   7.670   0.371
 6428WAT      O19525   6.156   7.197   9.138
 6428WAT     H119526   6.185   7.291   9.156
 6428WAT     H219527   6.089   7.198   9.063
 6429WAT      O19528   5.280   4.861   3.523
 6429WAT     H119529   5.270   4.892   3.618
 6429WAT     H219530   5.223   4.780   3.508
 6430WAT      O19531   5.212   2.312   4.136
 6430WAT     H119532   5.248   2.363   4.058
 6430WAT     H219533   5.285   2.296   4.202
 6431WAT      O19534   6.630   1.391   8.003
 6431WAT     H119535   6.562   1.409   7.933
 6431WAT     H219536   6.617   1.454   8.080
 6432WAT      O19537   2.520   2.589   2.677
 6432WAT     H119538   2.533   2.504   2.728
 6432WAT     H219539   2.428   2.591   2.639
 6433WAT      O19540   3.555   0.582   7.925
 6433WAT     H119541   3.591   0.673   7.905
 6433WAT     H219542   3.594   0.548   8.010
 6434WAT      O19543   7.446   3.041   4.570
 6434WAT     H119544   7.437   3.032   4.669
 6434WAT     H219545   7.497   2.963   4.534
 6435WAT      O19546   3.700   1.833   0.034
 6435WAT     H119547   3.713   1.920  -0.012
 6435WAT     H219548   3.729   1.758  -0.026
 6436WAT      O19549   4.394   2.495   3.888
 6436WAT     H119550   4.414   2.401   3.860
 6436WAT     H219551   4.299   2.500   3.919
 6437WAT      O19552   6.354   1.830   4.240
 6437WAT     H119553   6.389   1.913   4.283
 6437WAT     H219554   6.292   1.782   4.303
 6438WAT      O19555   7.115   7.349   5.286
 6438WAT     H119556   7.096   7.320   5.379
 6438WAT     H219557   7.208   7.322   5.261
 6439WAT      O19558   8.930   9.439   4.268
 6439WAT     H119559   8.947   9.513   4.204
 6439WAT     H219560   8.878   9.367   4.223
 6440WAT      O19561   9.457   6.054   6.744
 6440WAT     H119562   9.385   6.097   6.690
 6440WAT     H219563   9.543   6.104   6.731
 6441WAT      O19564   7.754   1.379   9.611
 6441WAT     H119565   7.679   1.379   9.545
 6441WAT     H219566   7.822   1.447   9.584
 6442WAT      O19567   6.146   3.118   4.467
 6442WAT     H119568   6.145   3.020   4.488
 6442WAT     H219569   6.057   3.158   4.489
 6443WAT      O19570   5.769   3.646   2.643
 6443WAT     H119571   5.765   3.708   2.565
 6443WAT     H219572   5.825   3.686   2.716
 6444WAT      O19573   2.284   6.699   4.886
 6444WAT     H119574   2.325   6.613   4.913
 6444WAT     H219575   2.241   6.743   4.965
 6445WAT      O19576   2.572   0.592   5.520
 6445WAT     H119577   2.610   0.573   5.610
 6445WAT     H219578   2.625   0.544   5.450
 6446WAT      O19579   6.518   2.727   0.979
 6446WAT     H119580   6.465   2.798   0.933
 6446WAT     H219581   6.463   2.689   1.054
 6447WAT      O19582   2.060  -0.000   7.460
 6447WAT     H119583   2.038   0.097   7.469
 6447WAT     H219584   2.058  -0.043   7.551
 6448WAT      O19585   9.832   5.376   8.025
 6448WAT     H119586   9.851   5.280   8.045
 6448WAT     H219587   9.752   5.405   8.078
 6449WAT      O19588   0.198   4.838   2.908
 6449WAT     H119589   0.117   4.872   2.859
 6449WAT     H219590   0.233   4.757   2.862
 6450WAT      O19591   6.085   3.519   8.911
 6450WAT     H119592   6.026   3.577   8.967
 6450WAT     H219593   6.034   3.490   8.830
 6451WAT      O19594   4.668   3.450   5.200
 6451WAT     H119595   4.707   3.469   5.110
 6451WAT     H219596   4.613   3.366   5.196
 6452WAT      O19597   5.696   5.681   9.561
 6452WAT     H119598   5.761   5.717   9.494
 6452WAT     H219599   5.608   5.664   9.516
 6453WAT      O19600   8.969   6.727   1.616
 6453WAT     H119601   8.962   6.768   1.525
 6453WAT     H219602   9.021   6.642   1.611
 6454WAT      O19603   7.888   3.338   8.983
 6454WAT     H119604   7.926   3.245   8.973
 6454WAT     H219605   7.851   3.368   8.896
 6455WAT      O19606   1.449   2.510   5.086
 6455WAT     H119607   1.526   2.563   5.051
 6455WAT     H219608   1.467   2.483   5.181
 6456WAT      O19609   5.083   6.886   9.202
 6456WAT     H119610   5.181   6.908   9.204
 6456WAT     H219611   5.032   6.967   9.173
 6457WAT      O19612   2.177   7.419   9.266
 6457WAT     H119613   2.203   7.455   9.356
 6457WAT     H219614   2.099   7.471   9.230
 6458WAT      O19615   9.108   6.267   4.746
 6458WAT     H119616   9.123   6.246   4.650
 6458WAT     H219617   9.144   6.193   4.803
 6459WAT      O19618   7.566   8.140   0.092
 6459WAT     H119619   7.596   8.087   0.172
 6459WAT     H219620   7.488   8.197   0.118
 6460WAT      O19621   7.096   3.602   1.896
 6460WAT     H119622   7.039   3.531   1.936
 6460WAT     H219623   7.191   3.588   1.923
 6461WAT      O19624   7.608   1.340   8.672
 6461WAT     H119625   7.508   1.339   8.677
 6461WAT     H219626   7.638   1.307   8.583
 6462WAT      O19627   2.362   5.214   6.381
 6462WAT     H119628   2.384   5.216   6.283
 6462WAT     H219629   2.425   5.274   6.430
 6463WAT      O19630   7.231   3.938   5.662
 6463WAT     H119631   7.270   3.853   5.697
 6463WAT     H219632   7.283   3.968   5.582
 6464WAT      O19633   1.379   3.489   5.871
 6464WAT     H119634   1.443   3.509   5.945
 6464WAT     H219635   1.431   3.463   5.789
 6465WAT      O19636   6.974   5.361   1.611
 6465WAT     H119637   7.043   5.348   1.683
 6465WAT     H219638   6.936   5.272   1.585
 6466WAT      O19639   2.141   2.610   6.082
 6466WAT     H119640   2.210   2.615   6.010
 6466WAT     H219641   2.054   2.577   6.043
 6467WAT      O19642   8.711   4.687   3.598
 6467WAT     H119643   8.634   4.631   3.629
 6467WAT     H219644   8.692   4.783   3.617
 6468WAT      O19645   9.704   7.107   9.718
 6468WAT     H119646   9.716   7.196   9.674
 6468WAT     H219647   9.714   7.117   9.817
 6469WAT      O19648   7.294   5.314   2.850
 6469WAT     H119649   7.208   5.366   2.860
 6469WAT     H219650   7.329   5.292   2.941
 6470WAT      O19651   4.852   4.309   5.733
 6470WAT     H119652   4.851   4.380   5.663
 6470WAT     H219653   4.885   4.223   5.693
 6471WAT      O19654   2.549   6.283   7.330
 6471WAT     H119655   2.626   6.222   7.308
 6471WAT     H219656   2.575   6.377   7.309
 6472WAT      O19657   9.886   7.386   3.736
 6472WAT     H119658   9.806   7.441   3.712
 6472WAT     H219659   9.948   7.381   3.658
 6473WAT      O19660   3.090   7.546   4.175
 6473WAT     H119661   3.106   7.609   4.098
 6473WAT     H219662   2.993   7.519   4.175
 6474WAT      O19663   4.668   6.130   7.500
 6474WAT     H119664   4.664   6.172   7.591
 6474WAT     H219665   4.688   6.033   7.510
 6475WAT      O19666   2.704   2.599   3.235
 6475WAT     H119667   2.690   2.622   3.332
 6475WAT     H219668   2.694   2.681   3.179
 6476WAT      O19669   9.703   9.698   0.779
 6476WAT     H119670   9.615   9.657   0.758
 6476WAT     H219671   9.756   9.708   0.694
 6477WAT      O19672   9.107   0.876   9.005
 6477WAT     H119673   9.029   0.860   9.065
 6477WAT     H219674   9.156   0.958   9.035
 6478WAT      O19675   7.423   2.948   9.342
 6478WAT     H119676   7.430   2.848   9.347
 6478WAT     H219677   7.510   2.989   9.366
 6479WAT      O19678   9.540   2.976   5.153
 6479WAT     H119679   9.476   3.052   5.144
 6479WAT     H219680   9.516   2.922   5.233
 6480WAT      O19681   0.930   3.791   6.610
 6480WAT     H119682   0.993   3.787   6.532
 6480WAT     H219683   0.952   3.872   6.665
 6481WAT      O19684   6.678   3.374   2.425
 6481WAT     H119685   6.670   3.469   2.393
 6481WAT     H219686   6.592   3.326   2.406
 6482WAT      O19687   0.494   0.419   7.163
 6482WAT     H119688   0.450   0.334   7.193
 6482WAT     H219689   0.457   0.496   7.214
 6483WAT      O19690   6.105   8.895   7.758
 6483WAT     H119691   6.044   8.816   7.754
 6483WAT     H219692   6.052   8.979   7.746
 6484WAT      O19693   0.852   5.291   1.771
 6484WAT     H119694   0.860   5.389   1.791
 6484WAT     H219695   0.933   5.243   1.805
 6485WAT      O19696   7.457   5.684   0.787
 6485WAT     H119697   7.538   5.632   0.815
 6485WAT     H219698   7.375   5.637   0.818
 6486WAT      O19699   5.221   1.270   5.834
 6486WAT     H119700   5.140   1.321   5.802
 6486WAT     H219701   5.216   1.176   5.802
 6487WAT      O19702   0.533   9.617   8.776
 6487WAT     H119703   0.532   9.520   8.753
 6487WAT     H219704   0.556   9.627   8.873
 6488WAT      O19705   8.794   6.656   0.474
 6488WAT     H119706   8.750   6.650   0.384
 6488WAT     H219707   8.729   6.627   0.544
 6489WAT      O19708   1.457   9.531   9.494
 6489WAT     H119709   1.553   9.546   9.516
 6489WAT     H219710   1.428   9.595   9.423
 6490WAT      O19711   0.036   3.850   9.336
 6490WAT     H119712   0.073   3.806   9.418
 6490WAT     H219713  -0.056   3.884   9.355
 6491WAT      O19714   2.666   6.291   5.785
 6491WAT     H119715   2.701   6.359   5.721
 6491WAT     H219716   2.681   6.324   5.879
 6492WAT      O19717   4.897   3.714   2.996
 6492WAT     H119718   4.899   3.746   3.090
 6492WAT     H219719   4.803   3.719   2.961
 6493WAT      O19720   9.482   3.915   2.412
 6493WAT     H119721   9.489   3.847   2.485
 6493WAT     H219722   9.538   3.887   2.335
 6494WAT      O19723   0.106   3.044   9.309
 6494WAT     H119724   0.121   2.945   9.306
 6494WAT     H219725   0.150   3.087   9.230
 6495WAT      O19726   7.388   0.141   3.037
 6495WAT     H119727   7.358   0.223   2.990
 6495WAT     H219728   7.319   0.114   3.105
 6496WAT      O19729   4.610   5.279   7.010
 6496WAT     H119730   4.582   5.197   7.060
 6496WAT     H219731   4.707   5.273   6.988
 6497WAT      O19732   7.276   7.800   2.356
 6497WAT     H119733   7.285   7.898   2.373
 6497WAT     H219734   7.343   7.750   2.410
 6498WAT      O19735   5.591   5.615   6.838
 6498WAT     H119736   5.683   5.575   6.848
 6498WAT     H219737   5.567   5.620   6.741
 6499WAT      O19738   2.779   8.833   7.414
 6499WAT     H119739   2.689   8.810   7.377
 6499WAT     H219740   2.840   8.754   7.404
 6500WAT      O19741   3.717   5.340   9.515
 6500WAT     H119742   3.754   5.427   9.546
 6500WAT     H219743   3.675   5.352   9.425
 6501WAT      O19744   8.953   5.358   7.333
 6501WAT     H119745   8.966   5.450   7.368
 6501WAT     H219746   8.870   5.354   7.278
 6502WAT      O19747   3.754   7.141   0.013
 6502WAT     H119748   3.691   7.214   0.039
 6502WAT     H219749   3.759   7.073   0.086
 6503WAT      O19750   2.004   9.717   7.717
 6503WAT     H119751   2.078   9.653   7.738
 6503WAT     H219752   1.974   9.762   7.801
 6504WAT      O19753   6.289   1.521   4.323
 6504WAT     H119754   6.287   1.560   4.415
 6504WAT     H219755   6.329   1.429   4.327
 6505WAT      O19756   9.544   5.784   0.395
 6505WAT     H119757   9.470   5.798   0.329
 6505WAT     H219758   9.521   5.829   0.481
 6506WAT      O19759   6.013   2.133   5.603
 6506WAT     H119760   5.936   2.196   5.591
 6506WAT     H219761   6.033   2.089   5.516
 6507WAT      O19762   9.709   1.724   1.478
 6507WAT     H119763   9.783   1.705   1.542
 6507WAT     H219764   9.705   1.822   1.460
 6508WAT      O19765   0.176   1.963   9.837
 6508WAT     H119766   0.147   2.001   9.749
 6508WAT     H219767   0.177   1.864   9.832
 6509WAT      O19768   0.815   0.274   5.898
 6509WAT     H119769   0.790   0.235   5.809
 6509WAT     H219770   0.914   0.284   5.904
 6510WAT      O19771   0.801   8.220   1.591
 6510WAT     H119772   0.880   8.182   1.639
 6510WAT     H219773   0.816   8.213   1.492
 6511WAT      O19774   8.038   4.043   8.628
 6511WAT     H119775   7.973   4.051   8.553
 6511WAT     H219776   8.130   4.062   8.594
 6512WAT      O19777   1.247   0.833   8.066
 6512WAT     H119778   1.185   0.809   7.991
 6512WAT     H219779   1.339   0.800   8.046
 6513WAT      O19780   3.519   5.540   5.229
 6513WAT     H119781   3.439   5.551   5.170
 6513WAT     H219782   3.561   5.629   5.246
 6514WAT      O19783   9.469   8.387   9.799
 6514WAT     H119784   9.458   8.288   9.801
 6514WAT     H219785   9.511   8.419   9.884
 6515WAT      O19786   9.802   2.778   9.416
 6515WAT     H119787   9.888   2.784   9.365
 6515WAT     H219788   9.727   2.758   9.353
 6516WAT      O19789   9.423   8.702   4.533
 6516WAT     H119790   9.417   8.742   4.442
 6516WAT     H219791   9.507   8.732   4.578
 6517WAT      O19792   2.011   2.041   9.109
 6517WAT     H119793   1.965   1.952   9.110
 6517WAT     H219794   2.100   2.032   9.065
 6518WAT      O19795   7.892   0.204   7.508
 6518WAT     H119796   7.813   0.174   7.455
 6518WAT     H219797   7.941   0.125   7.543
 6519WAT      O19798   9.551   3.117   9.411
 6519WAT     H119799   9.530   3.041   9.473
 6519WAT     H219800   9.466   3.152   9.371
 6520WAT      O19801   2.461   7.419   4.344
 6520WAT     H119802   2.362   7.431   4.349
 6520WAT     H219803   2.506   7.500   4.381
 6521WAT      O19804   3.237   6.878   2.653
 6521WAT     H119805   3.304   6.858   2.724
 6521WAT     H219806   3.188   6.794   2.630
 6522WAT      O19807   8.948   9.553   5.502
 6522WAT     H119808   8.966   9.589   5.593
 6522WAT     H219809   9.006   9.474   5.485
 6523WAT      O19810   3.695   8.642   7.397
 6523WAT     H119811   3.698   8.542   7.394
 6523WAT     H219812   3.775   8.679   7.349
 6524WAT      O19813   7.722   8.137   7.612
 6524WAT     H119814   7.807   8.099   7.575
 6524WAT     H219815   7.702   8.095   7.700
 6525WAT      O19816   3.687   6.889   0.162
 6525WAT     H119817   3.613   6.913   0.099
 6525WAT     H219818   3.753   6.832   0.113
 6526WAT      O19819   0.077   9.325   6.359
 6526WAT     H119820   0.039   9.312   6.450
 6526WAT     H219821   0.045   9.253   6.298
 6527WAT      O19822   7.010   1.510   5.131
 6527WAT     H119823   7.081   1.580   5.122
 6527WAT     H219824   6.978   1.507   5.226
 6528WAT      O19825   3.400   4.720   7.117
 6528WAT     H119826   3.355   4.633   7.096
 6528WAT     H219827   3.333   4.794   7.118
 6529WAT      O19828   9.414   0.571   6.142
 6529WAT     H119829   9.499   0.580   6.195
 6529WAT     H219830   9.336   0.597   6.199
 6530WAT      O19831   6.732   4.645   5.403
 6530WAT     H119832   6.731   4.668   5.305
 6530WAT     H219833   6.827   4.629   5.432
 6531WAT      O19834   7.760   0.168   2.504
 6531WAT     H119835   7.811   0.242   2.462
 6531WAT     H219836   7.818   0.086   2.508
 6532WAT      O19837   9.592   9.265   6.342
 6532WAT     H119838   9.515   9.269   6.279
 6532WAT     H219839   9.631   9.357   6.352
 6533WAT      O19840   4.255   0.640   9.530
 6533WAT     H119841   4.325   0.580   9.491
 6533WAT     H219842   4.299   0.709   9.588
 6534WAT      O19843   9.888   9.606   6.144
 6534WAT     H119844   9.874   9.699   6.110
 6534WAT     H219845   9.803   9.573   6.187
 6535WAT      O19846   8.702   3.468   8.568
 6535WAT     H119847   8.609   3.485   8.602
 6535WAT     H219848   8.705   3.379   8.522
 6536WAT      O19849   4.676   9.538   7.586
 6536WAT     H119850   4.698   9.530   7.684
 6536WAT     H219851   4.751   9.584   7.539
 6537WAT      O19852   9.486   6.345   3.724
 6537WAT     H119853   9.417   6.378   3.788
 6537WAT     H219854   9.454   6.262   3.678
 6538WAT      O19855   9.437   1.647   4.574
 6538WAT     H119856   9.477   1.676   4.662
 6538WAT     H219857   9.509   1.611   4.515
 6539WAT      O19858   8.908   6.656   0.809
 6539WAT     H119859   8.970   6.606   0.749
 6539WAT     H219860   8.944   6.748   0.825
 6540WAT      O19861   2.876   9.420   7.960
 6540WAT     H119862   2.898   9.459   7.870
 6540WAT     H219863   2.868   9.321   7.951
 6541WAT      O19864   0.953   6.449   4.190
 6541WAT     H119865   1.035   6.462   4.133
 6541WAT     H219866   0.909   6.538   4.204
 6542WAT      O19867   7.333   8.311   9.146
 6542WAT     H119868   7.392   8.319   9.066
 6542WAT     H219869   7.389   8.302   9.228
 6543WAT      O19870   1.973   0.029   0.782
 6543WAT     H119871   2.024  -0.051   0.812
 6543WAT     H219872   1.964   0.093   0.858
 6544WAT      O19873   6.609   6.245   2.214
 6544WAT     H119874   6.659   6.324   2.179
 6544WAT     H219875   6.511   6.264   2.214
 6545WAT      O19876   0.691   0.377   6.932
 6545WAT     H119877   0.712   0.441   6.859
 6545WAT     H219878   0.651   0.427   7.009
 6546WAT      O19879   7.865   4.627   4.117
 6546WAT     H119880   7.900   4.717   4.142
 6546WAT     H219881   7.916   4.591   4.039
 6547WAT      O19882   0.511   6.729   1.544
 6547WAT     H119883   0.509   6.672   1.461
 6547WAT     H219884   0.517   6.825   1.517
 6548WAT      O19885   0.724   0.515   9.151
 6548WAT     H119886   0.710   0.486   9.056
 6548WAT     H219887   0.822   0.528   9.167
 6549WAT      O19888   4.513   3.535   3.187
 6549WAT     H119889   4.416   3.515   3.175
 6549WAT     H219890   4.529   3.632   3.170
 6550WAT      O19891   1.933   1.364   0.353
 6550WAT     H119892   1.956   1.361   0.255
 6550WAT     H219893   1.897   1.276   0.381
 6551WAT      O19894   2.241   2.789   3.370
 6551WAT     H119895   2.201   2.701   3.345
 6551WAT     H219896   2.170   2.848   3.411
 6552WAT      O19897   6.104   2.502   7.511
 6552WAT     H119898   6.066   2.512   7.603
 6552WAT     H219899   6.158   2.583   7.489
 6553WAT      O19900   9.009   0.977   8.777
 6553WAT     H119901   9.086   0.967   8.715
 6553WAT     H219902   9.041   0.967   8.872
 6554WAT      O19903   4.152   0.533   6.730
 6554WAT     H119904   4.217   0.565   6.660
 6554WAT     H219905   4.199   0.472   6.793
 6555WAT      O19906   7.270   4.638   0.222
 6555WAT     H119907   7.302   4.546   0.200
 6555WAT     H219908   7.207   4.635   0.300
 6556WAT      O19909   4.142   0.426   1.920
 6556WAT     H119910   4.205   0.349   1.908
 6556WAT     H219911   4.193   0.509   1.941
 6557WAT      O19912   9.141   9.292   6.847
 6557WAT     H119913   9.084   9.366   6.811
 6557WAT     H219914   9.222   9.332   6.890
 6558WAT      O19915   7.707   3.171   0.693
 6558WAT     H119916   7.770   3.118   0.748
 6558WAT     H219917   7.745   3.184   0.601
 6559WAT      O19918   7.236   2.412   9.274
 6559WAT     H119919   7.198   2.505   9.273
 6559WAT     H219920   7.189   2.358   9.344
 6560WAT      O19921   9.711   1.637   8.975
 6560WAT     H119922   9.704   1.546   8.934
 6560WAT     H219923   9.807   1.658   8.995
 6561WAT      O19924   7.391   4.638   3.603
 6561WAT     H119925   7.464   4.583   3.563
 6561WAT     H219926   7.320   4.655   3.534
 6562WAT      O19927   0.214   7.229   8.021
 6562WAT     H119928   0.274   7.269   8.091
 6562WAT     H219929   0.170   7.302   7.969
 6563WAT      O19930   2.263   7.820   5.471
 6563WAT     H119931   2.307   7.870   5.397
 6563WAT     H219932   2.297   7.854   5.559
 6564WAT      O19933   0.183   9.345   7.800
 6564WAT     H119934   0.114   9.299   7.744
 6564WAT     H219935   0.156   9.440   7.816
 6565WAT      O19936   5.287   1.723   4.064
 6565WAT     H119937   5.240   1.739   3.977
 6565WAT     H219938   5.249   1.643   4.108
 6566WAT      O19939   4.739   8.230   9.277
 6566WAT     H119940   4.647   8.209   9.244
 6566WAT     H219941   4.734   8.250   9.375
 6567WAT      O19942   2.577   7.272   3.618
 6567WAT     H119943   2.556   7.368   3.638
 6567WAT     H219944   2.500   7.215   3.645
 6568WAT      O19945   8.856   3.667   4.493
 6568WAT     H119946   8.946   3.691   4.530
 6568WAT     H219947   8.790   3.737   4.517
 6569WAT      O19948   3.535   6.752   0.372
 6569WAT     H119949   3.601   6.789   0.307
 6569WAT     H219950   3.444   6.750   0.329
 6570WAT      O19951   2.053   2.632   2.000
 6570WAT     H119952   2.093   2.696   2.064
 6570WAT     H219953   1.974   2.674   1.954
 6571WAT      O19954   9.678   1.422   2.439
 6571WAT     H119955   9.695   1.379   2.350
 6571WAT     H219956   9.598   1.482   2.433
 6572WAT      O19957   9.777   8.557   2.128
 6572WAT     H119958   9.736   8.547   2.219
 6572WAT     H219959   9.837   8.479   2.110
 6573WAT      O19960   7.036   0.038   3.429
 6573WAT     H119961   6.953  -0.003   3.391
 6573WAT     H219962   7.076  -0.024   3.496
 6574WAT      O19963   3.573   0.722   3.589
 6574WAT     H119964   3.489   0.678   3.559
 6574WAT     H219965   3.639   0.651   3.616
 6575WAT      O19966   5.085   6.988   5.139
 6575WAT     H119967   5.036   6.902   5.123
 6575WAT     H219968   5.183   6.973   5.127
 6576WAT      O19969   0.225   0.160   0.573
 6576WAT     H119970   0.157   0.210   0.518
 6576WAT     H219971   0.194   0.067   0.589
 6577WAT      O19972   2.300   9.644   9.759
 6577WAT     H119973   2.220   9.619   9.704
 6577WAT     H219974   2.283   9.731   9.804
 6578WAT      O19975   0.345   0.493   3.610
 6578WAT     H119976   0.350   0.591   3.589
 6578WAT     H219977   0.317   0.481   3.705
 6579WAT      O19978   6.516   1.101   3.492
 6579WAT     H119979   6.429   1.103   3.442
 6579WAT     H219980   6.528   1.011   3.533
 6580WAT      O19981   6.070   2.767   1.401
 6580WAT     H119982   5.977   2.793   1.428
 6580WAT     H219983   6.089   2.801   1.309
 6581WAT      O19984   6.818   4.761   2.000
 6581WAT     H119985   6.906   4.799   1.971
 6581WAT     H219986   6.749   4.778   1.930
 6582WAT      O19987   5.235   6.946   0.648
 6582WAT     H119988   5.269   7.039   0.631
 6582WAT     H219989   5.274   6.884   0.580
 6583WAT      O19990   1.165   2.117   5.651
 6583WAT     H119991   1.078   2.156   5.620
 6583WAT     H219992   1.147   2.036   5.707
 6584WAT      O19993   8.311   1.622   7.714
 6584WAT     H119994   8.240   1.586   7.653
 6584WAT     H219995   8.381   1.669   7.659
 6585WAT      O19996   4.294   4.131   6.164
 6585WAT     H119997   4.207   4.137   6.116
 6585WAT     H219998   4.325   4.036   6.167
 6586WAT      O19999   3.374   3.920   3.871
 6586WAT     H120000   3.323   3.834   3.863
 6586WAT     H220001   3.334   3.988   3.810
 6587WAT      O20002   9.714   5.875   7.084
 6587WAT     H120003   9.736   5.953   7.026
 6587WAT     H220004   9.688   5.797   7.027
 6588WAT      O20005   7.050   6.337   6.797
 6588WAT     H120006   7.008   6.294   6.717
 6588WAT     H220007   7.107   6.271   6.845
 6589WAT      O20008   3.538   1.597   5.432
 6589WAT     H120009   3.605   1.642   5.374
 6589WAT     H220010   3.495   1.523   5.382
 6590WAT      O20011   8.534   5.079   6.870
 6590WAT     H120012   8.558   5.044   6.779
 6590WAT     H220013   8.535   5.179   6.869
 6591WAT      O20014   9.651   2.876   8.364
 6591WAT     H120015   9.558   2.901   8.338
 6591WAT     H220016   9.655   2.778   8.382
 6592WAT      O20017   9.422   9.181   8.816
 6592WAT     H120018   9.423   9.201   8.718
 6592WAT     H220019   9.477   9.099   8.833
 6593WAT      O20020   2.792   2.319   3.425
 6593WAT     H120021   2.842   2.356   3.347
 6593WAT     H220022   2.731   2.389   3.462
 6594WAT      O20023   4.180   2.834   2.888
 6594WAT     H120024   4.142   2.793   2.972
 6594WAT     H220025   4.105   2.874   2.835
 6595WAT      O20026   4.850   2.896   7.818
 6595WAT     H120027   4.857   2.995   7.823
 6595WAT     H220028   4.780   2.871   7.752
 6596WAT      O20029   2.644   0.196   6.156
 6596WAT     H120030   2.664   0.109   6.111
 6596WAT     H220031   2.708   0.211   6.231
 6597WAT      O20032   0.367   0.867   8.975
 6597WAT     H120033   0.324   0.949   9.012
 6597WAT     H220034   0.318   0.786   9.005
 6598WAT      O20035   0.344   1.491   0.862
 6598WAT     H120036   0.324   1.493   0.960
 6598WAT     H220037   0.296   1.566   0.817
 6599WAT      O20038   7.511   7.476   8.344
 6599WAT     H120039   7.473   7.454   8.434
 6599WAT     H220040   7.456   7.549   8.302
 6600WAT      O20041   8.530   0.779   5.909
 6600WAT     H120042   8.545   0.850   5.978
 6600WAT     H220043   8.486   0.820   5.829
 6601WAT      O20044   5.180   2.295   3.677
 6601WAT     H120045   5.158   2.358   3.603
 6601WAT     H220046   5.225   2.344   3.751
 6602WAT      O20047   5.813   1.697   0.414
 6602WAT     H120048   5.854   1.657   0.333
 6602WAT     H220049   5.719   1.726   0.394
 6603WAT      O20050   9.211   7.134   4.096
 6603WAT     H120051   9.294   7.091   4.131
 6603WAT     H220052   9.131   7.095   4.143
 6604WAT      O20053   0.206   1.004   3.625
 6604WAT     H120054   0.124   0.965   3.584
 6604WAT     H220055   0.191   1.100   3.648
 6605WAT      O20056   4.108   2.012   7.164
 6605WAT     H120057   4.059   1.929   7.139
 6605WAT     H220058   4.149   2.053   7.082
 6606WAT      O20059   1.431   6.244   6.992
 6606WAT     H120060   1.365   6.194   6.936
 6606WAT     H220061   1.416   6.224   7.089
 6607WAT      O20062   5.602   2.337   8.727
 6607WAT     H120063   5.589   2.241   8.748
 6607WAT     H220064   5.667   2.377   8.792
 6608WAT      O20065   0.076   9.697   2.450
 6608WAT     H120066   0.055   9.641   2.369
 6608WAT     H220067   0.175   9.705   2.460
 6609WAT      O20068   3.962   0.799   2.417
 6609WAT     H120069   4.038   0.745   2.454
 6609WAT     H220070   3.883   0.792   2.478
 6610WAT      O20071   4.248   8.527   6.440
 6610WAT     H120072   4.237   8.462   6.515
 6610WAT     H220073   4.161   8.537   6.392
 6611WAT      O20074   2.737   1.108   3.883
 6611WAT     H120075   2.644   1.125   3.916
 6611WAT     H220076   2.755   1.010   3.883
 6612WAT      O20077   8.415   0.206   4.946
 6612WAT     H120078   8.432   0.296   4.905
 6612WAT     H220079   8.369   0.147   4.880
 6613WAT      O20080   4.640   0.673   7.240
 6613WAT     H120081   4.554   0.658   7.191
 6613WAT     H220082   4.683   0.586   7.261
 6614WAT      O20083   4.228   4.006   4.177
 6614WAT     H120084   4.230   3.950   4.094
 6614WAT     H220085   4.291   3.967   4.244
 6615WAT      O20086   5.185   9.088   2.301
 6615WAT     H120087   5.234   9.171   2.327
 6615WAT     H220088   5.147   9.044   2.383
 6616WAT      O20089   6.046   1.338   7.199
 6616WAT     H120090   5.990   1.367   7.121
 6616WAT     H220091   6.005   1.372   7.284
 6617WAT      O20092   3.977   3.073   6.178
 6617WAT     H120093   4.060   3.018   6.190
 6617WAT     H220094   3.897   3.016   6.197
 6618WAT      O20095   1.329   7.862   5.216
 6618WAT     H120096   1.253   7.907   5.170
 6618WAT     H220097   1.297   7.780   5.263
 6619WAT      O20098   2.906   1.910   9.049
 6619WAT     H120099   2.991   1.943   9.009
 6619WAT     H220100   2.891   1.815   9.021
 6620WAT      O20101   8.871   3.040   8.964
 6620WAT     H120102   8.836   2.955   9.003
 6620WAT     H220103   8.804   3.079   8.902
 6621WAT      O20104   3.416   5.992   4.622
 6621WAT     H120105   3.435   6.072   4.679
 6621WAT     H220106   3.490   5.982   4.555
 6622WAT      O20107   7.572   2.969   3.396
 6622WAT     H120108   7.493   2.998   3.449
 6622WAT     H220109   7.542   2.916   3.317
 6623WAT      O20110   2.455   8.468   6.377
 6623WAT     H120111   2.456   8.445   6.280
 6623WAT     H220112   2.483   8.563   6.390
 6624WAT      O20113   1.712   5.838   1.659
 6624WAT     H120114   1.690   5.751   1.702
 6624WAT     H220115   1.769   5.892   1.721
 6625WAT      O20116   5.087   0.523   0.247
 6625WAT     H120117   5.014   0.545   0.311
 6625WAT     H220118   5.155   0.596   0.248
 6626WAT      O20119   6.288   8.484   9.865
 6626WAT     H120120   6.306   8.510   9.770
 6626WAT     H220121   6.250   8.392   9.869
 6627WAT      O20122   7.548   7.978   1.675
 6627WAT     H120123   7.449   7.978   1.691
 6627WAT     H220124   7.566   7.983   1.577
 6628WAT      O20125   8.089   5.531   4.429
 6628WAT     H120126   8.117   5.529   4.333
 6628WAT     H220127   8.070   5.625   4.457
 6629WAT      O20128   4.602   8.166   8.772
 6629WAT     H120129   4.533   8.198   8.707
 6629WAT     H220130   4.676   8.120   8.723
 6630WAT      O20131   9.054   4.158   5.634
 6630WAT     H120132   9.021   4.128   5.724
 6630WAT     H220133   9.097   4.081   5.587
 6631WAT      O20134   9.375   2.318   3.190
 6631WAT     H120135   9.458   2.344   3.240
 6631WAT     H220136   9.380   2.221   3.166
 6632WAT      O20137   6.635   7.708   9.094
 6632WAT     H120138   6.714   7.767   9.079
 6632WAT     H220139   6.578   7.705   9.012
 6633WAT      O20140   5.286   1.132   9.113
 6633WAT     H120141   5.288   1.032   9.121
 6633WAT     H220142   5.340   1.160   9.033
 6634WAT      O20143   0.457   6.896   4.964
 6634WAT     H120144   0.382   6.895   5.031
 6634WAT     H220145   0.420   6.894   4.872
 6635WAT      O20146   6.382   8.303   6.973
 6635WAT     H120147   6.338   8.218   6.945
 6635WAT     H220148   6.375   8.314   7.072
 6636WAT      O20149   4.645   2.837   4.568
 6636WAT     H120150   4.662   2.933   4.590
 6636WAT     H220151   4.611   2.790   4.649
 6637WAT      O20152   7.661   7.796   7.750
 6637WAT     H120153   7.626   7.802   7.657
 6637WAT     H220154   7.737   7.732   7.753
 6638WAT      O20155   0.511   0.045   5.315
 6638WAT     H120156   0.421   0.015   5.347
 6638WAT     H220157   0.532   0.003   5.227
 6639WAT      O20158   2.584   3.534   8.759
 6639WAT     H120159   2.641   3.459   8.725
 6639WAT     H220160   2.542   3.582   8.683
 6640WAT      O20161   5.740   4.042   2.046
 6640WAT     H120162   5.835   4.015   2.030
 6640WAT     H220163   5.738   4.120   2.109
 6641WAT      O20164   0.171   0.570   8.550
 6641WAT     H120165   0.113   0.602   8.625
 6641WAT     H220166   0.154   0.473   8.533
 6642WAT      O20167   9.055   6.724   2.938
 6642WAT     H120168   9.055   6.820   2.963
 6642WAT     H220169   9.113   6.711   2.857
 6643WAT      O20170   4.403   2.539   2.749
 6643WAT     H120171   4.429   2.566   2.841
 6643WAT     H220172   4.340   2.461   2.753
 6644WAT      O20173   2.565   4.293   2.292
 6644WAT     H120174   2.497   4.364   2.270
 6644WAT     H220175   2.527   4.203   2.273
 6645WAT      O20176   8.854   6.528   0.135
 6645WAT     H120177   8.853   6.440   0.182
 6645WAT     H220178   8.940   6.538   0.085
 6646WAT      O20179   0.410   2.351   9.149
 6646WAT     H120180   0.423   2.253   9.166
 6646WAT     H220181   0.321   2.367   9.108
 6647WAT      O20182   1.907   3.214   4.244
 6647WAT     H120183   2.001   3.196   4.215
 6647WAT     H220184   1.879   3.304   4.211
 6648WAT      O20185   2.208   0.914   5.506
 6648WAT     H120186   2.127   0.912   5.565
 6648WAT     H220187   2.242   0.821   5.493
 6649WAT      O20188   8.115   3.192   5.957
 6649WAT     H120189   8.172   3.247   5.896
 6649WAT     H220190   8.157   3.101   5.967
 6650WAT      O20191   8.126   6.255   1.643
 6650WAT     H120192   8.066   6.330   1.670
 6650WAT     H220193   8.221   6.278   1.665
 6651WAT      O20194   5.664   8.272   3.237
 6651WAT     H120195   5.675   8.172   3.242
 6651WAT     H220196   5.739   8.311   3.183
 6652WAT      O20197   5.725   5.601   6.092
 6652WAT     H120198   5.655   5.537   6.124
 6652WAT     H220199   5.794   5.551   6.040
 6653WAT      O20200   6.856   3.370   4.968
 6653WAT     H120201   6.831   3.403   5.059
 6653WAT     H220202   6.943   3.411   4.941
 6654WAT      O20203   3.223   4.089   0.910
 6654WAT     H120204   3.248   4.119   1.002
 6654WAT     H220205   3.278   4.010   0.884
 6655WAT      O20206   5.397   3.585   8.994
 6655WAT     H120207   5.481   3.631   9.024
 6655WAT     H220208   5.412   3.486   8.994
 6656WAT      O20209   3.264   2.600   8.882
 6656WAT     H120210   3.261   2.677   8.946
 6656WAT     H220211   3.307   2.521   8.928
 6657WAT      O20212   8.636   8.931   7.905
 6657WAT     H120213   8.591   8.843   7.914
 6657WAT     H220214   8.579   9.003   7.945
 6658WAT      O20215   0.732   5.762   9.376
 6658WAT     H120216   0.744   5.725   9.468
 6658WAT     H220217   0.697   5.855   9.382
 6659WAT      O20218   4.832   5.428   8.415
 6659WAT     H120219   4.917   5.401   8.371
 6659WAT     H220220   4.814   5.368   8.493
 6660WAT      O20221   5.383   2.058   2.543
 6660WAT     H120222   5.381   2.129   2.613
 6660WAT     H220223   5.397   2.101   2.453
 6661WAT      O20224   4.933   2.910   6.743
 6661WAT     H120225   5.015   2.860   6.772
 6661WAT     H220226   4.877   2.850   6.685
 6662WAT      O20227   4.520   9.356   0.524
 6662WAT     H120228   4.581   9.435   0.516
 6662WAT     H220229   4.543   9.304   0.607
 6663WAT      O20230   1.678   5.083   7.749
 6663WAT     H120231   1.663   5.088   7.651
 6663WAT     H220232   1.705   5.173   7.784
 6664WAT      O20233   8.529   0.650   3.552
 6664WAT     H120234   8.589   0.729   3.561
 6664WAT     H220235   8.550   0.601   3.468
 6665WAT      O20236   7.049   6.646   4.243
 6665WAT     H120237   7.128   6.587   4.259
 6665WAT     H220238   7.074   6.742   4.260
 6666WAT      O20239   4.682   3.164   0.103
 6666WAT     H120240   4.659   3.197   0.012
 6666WAT     H220241   4.772   3.201   0.130
 6667WAT      O20242   4.435   0.088   4.404
 6667WAT     H120243   4.360   0.072   4.468
 6667WAT     H220244   4.418   0.172   4.352
 6668WAT      O20245   1.252   4.683   0.776
 6668WAT     H120246   1.255   4.686   0.876
 6668WAT     H220247   1.243   4.588   0.746
 6669WAT      O20248   1.246   7.724   0.543
 6669WAT     H120249   1.259   7.722   0.444
 6669WAT     H220250   1.192   7.645   0.571
 6670WAT      O20251   3.080   3.305   4.084
 6670WAT     H120252   3.026   3.328   4.166
 6670WAT     H220253   3.057   3.212   4.055
 6671WAT      O20254   5.888   9.521   4.347
 6671WAT     H120255   5.910   9.618   4.342
 6671WAT     H220256   5.967   9.471   4.382
 6672WAT      O20257   0.016   2.551   8.173
 6672WAT     H120258   0.095   2.611   8.186
 6672WAT     H220259  -0.044   2.556   8.253
 6673WAT      O20260   3.488   9.028   2.152
 6673WAT     H120261   3.426   8.961   2.111
 6673WAT     H220262   3.440   9.080   2.222
 6674WAT      O20263   6.583   4.578   7.783
 6674WAT     H120264   6.513   4.531   7.729
 6674WAT     H220265   6.543   4.608   7.870
 6675WAT      O20266   8.126   9.725   8.632
 6675WAT     H120267   8.123   9.825   8.630
 6675WAT     H220268   8.061   9.688   8.565
 6676WAT      O20269   6.982   2.467   4.997
 6676WAT     H120270   7.056   2.532   5.013
 6676WAT     H220271   7.007   2.404   4.923
 6677WAT      O20272   9.237   5.404   4.717
 6677WAT     H120273   9.193   5.491   4.739
 6677WAT     H220274   9.169   5.331   4.718
 6678WAT      O20275   6.321   7.522   6.808
 6678WAT     H120276   6.351   7.476   6.892
 6678WAT     H220277   6.273   7.456   6.750
 6679WAT      O20278   6.532   3.159   7.906
 6679WAT     H120279   6.456   3.158   7.840
 6679WAT     H220280   6.513   3.094   7.979
 6680WAT      O20281   0.286   4.377   6.420
 6680WAT     H120282   0.318   4.472   6.408
 6680WAT     H220283   0.187   4.377   6.434
 6681WAT      O20284   4.584   1.906   9.673
 6681WAT     H120285   4.654   1.847   9.713
 6681WAT     H220286   4.578   1.991   9.725
 6682WAT      O20287   4.634   9.839   8.271
 6682WAT     H120288   4.729   9.828   8.239
 6682WAT     H220289   4.630   9.824   8.369
 6683WAT      O20290   2.702   7.670   2.537
 6683WAT     H120291   2.754   7.586   2.552
 6683WAT     H220292   2.721   7.705   2.445
 6684WAT      O20293   5.328   7.084   7.950
 6684WAT     H120294   5.319   6.984   7.953
 6684WAT     H220295   5.277   7.124   8.027
 6685WAT      O20296   2.938   3.051   6.898
 6685WAT     H120297   2.877   3.110   6.844
 6685WAT     H220298   3.029   3.093   6.902
 6686WAT      O20299   1.335   2.166   1.806
 6686WAT     H120300   1.374   2.074   1.809
 6686WAT     H220301   1.394   2.226   1.752
 6687WAT      O20302   6.735   2.299   7.352
 6687WAT     H120303   6.661   2.245   7.312
 6687WAT     H220304   6.822   2.268   7.315
 6688WAT      O20305   5.962   4.852   0.287
 6688WAT     H120306   5.967   4.855   0.386
 6688WAT     H220307   5.866   4.846   0.259
 6689WAT      O20308   6.437   8.921   0.385
 6689WAT     H120309   6.427   8.985   0.460
 6689WAT     H220310   6.529   8.880   0.389
 6690WAT      O20311   2.325   4.016   7.259
 6690WAT     H120312   2.300   4.024   7.162
 6690WAT     H220313   2.422   3.997   7.267
 6691WAT      O20314   5.934   0.627   4.607
 6691WAT     H120315   5.913   0.721   4.576
 6691WAT     H220316   5.881   0.562   4.552
 6692WAT      O20317   0.148   9.126   3.824
 6692WAT     H120318   0.159   9.146   3.727
 6692WAT     H220319   0.232   9.150   3.873
 6693WAT      O20320   2.670   2.355   9.840
 6693WAT     H120321   2.597   2.314   9.784
 6693WAT     H220322   2.759   2.321   9.808
 6694WAT      O20323   0.580   2.336   8.853
 6694WAT     H120324   0.629   2.250   8.838
 6694WAT     H220325   0.627   2.390   8.922
 6695WAT      O20326   9.455   1.168   8.834
 6695WAT     H120327   9.456   1.155   8.735
 6695WAT     H220328   9.511   1.098   8.878
 6696WAT      O20329   0.115   2.669   2.839
 6696WAT     H120330   0.050   2.744   2.856
 6696WAT     H220331   0.093   2.626   2.751
 6697WAT      O20332   9.702   1.258   5.225
 6697WAT     H120333   9.788   1.285   5.268
 6697WAT     H220334   9.721   1.205   5.142
 6698WAT      O20335   2.410   2.137   6.238
 6698WAT     H120336   2.333   2.101   6.185
 6698WAT     H220337   2.376   2.194   6.312
 6699WAT      O20338   9.667   8.855   4.664
 6699WAT     H120339   9.708   8.931   4.714
 6699WAT     H220340   9.633   8.887   4.576
 6700WAT      O20341   7.428   1.893   3.315
 6700WAT     H120342   7.475   1.920   3.399
 6700WAT     H220343   7.491   1.897   3.238
 6701WAT      O20344   2.097   8.697   1.155
 6701WAT     H120345   2.099   8.746   1.069
 6701WAT     H220346   2.052   8.753   1.225
 6702WAT      O20347   1.430   9.352   4.005
 6702WAT     H120348   1.484   9.268   4.002
 6702WAT     H220349   1.411   9.375   4.101
 6703WAT      O20350   8.290   5.706   6.946
 6703WAT     H120351   8.251   5.791   6.910
 6703WAT     H220352   8.311   5.645   6.870
 6704WAT      O20353   3.010   7.254   8.833
 6704WAT     H120354   2.952   7.259   8.915
 6704WAT     H220355   2.956   7.279   8.753
 6705WAT      O20356   0.333   6.369   4.178
 6705WAT     H120357   0.291   6.355   4.089
 6705WAT     H220358   0.262   6.366   4.249
 6706WAT      O20359   9.373   8.103   5.764
 6706WAT     H120360   9.393   8.007   5.743
 6706WAT     H220361   9.275   8.115   5.775
 6707WAT      O20362   8.705   8.881   0.591
 6707WAT     H120363   8.776   8.946   0.617
 6707WAT     H220364   8.651   8.856   0.672
 6708WAT      O20365   7.563   2.307   8.293
 6708WAT     H120366   7.603   2.374   8.356
 6708WAT     H220367   7.578   2.338   8.199
 6709WAT      O20368   2.953   4.109   8.129
 6709WAT     H120369   2.936   4.018   8.090
 6709WAT     H220370   2.966   4.101   8.228
 6710WAT      O20371   3.100   3.283   0.181
 6710WAT     H120372   3.068   3.369   0.222
 6710WAT     H220373   3.165   3.239   0.243
 6711WAT      O20374   7.677   0.829   5.798
 6711WAT     H120375   7.584   0.795   5.783
 6711WAT     H220376   7.728   0.828   5.712
 6712WAT      O20377   5.856   7.587   0.027
 6712WAT     H120378   5.789   7.589  -0.047
 6712WAT     H220379   5.887   7.680   0.046
 6713WAT      O20380   8.431   4.651   1.525
 6713WAT     H120381   8.363   4.596   1.573
 6713WAT     H220382   8.520   4.640   1.568
 6714WAT      O20383   6.070   4.721   5.493
 6714WAT     H120384   6.049   4.818   5.498
 6714WAT     H220385   6.083   4.685   5.585
 6715WAT      O20386   6.641   2.643   0.740
 6715WAT     H120387   6.594   2.668   0.825
 6715WAT     H220388   6.689   2.556   0.753
 6716WAT      O20389   7.384   2.025   9.533
 6716WAT     H120390   7.378   1.942   9.477
 6716WAT     H220391   7.473   2.029   9.577
 6717WAT      O20392   0.848   4.642   8.947
 6717WAT     H120393   0.866   4.550   8.913
 6717WAT     H220394   0.835   4.638   9.047
 6718WAT      O20395   6.324   2.481   3.805
 6718WAT     H120396   6.283   2.571   3.820
 6718WAT     H220397   6.256   2.419   3.767
 6719WAT      O20398   5.959   5.839   7.627
 6719WAT     H120399   5.948   5.747   7.589
 6719WAT     H220400   5.967   5.905   7.552
 6720WAT      O20401   0.401   4.624   0.026
 6720WAT     H120402   0.413   4.526   0.012
 6720WAT     H220403   0.488   4.663   0.059
 6721WAT      O20404   2.520   9.727   6.534
 6721WAT     H120405   2.524   9.744   6.632
 6721WAT     H220406   2.453   9.788   6.492
 6722WAT      O20407   1.656   9.439   2.963
 6722WAT     H120408   1.663   9.367   3.032
 6722WAT     H220409   1.639   9.526   3.008
 6723WAT      O20410   1.700   4.140   5.105
 6723WAT     H120411   1.659   4.069   5.161
 6723WAT     H220412   1.714   4.106   5.012
 6724WAT      O20413   6.940   2.470   8.596
 6724WAT     H120414   6.885   2.543   8.638
 6724WAT     H220415   6.963   2.402   8.665
 6725WAT      O20416   9.302   5.911   7.946
 6725WAT     H120417   9.363   5.835   7.971
 6725WAT     H220418   9.223   5.875   7.897
 6726WAT      O20419   8.943   2.012   7.928
 6726WAT     H120420   8.933   2.098   7.980
 6726WAT     H220421   8.992   2.031   7.843
 6727WAT      O20422   3.294   6.206   1.922
 6727WAT     H120423   3.277   6.153   1.839
 6727WAT     H220424   3.387   6.189   1.954
 6728WAT      O20425   9.546   5.464   2.463
 6728WAT     H120426   9.489   5.545   2.446
 6728WAT     H220427   9.500   5.384   2.424
 6729WAT      O20428   6.425   5.073   1.955
 6729WAT     H120429   6.370   5.061   2.037
 6729WAT     H220430   6.516   5.106   1.981
 6730WAT      O20431   0.337   9.365   7.522
 6730WAT     H120432   0.257   9.351   7.463
 6730WAT     H220433   0.361   9.279   7.567
 6731WAT      O20434   8.067   2.067   5.868
 6731WAT     H120435   8.164   2.090   5.862
 6731WAT     H220436   8.047   2.032   5.960
 6732WAT      O20437   5.883   0.261   8.034
 6732WAT     H120438   5.848   0.259   7.940
 6732WAT     H220439   5.957   0.194   8.043
 6733WAT      O20440   2.802   5.229   6.050
 6733WAT     H120441   2.831   5.239   6.146
 6733WAT     H220442   2.874   5.266   5.990
 6734WAT      O20443   0.956   1.251   2.577
 6734WAT     H120444   0.866   1.251   2.534
 6734WAT     H220445   1.024   1.220   2.511
 6735WAT      O20446   7.289   5.224   3.125
 6735WAT     H120447   7.320   5.183   3.211
 6735WAT     H220448   7.189   5.228   3.125
 6736WAT      O20449   3.312   7.588   4.869
 6736WAT     H120450   3.331   7.506   4.923
 6736WAT     H220451   3.390   7.651   4.877
 6737WAT      O20452   0.469   5.476   4.420
 6737WAT     H120453   0.493   5.393   4.368
 6737WAT     H220454   0.405   5.531   4.366
 6738WAT      O20455   3.330   8.741   9.806
 6738WAT     H120456   3.392   8.741   9.728
 6738WAT     H220457   3.237   8.759   9.775
 6739WAT      O20458   5.805   1.091   6.738
 6739WAT     H120459   5.808   1.017   6.805
 6739WAT     H220460   5.775   1.175   6.784
 6740WAT      O20461   9.466   6.049   8.755
 6740WAT     H120462   9.379   6.013   8.791
 6740WAT     H220463   9.473   6.146   8.778
 6741WAT      O20464   3.477   5.243   2.062
 6741WAT     H120465   3.403   5.195   2.108
 6741WAT     H220466   3.538   5.177   2.019
 6742WAT      O20467   1.178   1.611   1.294
 6742WAT     H120468   1.257   1.645   1.243
 6742WAT     H220469   1.123   1.688   1.325
 6743WAT      O20470   8.039   6.883   8.261
 6743WAT     H120471   8.091   6.818   8.317
 6743WAT     H220472   8.016   6.840   8.174
 6744WAT      O20473   4.943   1.305   7.214
 6744WAT     H120474   4.996   1.355   7.146
 6744WAT     H220475   4.917   1.216   7.177
 6745WAT      O20476   4.272   4.212   3.990
 6745WAT     H120477   4.276   4.132   4.049
 6745WAT     H220478   4.361   4.258   3.990
 6746WAT      O20479   1.132   1.947   8.176
 6746WAT     H120480   1.194   1.995   8.114
 6746WAT     H220481   1.091   2.012   8.239
 6747WAT      O20482   2.565   4.729   1.118
 6747WAT     H120483   2.606   4.774   1.039
 6747WAT     H220484   2.466   4.738   1.114
 6748WAT      O20485   0.983   5.223   3.142
 6748WAT     H120486   1.003   5.138   3.191
 6748WAT     H220487   0.952   5.293   3.207
 6749WAT      O20488   4.569   2.750   0.052
 6749WAT     H120489   4.669   2.752   0.055
 6749WAT     H220490   4.533   2.818   0.116
 6750WAT      O20491   8.912   9.599   7.073
 6750WAT     H120492   8.943   9.641   6.987
 6750WAT     H220493   8.963   9.638   7.149
 6751WAT      O20494   6.642   0.160   3.694
 6751WAT     H120495   6.616   0.161   3.790
 6751WAT     H220496   6.677   0.069   3.670
 6752WAT      O20497   3.280   2.824   9.051
 6752WAT     H120498   3.297   2.886   9.127
 6752WAT     H220499   3.288   2.874   8.965
 6753WAT      O20500   8.452   1.074   7.425
 6753WAT     H120501   8.354   1.060   7.429
 6753WAT     H220502   8.498   0.986   7.414
 6754WAT      O20503   3.991   9.355   1.604
 6754WAT     H120504   3.933   9.360   1.523
 6754WAT     H220505   3.936   9.374   1.686
 6755WAT      O20506   0.174   9.653   6.874
 6755WAT     H120507   0.247   9.623   6.812
 6755WAT     H220508   0.164   9.753   6.867
 6756WAT      O20509   6.021   0.481   0.913
 6756WAT     H120510   6.082   0.498   0.835
 6756WAT     H220511   6.029   0.555   0.979
 6757WAT      O20512   0.318   5.343   7.777
 6757WAT     H120513   0.301   5.259   7.725
 6757WAT     H220514   0.233   5.394   7.787
 6758WAT      O20515   0.791   8.120   9.345
 6758WAT     H120516   0.847   8.179   9.403
 6758WAT     H220517   0.744   8.053   9.402
 6759WAT      O20518   4.773   4.846   5.387
 6759WAT     H120519   4.857   4.901   5.391
 6759WAT     H220520   4.718   4.862   5.469
 6760WAT      O20521   0.168   7.336   9.448
 6760WAT     H120522   0.172   7.436   9.452
 6760WAT     H220523   0.109   7.308   9.372
 6761WAT      O20524   7.084   6.225   0.583
 6761WAT     H120525   7.155   6.277   0.535
 6761WAT     H220526   7.105   6.221   0.680
 6762WAT      O20527   3.553   0.149   8.870
 6762WAT     H120528   3.570   0.055   8.902
 6762WAT     H220529   3.482   0.148   8.800
 6763WAT      O20530   7.078   0.620   9.465
 6763WAT     H120531   7.170   0.657   9.457
 6763WAT     H220532   7.082   0.522   9.481
 6764WAT      O20533   0.583   1.778   0.843
 6764WAT     H120534   0.575   1.703   0.909
 6764WAT     H220535   0.497   1.828   0.838
 6765WAT      O20536   6.865   1.671   0.405
 6765WAT     H120537   6.844   1.758   0.360
 6765WAT     H220538   6.919   1.688   0.487
 6766WAT      O20539   9.762   4.713   9.220
 6766WAT     H120540   9.735   4.793   9.273
 6766WAT     H220541   9.816   4.651   9.278
 6767WAT      O20542   6.546   9.731   6.241
 6767WAT     H120543   6.572   9.824   6.215
 6767WAT     H220544   6.592   9.665   6.181
 6768WAT      O20545   0.809   1.699   1.207
 6768WAT     H120546   0.720   1.684   1.165
 6768WAT     H220547   0.876   1.725   1.137
 6769WAT      O20548   1.158   3.278   0.848
 6769WAT     H120549   1.239   3.240   0.802
 6769WAT     H220550   1.167   3.266   0.947
 6770WAT      O20551   4.580   6.781   2.134
 6770WAT     H120552   4.522   6.790   2.214
 6770WAT     H220553   4.668   6.825   2.152
 6771WAT      O20554   4.944   3.555   7.863
 6771WAT     H120555   5.031   3.505   7.853
 6771WAT     H220556   4.878   3.497   7.910
 6772WAT      O20557   9.399   1.400   1.117
 6772WAT     H120558   9.429   1.346   1.196
 6772WAT     H220559   9.309   1.439   1.136
 6773WAT      O20560   3.632   7.385   2.296
 6773WAT     H120561   3.559   7.377   2.364
 6773WAT     H220562   3.672   7.477   2.302
 6774WAT      O20563   6.747   7.404   5.313
 6774WAT     H120564   6.769   7.502   5.322
 6774WAT     H220565   6.672   7.393   5.248
 6775WAT      O20566   3.438   8.309   1.414
 6775WAT     H120567   3.529   8.280   1.442
 6775WAT     H220568   3.400   8.243   1.350
 6776WAT      O20569   5.534   4.797   3.443
 6776WAT     H120570   5.532   4.772   3.346
 6776WAT     H220571   5.441   4.819   3.473
 6777WAT      O20572   7.684   0.303   6.193
 6777WAT     H120573   7.777   0.267   6.193
 6777WAT     H220574   7.649   0.305   6.099
 6778WAT      O20575   9.193   5.064   9.586
 6778WAT     H120576   9.124   5.031   9.522
 6778WAT     H220577   9.159   5.145   9.634
 6779WAT      O20578   9.482   8.323   2.712
 6779WAT     H120579   9.467   8.289   2.619
 6779WAT     H220580   9.492   8.245   2.774
 6780WAT      O20581   9.240   2.062   1.999
 6780WAT     H120582   9.146   2.069   2.032
 6780WAT     H220583   9.301   2.113   2.059
 6781WAT      O20584   4.710   8.432   7.970
 6781WAT     H120585   4.731   8.519   7.924
 6781WAT     H220586   4.697   8.361   7.901
 6782WAT      O20587   5.909   8.936   4.538
 6782WAT     H120588   5.850   8.945   4.619
 6782WAT     H220589   5.953   9.024   4.520
 6783WAT      O20590   1.417   7.170   8.440
 6783WAT     H120591   1.477   7.217   8.506
 6783WAT     H220592   1.322   7.178   8.471
 6784WAT      O20593   0.414   0.997   1.880
 6784WAT     H120594   0.506   0.967   1.902
 6784WAT     H220595   0.350   0.920   1.888
 6785WAT      O20596   7.984   8.411   9.602
 6785WAT     H120597   7.931   8.380   9.681
 6785WAT     H220598   8.054   8.476   9.632
 6786WAT      O20599   7.996   4.361   8.857
 6786WAT     H120600   8.054   4.442   8.847
 6786WAT     H220601   8.012   4.319   8.946
 6787WAT      O20602   3.731   3.723   6.550
 6787WAT     H120603   3.812   3.773   6.580
 6787WAT     H220604   3.649   3.772   6.579
 6788WAT      O20605   1.430   8.673   0.110
 6788WAT     H120606   1.346   8.663   0.163
 6788WAT     H220607   1.409   8.716   0.022
 6789WAT      O20608   5.927   0.636   3.619
 6789WAT     H120609   5.846   0.682   3.654
 6789WAT     H220610   5.966   0.577   3.689
 6790WAT      O20611   9.777   9.763   7.012
 6790WAT     H120612   9.784   9.822   6.932
 6790WAT     H220613   9.691   9.780   7.059
 6791WAT      O20614   2.769   7.166   9.414
 6791WAT     H120615   2.719   7.240   9.369
 6791WAT     H220616   2.857   7.199   9.445
 6792WAT      O20617   9.555   0.761   0.108
 6792WAT     H120618   9.553   0.791   0.203
 6792WAT     H220619   9.467   0.784   0.064
 6793WAT      O20620   3.121   8.469   2.537
 6793WAT     H120621   3.203   8.504   2.583
 6793WAT     H220622   3.073   8.406   2.598
 6794WAT      O20623   3.361   4.580   6.853
 6794WAT     H120624   3.299   4.658   6.847
 6794WAT     H220625   3.456   4.612   6.853
 6795WAT      O20626   3.653   9.263   5.968
 6795WAT     H120627   3.672   9.356   5.937
 6795WAT     H220628   3.736   9.223   6.005
 6796WAT      O20629   0.486   1.812   8.417
 6796WAT     H120630   0.571   1.762   8.435
 6796WAT     H220631   0.410   1.748   8.407
 6797WAT      O20632   4.145   2.037   0.014
 6797WAT     H120633   4.228   2.059   0.064
 6797WAT     H220634   4.158   1.953  -0.039
 6798WAT      O20635   3.097   4.848   8.973
 6798WAT     H120636   3.136   4.915   8.910
 6798WAT     H220637   3.088   4.889   9.064
 6799WAT      O20638   0.232   2.184   7.250
 6799WAT     H120639   0.248   2.104   7.308
 6799WAT     H220640   0.301   2.187   7.178
 6800WAT      O20641   4.919   2.971   1.542
 6800WAT     H120642   4.827   3.006   1.525
 6800WAT     H220643   4.984   3.018   1.482
 6801WAT      O20644   5.109   2.087   9.130
 6801WAT     H120645   5.146   2.179   9.113
 6801WAT     H220646   5.089   2.044   9.042
 6802WAT      O20647   3.676   4.465   1.041
 6802WAT     H120648   3.663   4.391   0.974
 6802WAT     H220649   3.752   4.441   1.102
 6803WAT      O20650   8.985   3.336   2.351
 6803WAT     H120651   8.999   3.358   2.447
 6803WAT     H220652   9.017   3.412   2.294
 6804WAT      O20653   3.823   0.256   8.652
 6804WAT     H120654   3.766   0.176   8.668
 6804WAT     H220655   3.826   0.277   8.554
 6805WAT      O20656   1.675   8.866   1.394
 6805WAT     H120657   1.589   8.859   1.344
 6805WAT     H220658   1.657   8.890   1.489
 6806WAT      O20659   2.071   0.647   8.132
 6806WAT     H120660   2.126   0.610   8.056
 6806WAT     H220661   2.131   0.699   8.194
 6807WAT      O20662   9.387   7.318   3.729
 6807WAT     H120663   9.453   7.394   3.730
 6807WAT     H220664   9.434   7.232   3.748
 6808WAT      O20665   7.903   9.367   6.376
 6808WAT     H120666   7.872   9.457   6.347
 6808WAT     H220667   7.968   9.330   6.310
 6809WAT      O20668   7.066   9.370   7.642
 6809WAT     H120669   7.152   9.320   7.633
 6809WAT     H220670   7.063   9.445   7.575
 6810WAT      O20671   7.653   8.963   9.629
 6810WAT     H120672   7.666   9.049   9.678
 6810WAT     H220673   7.713   8.893   9.669
 6811WAT      O20674   2.910   4.280   7.902
 6811WAT     H120675   2.907   4.213   7.976
 6811WAT     H220676   2.818   4.312   7.882
 6812WAT      O20677   2.551   7.466   6.611
 6812WAT     H120678   2.640   7.428   6.586
 6812WAT     H220679   2.563   7.561   6.642
 6813WAT      O20680   1.995   9.432   8.942
 6813WAT     H120681   1.985   9.333   8.957
 6813WAT     H220682   2.084   9.451   8.902
 6814WAT      O20683   0.551   8.653   3.680
 6814WAT     H120684   0.510   8.612   3.599
 6814WAT     H220685   0.514   8.610   3.762
 6815WAT      O20686   8.819   0.879   4.323
 6815WAT     H120687   8.810   0.793   4.372
 6815WAT     H220688   8.741   0.890   4.261
 6816WAT      O20689   4.138   0.925   1.485
 6816WAT     H120690   4.071   0.967   1.546
 6816WAT     H220691   4.099   0.916   1.393
 6817WAT      O20692   9.701   8.873   9.485
 6817WAT     H120693   9.691   8.774   9.474
 6817WAT     H220694   9.640   8.920   9.420
 6818WAT      O20695   7.190   9.269   6.927
 6818WAT     H120696   7.234   9.244   7.013
 6818WAT     H220697   7.135   9.192   6.895
 6819WAT      O20698   0.751   8.856   5.219
 6819WAT     H120699   0.732   8.880   5.124
 6819WAT     H220700   0.837   8.898   5.247
 6820WAT      O20701   1.452   7.671   5.868
 6820WAT     H120702   1.412   7.736   5.804
 6820WAT     H220703   1.529   7.625   5.825
 6821WAT      O20704   0.654   8.604   4.207
 6821WAT     H120705   0.653   8.688   4.262
 6821WAT     H220706   0.566   8.558   4.216
 6822WAT      O20707   2.073   1.473   4.273
 6822WAT     H120708   2.098   1.383   4.307
 6822WAT     H220709   2.048   1.467   4.176
 6823WAT      O20710   6.298   4.156   9.413
 6823WAT     H120711   6.279   4.120   9.322
 6823WAT     H220712   6.396   4.169   9.425
 6824WAT      O20713   2.352   5.702   1.625
 6824WAT     H120714   2.357   5.658   1.714
 6824WAT     H220715   2.366   5.634   1.553
 6825WAT      O20716   4.328   9.536   4.900
 6825WAT     H120717   4.374   9.591   4.970
 6825WAT     H220718   4.306   9.446   4.938
 6826WAT      O20719   6.409   6.468   5.194
 6826WAT     H120720   6.444   6.399   5.131
 6826WAT     H220721   6.361   6.540   5.143
 6827WAT      O20722   3.128   2.939   8.306
 6827WAT     H120723   3.065   3.016   8.317
 6827WAT     H220724   3.210   2.955   8.361
 6828WAT      O20725   3.384   9.652   9.661
 6828WAT     H120726   3.306   9.631   9.719
 6828WAT     H220727   3.424   9.568   9.625
 6829WAT      O20728   9.343   4.884   3.439
 6829WAT     H120729   9.335   4.835   3.525
 6829WAT     H220730   9.271   4.953   3.433
 6830WAT      O20731   2.016   2.970   8.919
 6830WAT     H120732   1.965   2.930   8.996
 6830WAT     H220733   1.951   3.007   8.853
 6831WAT      O20734   3.602   9.193   9.292
 6831WAT     H120735   3.516   9.142   9.306
 6831WAT     H220736   3.584   9.290   9.302
 6832WAT      O20737   2.552   3.246   6.021
 6832WAT     H120738   2.630   3.228   6.082
 6832WAT     H220739   2.477   3.286   6.073
 6833WAT      O20740   5.733   8.600   4.468
 6833WAT     H120741   5.763   8.686   4.428
 6833WAT     H220742   5.651   8.568   4.420
 6834WAT      O20743   1.336   1.793   4.214
 6834WAT     H120744   1.328   1.887   4.247
 6834WAT     H220745   1.278   1.782   4.133
 6835WAT      O20746   0.429   5.604   4.891
 6835WAT     H120747   0.473   5.625   4.979
 6835WAT     H220748   0.441   5.507   4.870
 6836WAT      O20749   4.895   1.571   0.356
 6836WAT     H120750   4.805   1.615   0.345
 6836WAT     H220751   4.893   1.512   0.437
 6837WAT      O20752   2.890   1.548   4.615
 6837WAT     H120753   2.989   1.545   4.606
 6837WAT     H220754   2.865   1.582   4.706
 6838WAT      O20755   1.264   6.980   1.787
 6838WAT     H120756   1.195   6.938   1.728
 6838WAT     H220757   1.230   6.982   1.881
 6839WAT      O20758   2.283   1.883   6.965
 6839WAT     H120759   2.299   1.797   7.013
 6839WAT     H220760   2.367   1.938   6.967
 6840WAT      O20761   9.575   6.159   5.177
 6840WAT     H120762   9.530   6.190   5.093
 6840WAT     H220763   9.590   6.060   5.173
 6841WAT      O20764   4.105   5.832   2.743
 6841WAT     H120765   4.146   5.760   2.798
 6841WAT     H220766   4.165   5.913   2.744
 6842WAT      O20767   7.929   5.277   7.270
 6842WAT     H120768   7.995   5.222   7.321
 6842WAT     H220769   7.941   5.374   7.295
 6843WAT      O20770   8.720   8.749   6.585
 6843WAT     H120771   8.652   8.694   6.536
 6843WAT     H220772   8.805   8.696   6.593
 6844WAT      O20773   8.938   1.712   7.840
 6844WAT     H120774   8.849   1.707   7.794
 6844WAT     H220775   8.939   1.790   7.902
 6845WAT      O20776   7.345   1.715   4.535
 6845WAT     H120777   7.305   1.655   4.605
 6845WAT     H220778   7.348   1.667   4.448
 6846WAT      O20779   4.114   0.562   4.298
 6846WAT     H120780   4.132   0.615   4.215
 6846WAT     H220781   4.067   0.477   4.275
 6847WAT      O20782   3.345   5.862   5.282
 6847WAT     H120783   3.276   5.803   5.323
 6847WAT     H220784   3.434   5.844   5.325
 6848WAT      O20785   4.946   1.185   5.039
 6848WAT     H120786   5.021   1.135   5.084
 6848WAT     H220787   4.896   1.237   5.107
 6849WAT      O20788   9.470   6.838   5.494
 6849WAT     H120789   9.448   6.893   5.413
 6849WAT     H220790   9.430   6.881   5.574
 6850WAT      O20791   5.029   2.678   6.920
 6850WAT     H120792   5.109   2.726   6.957
 6850WAT     H220793   5.055   2.628   6.838
 6851WAT      O20794   4.692   9.576   3.572
 6851WAT     H120795   4.781   9.554   3.532
 6851WAT     H220796   4.704   9.602   3.668
 6852WAT      O20797   6.596   5.915   6.316
 6852WAT     H120798   6.635   5.824   6.317
 6852WAT     H220799   6.605   5.954   6.224
 6853WAT      O20800   4.992   3.117   2.449
 6853WAT     H120801   5.030   3.209   2.451
 6853WAT     H220802   5.025   3.065   2.528
 6854WAT      O20803   8.943   1.292   9.474
 6854WAT     H120804   8.878   1.235   9.423
 6854WAT     H220805   9.014   1.325   9.412
 6855WAT      O20806   9.523   3.104   3.548
 6855WAT     H120807   9.571   3.137   3.467
 6855WAT     H220808   9.554   3.012   3.570
 6856WAT      O20809   6.185   4.293   4.736
 6856WAT     H120810   6.281   4.315   4.755
 6856WAT     H220811   6.147   4.243   4.813
 6857WAT      O20812   5.035   1.728   9.082
 6857WAT     H120813   5.068   1.653   9.140
 6857WAT     H220814   5.112   1.771   9.036
 6858WAT      O20815   6.461   7.287   4.068
 6858WAT     H120816   6.426   7.236   4.147
 6858WAT     H220817   6.417   7.377   4.066
 6859WAT      O20818   1.890   4.220   1.001
 6859WAT     H120819   1.860   4.247   1.092
 6859WAT     H220820   1.876   4.122   0.989
 6860WAT      O20821   0.412   6.513   9.517
 6860WAT     H120822   0.330   6.474   9.558
 6860WAT     H220823   0.393   6.542   9.424
 6861WAT      O20824   5.911   9.454   7.385
 6861WAT     H120825   5.977   9.529   7.374
 6861WAT     H220826   5.866   9.462   7.474
 6862WAT      O20827   6.134   2.100   3.537
 6862WAT     H120828   6.072   2.062   3.606
 6862WAT     H220829   6.146   2.033   3.463
 6863WAT      O20830   3.990   2.804   0.278
 6863WAT     H120831   4.031   2.806   0.187
 6863WAT     H220832   3.932   2.723   0.286
 6864WAT      O20833   4.175   6.993   4.112
 6864WAT     H120834   4.238   6.980   4.035
 6864WAT     H220835   4.128   7.080   4.101
 6865WAT      O20836   6.929   3.785   4.870
 6865WAT     H120837   6.870   3.824   4.941
 6865WAT     H220838   7.025   3.807   4.890
 6866WAT      O20839   1.175   0.520   3.687
 6866WAT     H120840   1.221   0.557   3.767
 6866WAT     H220841   1.079   0.547   3.687
 6867WAT      O20842   4.827   2.414   1.976
 6867WAT     H120843   4.768   2.335   1.960
 6867WAT     H220844   4.845   2.460   1.890
 6868WAT      O20845   0.762   3.825   2.494
 6868WAT     H120846   0.778   3.899   2.560
 6868WAT     H220847   0.719   3.861   2.412
 6869WAT      O20848   3.203   7.029   6.324
 6869WAT     H120849   3.213   7.124   6.353
 6869WAT     H220850   3.167   7.027   6.231
 6870WAT      O20851   4.296   5.869   9.083
 6870WAT     H120852   4.309   5.968   9.073
 6870WAT     H220853   4.199   5.848   9.088
 6871WAT      O20854   0.268   3.025   7.272
 6871WAT     H120855   0.276   2.959   7.347
 6871WAT     H220856   0.227   2.979   7.193
 6872WAT      O20857   9.573   8.269   8.601
 6872WAT     H120858   9.493   8.259   8.661
 6872WAT     H220859   9.596   8.180   8.561
 6873WAT      O20860   6.084   2.710   5.392
 6873WAT     H120861   6.116   2.785   5.334
 6873WAT     H220862   6.160   2.648   5.411
 6874WAT      O20863   1.152   9.691   1.673
 6874WAT     H120864   1.196   9.704   1.584
 6874WAT     H220865   1.100   9.773   1.697
 6875WAT      O20866   2.208   5.158   5.380
 6875WAT     H120867   2.205   5.248   5.336
 6875WAT     H220868   2.263   5.096   5.324
 6876WAT      O20869   3.349   2.943   4.425
 6876WAT     H120870   3.349   3.011   4.352
 6876WAT     H220871   3.274   2.960   4.488
 6877WAT      O20872   0.355   0.525   9.444
 6877WAT     H120873   0.434   0.560   9.394
 6877WAT     H220874   0.361   0.553   9.540
 6878WAT      O20875   7.420   5.753   8.545
 6878WAT     H120876   7.416   5.735   8.643
 6878WAT     H220877   7.516   5.755   8.516
 6879WAT      O20878   9.836   3.081   1.117
 6879WAT     H120879   9.777   3.095   1.038
 6879WAT     H220880   9.932   3.089   1.090
 6880WAT      O20881   4.268   7.099   3.630
 6880WAT     H120882   4.273   7.009   3.587
 6880WAT     H220883   4.335   7.160   3.588
 6881WAT      O20884   1.005   0.713   4.975
 6881WAT     H120885   1.061   0.783   4.929
 6881WAT     H220886   1.024   0.624   4.935
 6882WAT      O20887   7.383   8.061   0.756
 6882WAT     H120888   7.366   8.067   0.855
 6882WAT     H220889   7.456   7.995   0.738
 6883WAT      O20890   7.367   1.231   8.116
 6883WAT     H120891   7.356   1.159   8.048
 6883WAT     H220892   7.306   1.213   8.194
 6884WAT      O20893   5.802   6.434   7.533
 6884WAT     H120894   5.826   6.399   7.623
 6884WAT     H220895   5.886   6.445   7.478
 6885WAT      O20896   3.612   4.000   1.602
 6885WAT     H120897   3.596   3.988   1.504
 6885WAT     H220898   3.541   4.058   1.641
 6886WAT      O20899   6.342   5.753   9.818
 6886WAT     H120900   6.303   5.728   9.906
 6886WAT     H220901   6.269   5.751   9.748
 6887WAT      O20902   6.497   1.688   3.134
 6887WAT     H120903   6.596   1.677   3.145
 6887WAT     H220904   6.478   1.748   3.056
 6888WAT      O20905   0.859   7.484   9.663
 6888WAT     H120906   0.765   7.488   9.629
 6888WAT     H220907   0.870   7.549   9.739
 6889WAT      O20908   8.001   1.726   6.282
 6889WAT     H120909   8.100   1.708   6.284
 6889WAT     H220910   7.969   1.740   6.376
 6890WAT      O20911   7.789   6.129   2.852
 6890WAT     H120912   7.695   6.128   2.887
 6890WAT     H220913   7.811   6.039   2.813
 6891WAT      O20914   4.990   8.807   3.333
 6891WAT     H120915   5.004   8.906   3.337
 6891WAT     H220916   4.910   8.783   3.389
 6892WAT      O20917   4.255   2.172   6.481
 6892WAT     H120918   4.257   2.114   6.400
 6892WAT     H220919   4.166   2.217   6.488
 6893WAT      O20920   8.877   4.635   9.589
 6893WAT     H120921   8.868   4.703   9.662
 6893WAT     H220922   8.892   4.680   9.502
 6894WAT      O20923   0.578   8.877   1.657
 6894WAT     H120924   0.587   8.777   1.651
 6894WAT     H220925   0.661   8.920   1.624
 6895WAT      O20926   6.820   5.467   3.198
 6895WAT     H120927   6.735   5.492   3.244
 6895WAT     H220928   6.820   5.504   3.105
 6896WAT      O20929   9.437   0.009   8.412
 6896WAT     H120930   9.412   0.032   8.318
 6896WAT     H220931   9.501  -0.068   8.412
 6897WAT      O20932   0.023   7.700   8.732
 6897WAT     H120933  -0.001   7.761   8.807
 6897WAT     H220934   0.019   7.749   8.645
 6898WAT      O20935   6.874   5.493   3.975
 6898WAT     H120936   6.867   5.404   3.930
 6898WAT     H220937   6.937   5.551   3.924
 6899WAT      O20938   0.613   4.610   2.854
 6899WAT     H120939   0.676   4.674   2.898
 6899WAT     H220940   0.643   4.516   2.872
 6900WAT      O20941   7.087   9.088   1.804
 6900WAT     H120942   7.042   9.177   1.797
 6900WAT     H220943   7.126   9.063   1.716
 6901WAT      O20944   8.153   0.164   9.490
 6901WAT     H120945   8.121   0.085   9.437
 6901WAT     H220946   8.134   0.149   9.587
 6902WAT      O20947   9.837   6.078   1.395
 6902WAT     H120948   9.804   6.001   1.449
 6902WAT     H220949   9.833   6.161   1.450
 6903WAT      O20950   3.876   8.259   4.850
 6903WAT     H120951   3.969   8.294   4.842
 6903WAT     H220952   3.822   8.287   4.771
 6904WAT      O20953   8.135   8.734   0.586
 6904WAT     H120954   8.178   8.823   0.602
 6904WAT     H220955   8.077   8.711   0.663
 6905WAT      O20956   9.717   3.479   6.987
 6905WAT     H120957   9.753   3.572   6.980
 6905WAT     H220958   9.790   3.417   7.017
 6906WAT      O20959   8.067   3.231   1.555
 6906WAT     H120960   8.103   3.324   1.562
 6906WAT     H220961   8.071   3.200   1.460
 6907WAT      O20962   2.097   2.224   2.737
 6907WAT     H120963   2.133   2.224   2.830
 6907WAT     H220964   2.161   2.176   2.676
 6908WAT      O20965   0.055   2.489   4.696
 6908WAT     H120966   0.094   2.524   4.782
 6908WAT     H220967   0.045   2.564   4.631
 6909WAT      O20968   9.097   8.335   2.632
 6909WAT     H120969   9.082   8.389   2.549
 6909WAT     H220970   9.161   8.384   2.692
 6910WAT      O20971   0.545   6.060   9.178
 6910WAT     H120972   0.608   6.057   9.255
 6910WAT     H220973   0.467   6.000   9.197
 6911WAT      O20974   5.312   2.601   2.741
 6911WAT     H120975   5.273   2.519   2.785
 6911WAT     H220976   5.410   2.606   2.760
 6912WAT      O20977   3.322   8.729   5.471
 6912WAT     H120978   3.265   8.764   5.545
 6912WAT     H220979   3.328   8.630   5.477
 6913WAT      O20980   9.058   2.484   3.965
 6913WAT     H120981   9.144   2.449   3.927
 6913WAT     H220982   8.981   2.435   3.924
 6914WAT      O20983   7.492   4.834   1.041
 6914WAT     H120984   7.558   4.868   1.108
 6914WAT     H220985   7.484   4.734   1.051
 6915WAT      O20986   1.413   2.625   0.881
 6915WAT     H120987   1.335   2.681   0.907
 6915WAT     H220988   1.451   2.581   0.962
 6916WAT      O20989   7.273   9.541   9.823
 6916WAT     H120990   7.247   9.604   9.896
 6916WAT     H220991   7.372   9.546   9.807
 6917WAT      O20992   2.318   0.454   4.883
 6917WAT     H120993   2.282   0.507   4.806
 6917WAT     H220994   2.397   0.501   4.922
 6918WAT      O20995   7.313   4.946   4.869
 6918WAT     H120996   7.216   4.960   4.893
 6918WAT     H220997   7.330   4.983   4.778
 6919WAT      O20998   0.681   8.941   0.435
 6919WAT     H120999   0.611   8.985   0.490
 6919WAT     H221000   0.700   8.997   0.354
 6920WAT      O21001   1.357   0.292   0.723
 6920WAT     H121002   1.308   0.210   0.692
 6920WAT     H221003   1.327   0.371   0.671
 6921WAT      O21004   5.107   6.627   5.482
 6921WAT     H121005   5.107   6.614   5.382
 6921WAT     H221006   5.014   6.640   5.514
 6922WAT      O21007   5.396   5.916   6.235
 6922WAT     H121008   5.479   5.970   6.221
 6922WAT     H221009   5.325   5.975   6.275
 6923WAT      O21010   0.105   4.690   8.155
 6923WAT     H121011   0.066   4.669   8.065
 6923WAT     H221012   0.090   4.614   8.217
 6924WAT      O21013   2.962   2.710   8.904
 6924WAT     H121014   2.985   2.756   8.819
 6924WAT     H221015   2.915   2.624   8.884
 6925WAT      O21016   8.629   3.725   5.771
 6925WAT     H121017   8.565   3.779   5.826
 6925WAT     H221018   8.702   3.785   5.737
 6926WAT      O21019   9.487   1.250   6.258
 6926WAT     H121020   9.510   1.253   6.355
 6926WAT     H221021   9.558   1.297   6.205
 6927WAT      O21022   0.133   6.466   3.248
 6927WAT     H121023   0.081   6.537   3.200
 6927WAT     H221024   0.106   6.466   3.344
 6928WAT      O21025   9.313   5.274   8.148
 6928WAT     H121026   9.278   5.239   8.235
 6928WAT     H221027   9.291   5.210   8.075
 6929WAT      O21028   1.817   3.974   7.449
 6929WAT     H121029   1.871   3.912   7.506
 6929WAT     H221030   1.722   3.942   7.446
 6930WAT      O21031   5.368   8.431   9.222
 6930WAT     H121032   5.414   8.480   9.296
 6930WAT     H221033   5.391   8.334   9.227
 6931WAT      O21034   0.014   7.664   7.893
 6931WAT     H121035   0.085   7.595   7.880
 6931WAT     H221036  -0.027   7.654   7.983
 6932WAT      O21037   6.249   7.914   6.672
 6932WAT     H121038   6.347   7.893   6.678
 6932WAT     H221039   6.202   7.840   6.624
 6933WAT      O21040   5.555   8.777   1.865
 6933WAT     H121041   5.521   8.687   1.837
 6933WAT     H221042   5.512   8.847   1.809
 6934WAT      O21043   9.393   8.747   9.143
 6934WAT     H121044   9.322   8.696   9.095
 6934WAT     H221045   9.352   8.798   9.219
 6935WAT      O21046   9.872   1.055   3.222
 6935WAT     H121047   9.950   1.107   3.187
 6935WAT     H221048   9.789   1.082   3.172
 6936WAT      O21049   5.874   1.779   4.195
 6936WAT     H121050   5.841   1.727   4.117
 6936WAT     H221051   5.956   1.829   4.170
 6937WAT      O21052   3.058   9.095   9.400
 6937WAT     H121053   3.069   9.131   9.307
 6937WAT     H221054   2.961   9.075   9.416
 6938WAT      O21055   6.412   7.124   6.947
 6938WAT     H121056   6.508   7.149   6.955
 6938WAT     H221057   6.356   7.195   6.990
 6939WAT      O21058   9.325   9.760   7.268
 6939WAT     H121059   9.292   9.808   7.350
 6939WAT     H221060   9.389   9.689   7.296
 6940WAT      O21061   2.215   0.992   8.676
 6940WAT     H121062   2.228   1.012   8.579
 6940WAT     H221063   2.233   1.074   8.729
 6941WAT      O21064   5.920   5.756   2.484
 6941WAT     H121065   6.008   5.715   2.458
 6941WAT     H221066   5.933   5.853   2.505
 6942WAT      O21067   1.990   3.215   1.587
 6942WAT     H121068   1.904   3.167   1.605
 6942WAT     H221069   2.049   3.158   1.530
 6943WAT      O21070   9.869   1.584   9.542
 6943WAT     H121071   9.799   1.655   9.535
 6943WAT     H221072   9.851   1.513   9.474
 6944WAT      O21073   9.056   8.460   4.743
 6944WAT     H121074   9.021   8.449   4.650
 6944WAT     H221075   9.155   8.447   4.744
 6945WAT      O21076   0.837   2.374   3.844
 6945WAT     H121077   0.773   2.343   3.914
 6945WAT     H221078   0.908   2.429   3.886
 6946WAT      O21079   4.662   6.340   8.595
 6946WAT     H121080   4.580   6.368   8.645
 6946WAT     H221081   4.643   6.342   8.497
 6947WAT      O21082   8.046   5.000   1.779
 6947WAT     H121083   8.087   5.056   1.851
 6947WAT     H221084   7.994   5.059   1.717
 6948WAT      O21085   8.200   6.981   6.003
 6948WAT     H121086   8.254   7.003   5.922
 6948WAT     H221087   8.178   7.064   6.053
 6949WAT      O21088   1.132   2.501   0.786
 6949WAT     H121089   1.122   2.520   0.884
 6949WAT     H221090   1.050   2.455   0.753
 6950WAT      O21091   1.463   4.655   9.787
 6950WAT     H121092   1.550   4.632   9.831
 6950WAT     H221093   1.429   4.742   9.823
 6951WAT      O21094   4.067   1.299   8.553
 6951WAT     H121095   3.974   1.263   8.558
 6951WAT     H221096   4.077   1.351   8.469
 6952WAT      O21097   5.195   0.348   1.110
 6952WAT     H121098   5.148   0.288   1.045
 6952WAT     H221099   5.133   0.372   1.184
 6953WAT      O21100   8.228   0.760   8.491
 6953WAT     H121101   8.183   0.673   8.474
 6953WAT     H221102   8.216   0.820   8.412
 6954WAT      O21103   3.234   8.339   3.682
 6954WAT     H121104   3.256   8.425   3.727
 6954WAT     H221105   3.250   8.263   3.745
 6955WAT      O21106   1.280   9.219   8.820
 6955WAT     H121107   1.307   9.310   8.790
 6955WAT     H221108   1.214   9.181   8.756
 6956WAT      O21109   8.051   4.286   2.474
 6956WAT     H121110   8.134   4.281   2.529
 6956WAT     H221111   7.994   4.361   2.508
 6957WAT      O21112   3.497   9.423   7.720
 6957WAT     H121113   3.408   9.468   7.715
 6957WAT     H221114   3.567   9.484   7.683
 6958WAT      O21115   0.021   8.668   1.325
 6958WAT     H121116  -0.051   8.649   1.392
 6958WAT     H221117  -0.008   8.743   1.265
 6959WAT      O21118   3.143   5.524   5.958
 6959WAT     H121119   3.078   5.591   5.991
 6959WAT     H221120   3.149   5.448   6.023
 6960WAT      O21121   4.917   6.915   2.717
 6960WAT     H121122   4.884   6.938   2.808
 6960WAT     H221123   4.995   6.974   2.694
 6961WAT      O21124   6.352   7.441   9.512
 6961WAT     H121125   6.429   7.484   9.560
 6961WAT     H221126   6.335   7.351   9.551
 6962WAT      O21127   5.729   9.567   5.588
 6962WAT     H121128   5.821   9.533   5.570
 6962WAT     H221129   5.673   9.557   5.506
 6963WAT      O21130   3.582   3.427   4.144
 6963WAT     H121131   3.521   3.395   4.072
 6963WAT     H221132   3.659   3.475   4.104
 6964WAT      O21133   2.216   3.641   8.898
 6964WAT     H121134   2.120   3.622   8.881
 6964WAT     H221135   2.262   3.662   8.811
 6965WAT      O21136   5.241   5.815   2.059
 6965WAT     H121137   5.329   5.830   2.015
 6965WAT     H221138   5.220   5.718   2.059
 6966WAT      O21139   6.968   8.205   0.769
 6966WAT     H121140   7.056   8.249   0.788
 6966WAT     H221141   6.894   8.265   0.801
 6967WAT      O21142   6.891   2.466   3.184
 6967WAT     H121143   6.795   2.492   3.187
 6967WAT     H221144   6.941   2.513   3.257
 6968WAT      O21145   2.881   4.838   4.299
 6968WAT     H121146   2.816   4.908   4.328
 6968WAT     H221147   2.956   4.831   4.365
 6969WAT      O21148   6.909   4.151   8.096
 6969WAT     H121149   6.812   4.168   8.078
 6969WAT     H221150   6.918   4.093   8.177
 6970WAT      O21151   0.852   6.907   6.894
 6970WAT     H121152   0.891   6.997   6.915
 6970WAT     H221153   0.924   6.847   6.858
 6971WAT      O21154   7.430   8.976   5.627
 6971WAT     H121155   7.435   9.071   5.656
 6971WAT     H221156   7.349   8.933   5.668
 6972WAT      O21157   1.347   2.991   7.245
 6972WAT     H121158   1.258   3.030   7.221
 6972WAT     H221159   1.350   2.894   7.221
 6973WAT      O21160   5.877   0.695   2.761
 6973WAT     H121161   5.930   0.777   2.738
 6973WAT     H221162   5.934   0.614   2.746
 6974WAT      O21163   6.206   1.691   6.775
 6974WAT     H121164   6.208   1.702   6.874
 6974WAT     H221165   6.295   1.715   6.737
 6975WAT      O21166   2.609   3.226   1.801
 6975WAT     H121167   2.641   3.180   1.884
 6975WAT     H221168   2.579   3.158   1.734
 6976WAT      O21169   4.555   6.200   2.585
 6976WAT     H121170   4.489   6.256   2.633
 6976WAT     H221171   4.572   6.116   2.637
 6977WAT      O21172   7.105   4.380   3.850
 6977WAT     H121173   7.021   4.392   3.796
 6977WAT     H221174   7.134   4.285   3.846
 6978WAT      O21175   9.367   6.255   8.958
 6978WAT     H121176   9.381   6.309   8.875
 6978WAT     H221177   9.412   6.300   9.035
 6979WAT      O21178   8.181   4.605   0.205
 6979WAT     H121179   8.239   4.621   0.125
 6979WAT     H221180   8.085   4.601   0.177
 6980WAT      O21181   0.870   3.327   9.622
 6980WAT     H121182   0.959   3.322   9.667
 6980WAT     H221183   0.803   3.274   9.675
 6981WAT      O21184   5.112   4.402   5.502
 6981WAT     H121185   5.021   4.424   5.538
 6981WAT     H221186   5.150   4.483   5.457
 6982WAT      O21187   5.620   5.829   1.014
 6982WAT     H121188   5.696   5.825   0.949
 6982WAT     H221189   5.551   5.894   0.982
 6983WAT      O21190   3.768   3.900   0.208
 6983WAT     H121191   3.737   3.964   0.279
 6983WAT     H221192   3.823   3.949   0.141
 6984WAT      O21193   1.186   7.110   9.711
 6984WAT     H121194   1.264   7.058   9.678
 6984WAT     H221195   1.202   7.138   9.806
 6985WAT      O21196   8.191   1.765   7.239
 6985WAT     H121197   8.199   1.668   7.258
 6985WAT     H221198   8.196   1.780   7.141
 6986WAT      O21199   1.499   6.627   0.400
 6986WAT     H121200   1.500   6.700   0.332
 6986WAT     H221201   1.405   6.615   0.434
 6987WAT      O21202   6.507   0.352   6.809
 6987WAT     H121203   6.532   0.336   6.905
 6987WAT     H221204   6.589   0.374   6.756
 6988WAT      O21205   5.306   5.119   1.047
 6988WAT     H121206   5.392   5.168   1.035
 6988WAT     H221207   5.306   5.036   0.991
 6989WAT      O21208   5.855   0.237   0.933
 6989WAT     H121209   5.893   0.329   0.936
 6989WAT     H221210   5.885   0.186   1.014
 6990WAT      O21211   8.385   7.344   2.098
 6990WAT     H121212   8.441   7.285   2.040
 6990WAT     H221213   8.412   7.331   2.193
 6991WAT      O21214   0.229   6.290   6.555
 6991WAT     H121215   0.158   6.299   6.625
 6991WAT     H221216   0.266   6.380   6.532
 6992WAT      O21217   7.916   1.055   3.015
 6992WAT     H121218   7.888   1.088   3.106
 6992WAT     H221219   7.955   1.132   2.963
 6993WAT      O21220   7.862   1.674   3.699
 6993WAT     H121221   7.814   1.602   3.649
 6993WAT     H221222   7.796   1.727   3.753
 6994WAT      O21223   6.220   2.846   8.937
 6994WAT     H121224   6.287   2.870   9.007
 6994WAT     H221225   6.144   2.912   8.940
 6995WAT      O21226   6.666   8.712   6.688
 6995WAT     H121227   6.734   8.781   6.712
 6995WAT     H221228   6.599   8.704   6.762
 6996WAT      O21229   1.221   2.778   0.188
 6996WAT     H121230   1.310   2.734   0.175
 6996WAT     H221231   1.164   2.722   0.248
 6997WAT      O21232   0.565   1.980   7.579
 6997WAT     H121233   0.516   1.897   7.607
 6997WAT     H221234   0.542   2.054   7.642
 6998WAT      O21235   3.247   5.489   2.555
 6998WAT     H121236   3.342   5.470   2.581
 6998WAT     H221237   3.215   5.570   2.603
 6999WAT      O21238   6.471   7.645   0.647
 6999WAT     H121239   6.487   7.645   0.549
 6999WAT     H221240   6.530   7.714   0.691
 7000WAT      O21241   9.236   5.193   5.844
 7000WAT     H121242   9.139   5.168   5.842
 7000WAT     H221243   9.268   5.195   5.939
 7001WAT      O21244   8.785   7.614   3.159
 7001WAT     H121245   8.843   7.669   3.220
 7001WAT     H221246   8.698   7.660   3.146
 7002WAT      O21247   4.657   2.555   0.973
 7002WAT     H121248   4.568   2.514   0.951
 7002WAT     H221249   4.647   2.613   1.054
 7003WAT      O21250   3.120   6.478   9.818
 7003WAT     H121251   3.190   6.500   9.886
 7003WAT     H221252   3.069   6.560   9.795
 7004WAT      O21253   3.520   8.616   3.566
 7004WAT     H121254   3.542   8.518   3.565
 7004WAT     H221255   3.583   8.664   3.505
 7005WAT      O21256   2.602   7.955   8.160
 7005WAT     H121257   2.614   7.879   8.224
 7005WAT     H221258   2.621   8.041   8.207
 7006WAT      O21259   1.891   8.386   1.382
 7006WAT     H121260   1.878   8.314   1.314
 7006WAT     H221261   1.822   8.457   1.368
 7007WAT      O21262   5.501   0.655   4.201
 7007WAT     H121263   5.527   0.560   4.218
 7007WAT     H221264   5.416   0.676   4.249
 7008WAT      O21265   7.182   7.895   6.510
 7008WAT     H121266   7.155   7.989   6.486
 7008WAT     H221267   7.105   7.834   6.496
 7009WAT      O21268   5.714   1.493   7.548
 7009WAT     H121269   5.743   1.501   7.644
 7009WAT     H221270   5.648   1.419   7.540
 7010WAT      O21271   7.484   3.251   4.951
 7010WAT     H121272   7.428   3.284   5.027
 7010WAT     H221273   7.573   3.220   4.986
 7011WAT      O21274   9.440   2.168   1.194
 7011WAT     H121275   9.539   2.173   1.191
 7011WAT     H221276   9.406   2.234   1.262
 7012WAT      O21277   7.461   7.092   1.258
 7012WAT     H121278   7.498   7.080   1.350
 7012WAT     H221279   7.501   7.024   1.197
 7013WAT      O21280   0.189   7.767   5.149
 7013WAT     H121281   0.223   7.851   5.106
 7013WAT     H221282   0.226   7.687   5.101
 7014WAT      O21283   0.347   3.951   6.417
 7014WAT     H121284   0.418   4.020   6.425
 7014WAT     H221285   0.388   3.864   6.388
 7015WAT      O21286   2.116   5.827   1.686
 7015WAT     H121287   2.059   5.752   1.654
 7015WAT     H221288   2.213   5.802   1.676
 7016WAT      O21289   7.105   0.605   2.723
 7016WAT     H121290   7.033   0.587   2.657
 7016WAT     H221291   7.068   0.599   2.816
 7017WAT      O21292   0.695   7.131   6.566
 7017WAT     H121293   0.655   7.214   6.604
 7017WAT     H221294   0.687   7.133   6.466
 7018WAT      O21295   5.111   4.399   7.742
 7018WAT     H121296   5.157   4.359   7.663
 7018WAT     H221297   5.076   4.490   7.717
 7019WAT      O21298   2.444   7.471   2.391
 7019WAT     H121299   2.526   7.466   2.447
 7019WAT     H221300   2.368   7.427   2.438
 7020WAT      O21301   6.490   2.691   9.482
 7020WAT     H121302   6.449   2.740   9.559
 7020WAT     H221303   6.589   2.701   9.485
 7021WAT      O21304   8.704   2.940   0.673
 7021WAT     H121305   8.706   2.864   0.609
 7021WAT     H221306   8.725   3.025   0.625
 7022WAT      O21307   0.018   9.627   4.586
 7022WAT     H121308  -0.010   9.638   4.681
 7022WAT     H221309   0.055   9.535   4.574
 7023WAT      O21310   5.133   3.153   7.680
 7023WAT     H121311   5.119   3.252   7.675
 7023WAT     H221312   5.145   3.126   7.776
 7024WAT      O21313   5.462   7.745   8.288
 7024WAT     H121314   5.549   7.713   8.324
 7024WAT     H221315   5.477   7.828   8.234
 7025WAT      O21316   6.307   2.317   0.234
 7025WAT     H121317   6.337   2.239   0.289
 7025WAT     H221318   6.344   2.309   0.142
 7026WAT      O21319   3.616   6.390   0.192
 7026WAT     H121320   3.582   6.429   0.106
 7026WAT     H221321   3.697   6.335   0.173
 7027WAT      O21322   8.146   6.947   1.332
 7027WAT     H121323   8.095   6.988   1.408
 7027WAT     H221324   8.115   6.988   1.246
 7028WAT      O21325   3.647   7.035   5.419
 7028WAT     H121326   3.669   7.105   5.351
 7028WAT     H221327   3.601   7.079   5.497
 7029WAT      O21328   1.595   5.049   7.066
 7029WAT     H121329   1.680   5.090   7.034
 7029WAT     H221330   1.614   4.958   7.105
 7030WAT      O21331   8.107   7.954   6.733
 7030WAT     H121332   8.183   7.969   6.797
 7030WAT     H221333   8.022   7.984   6.776
 7031WAT      O21334   9.209   6.000   3.280
 7031WAT     H121335   9.186   5.913   3.325
 7031WAT     H221336   9.294   5.989   3.229
 7032WAT      O21337   9.593   2.207   1.602
 7032WAT     H121338   9.653   2.222   1.680
 7032WAT     H221339   9.564   2.296   1.564
 7033WAT      O21340   3.142   3.637   6.098
 7033WAT     H121341   3.122   3.717   6.155
 7033WAT     H221342   3.200   3.664   6.022
 7034WAT      O21343   2.345   6.723   0.708
 7034WAT     H121344   2.373   6.804   0.759
 7034WAT     H221345   2.417   6.697   0.643
 7035WAT      O21346   1.002   1.274   0.497
 7035WAT     H121347   1.093   1.308   0.473
 7035WAT     H221348   0.940   1.287   0.419
 7036WAT      O21349   3.093   0.719   4.338
 7036WAT     H121350   3.045   0.638   4.306
 7036WAT     H221351   3.136   0.766   4.261
 7037WAT      O21352   2.328   4.326   5.868
 7037WAT     H121353   2.388   4.376   5.931
 7037WAT     H221354   2.294   4.388   5.798
 7038WAT      O21355   1.684   6.608   5.211
 7038WAT     H121356   1.706   6.511   5.195
 7038WAT     H221357   1.585   6.618   5.217
 7039WAT      O21358   3.942   0.344   5.976
 7039WAT     H121359   3.935   0.429   6.028
 7039WAT     H221360   3.964   0.269   6.039
 7040WAT      O21361   8.410   4.665   1.889
 7040WAT     H121362   8.355   4.677   1.972
 7040WAT     H221363   8.432   4.755   1.850
 7041WAT      O21364   7.267   9.335   7.370
 7041WAT     H121365   7.212   9.269   7.318
 7041WAT     H221366   7.206   9.402   7.412
 7042WAT      O21367   9.303   5.042   1.580
 7042WAT     H121368   9.336   5.004   1.494
 7042WAT     H221369   9.295   5.142   1.571
 7043WAT      O21370   8.126   7.934   8.242
 7043WAT     H121371   8.112   7.868   8.169
 7043WAT     H221372   8.202   7.995   8.219
 7044WAT      O21373   1.309   6.829   9.164
 7044WAT     H121374   1.378   6.795   9.227
 7044WAT     H221375   1.299   6.765   9.088
 7045WAT      O21376   4.379   8.077   8.388
 7045WAT     H121377   4.405   8.136   8.464
 7045WAT     H221378   4.317   8.127   8.327
 7046WAT      O21379   4.819   9.188   7.251
 7046WAT     H121380   4.729   9.145   7.241
 7046WAT     H221381   4.857   9.208   7.160
 7047WAT      O21382   2.079   7.763   1.736
 7047WAT     H121383   2.033   7.786   1.822
 7047WAT     H221384   2.091   7.846   1.681
 7048WAT      O21385   5.388   8.183   5.787
 7048WAT     H121386   5.397   8.240   5.869
 7048WAT     H221387   5.478   8.170   5.746
 7049WAT      O21388   0.289   3.246   3.601
 7049WAT     H121389   0.277   3.329   3.546
 7049WAT     H221390   0.201   3.218   3.638
 7050WAT      O21391   2.657   9.614   4.880
 7050WAT     H121392   2.680   9.697   4.930
 7050WAT     H221393   2.566   9.582   4.907
 7051WAT      O21394   6.311   6.183   2.029
 7051WAT     H121395   6.284   6.189   2.125
 7051WAT     H221396   6.242   6.227   1.972
 7052WAT      O21397   3.178   4.347   3.893
 7052WAT     H121398   3.213   4.297   3.814
 7052WAT     H221399   3.136   4.282   3.957
 7053WAT      O21400   0.589   1.017   4.694
 7053WAT     H121401   0.666   0.966   4.655
 7053WAT     H221402   0.537   1.059   4.619
 7054WAT      O21403   4.320   9.712   2.994
 7054WAT     H121404   4.352   9.728   3.087
 7054WAT     H221405   4.283   9.797   2.956
 7055WAT      O21406   4.242   5.471   0.623
 7055WAT     H121407   4.153   5.475   0.670
 7055WAT     H221408   4.287   5.385   0.644
 7056WAT      O21409   5.006   1.559   2.729
 7056WAT     H121410   5.032   1.644   2.775
 7056WAT     H221411   4.907   1.560   2.712
 7057WAT      O21412   2.267   0.349   7.703
 7057WAT     H121413   2.283   0.262   7.749
 7057WAT     H221414   2.352   0.382   7.664
 7058WAT      O21415   7.032   6.396   2.146
 7058WAT     H121416   6.936   6.416   2.128
 7058WAT     H221417   7.054   6.421   2.240
 7059WAT      O21418   8.806   1.112   0.755
 7059WAT     H121419   8.905   1.113   0.744
 7059WAT     H221420   8.763   1.113   0.664
 7060WAT      O21421   0.308   6.729   3.093
 7060WAT     H121422   0.355   6.780   3.021
 7060WAT     H221423   0.321   6.631   3.079
 7061WAT      O21424   6.502   8.404   3.354
 7061WAT     H121425   6.505   8.503   3.366
 7061WAT     H221426   6.483   8.382   3.258
 7062WAT      O21427   9.660   8.338   5.733
 7062WAT     H121428   9.625   8.428   5.760
 7062WAT     H221429   9.744   8.319   5.784
 7063WAT      O21430   3.908   2.012   4.965
 7063WAT     H121431   3.816   2.002   5.002
 7063WAT     H221432   3.918   1.955   4.883
 7064WAT      O21433   4.921   3.038   8.077
 7064WAT     H121434   4.909   2.941   8.098
 7064WAT     H221435   5.015   3.054   8.046
 7065WAT      O21436   6.588   8.747   1.037
 7065WAT     H121437   6.490   8.726   1.031
 7065WAT     H221438   6.600   8.846   1.047
 7066WAT      O21439   0.694   8.043   5.722
 7066WAT     H121440   0.728   7.952   5.697
 7066WAT     H221441   0.770   8.107   5.728
 7067WAT      O21442   4.651   6.473   5.036
 7067WAT     H121443   4.675   6.405   4.967
 7067WAT     H221444   4.569   6.444   5.085
 7068WAT      O21445   8.203   1.873   1.373
 7068WAT     H121446   8.118   1.921   1.396
 7068WAT     H221447   8.185   1.806   1.302
 7069WAT      O21448   4.561   5.279   3.009
 7069WAT     H121449   4.467   5.274   2.975
 7069WAT     H221450   4.623   5.300   2.932
 7070WAT      O21451   7.319   1.800   9.363
 7070WAT     H121452   7.327   1.717   9.309
 7070WAT     H221453   7.224   1.830   9.366
 7071WAT      O21454   8.725   6.279   3.057
 7071WAT     H121455   8.818   6.280   3.020
 7071WAT     H221456   8.685   6.188   3.045
 7072WAT      O21457   0.181   1.430   1.979
 7072WAT     H121458   0.208   1.337   2.003
 7072WAT     H221459   0.228   1.495   2.039
 7073WAT      O21460   4.233   2.307   2.249
 7073WAT     H121461   4.144   2.344   2.277
 7073WAT     H221462   4.267   2.359   2.170
 7074WAT      O21463   2.209   4.716   7.593
 7074WAT     H121464   2.241   4.682   7.504
 7074WAT     H221465   2.203   4.640   7.657
 7075WAT      O21466   2.055   1.045   9.010
 7075WAT     H121467   2.027   0.954   8.981
 7075WAT     H221468   1.974   1.100   9.031
 7076WAT      O21469   7.652   4.204   4.150
 7076WAT     H121470   7.660   4.297   4.187
 7076WAT     H221471   7.572   4.159   4.189
 7077WAT      O21472   2.645   4.442   9.896
 7077WAT     H121473   2.654   4.439   9.797
 7077WAT     H221474   2.549   4.430   9.922
 7078WAT      O21475   6.590   4.956   7.910
 7078WAT     H121476   6.523   4.960   7.836
 7078WAT     H221477   6.542   4.939   7.996
 7079WAT      O21478   7.872   7.008   8.882
 7079WAT     H121479   7.821   6.937   8.832
 7079WAT     H221480   7.887   6.978   8.976
 7080WAT      O21481   6.347   7.974   1.549
 7080WAT     H121482   6.272   8.026   1.508
 7080WAT     H221483   6.433   7.999   1.503
 7081WAT      O21484   1.043   6.375   4.422
 7081WAT     H121485   1.000   6.384   4.332
 7081WAT     H221486   1.007   6.445   4.483
 7082WAT      O21487   8.792   8.659   0.753
 7082WAT     H121488   8.834   8.683   0.665
 7082WAT     H221489   8.755   8.567   0.748
 7083WAT      O21490   5.267   0.571   5.580
 7083WAT     H121491   5.198   0.582   5.652
 7083WAT     H221492   5.225   0.583   5.491
 7084WAT      O21493   4.221   0.469   0.110
 7084WAT     H121494   4.183   0.503   0.024
 7084WAT     H221495   4.175   0.383   0.135
 7085WAT      O21496   8.328   7.223   1.569
 7085WAT     H121497   8.394   7.195   1.639
 7085WAT     H221498   8.366   7.205   1.478
 7086WAT      O21499   8.850   4.527   2.323
 7086WAT     H121500   8.792   4.466   2.270
 7086WAT     H221501   8.820   4.622   2.311
 7087WAT      O21502   1.233   0.730   5.286
 7087WAT     H121503   1.161   0.662   5.272
 7087WAT     H221504   1.192   0.821   5.288
 7088WAT      O21505   4.859   2.159   7.389
 7088WAT     H121506   4.959   2.162   7.387
 7088WAT     H221507   4.824   2.124   7.303
 7089WAT      O21508   4.438   6.178   8.870
 7089WAT     H121509   4.354   6.153   8.919
 7089WAT     H221510   4.455   6.111   8.798
 7090WAT      O21511   3.575   9.715   1.262
 7090WAT     H121512   3.538   9.651   1.195
 7090WAT     H221513   3.672   9.697   1.275
 7091WAT      O21514   4.137   2.078   1.993
 7091WAT     H121515   4.220   2.131   2.013
 7091WAT     H221516   4.161   1.981   1.990
 7092WAT      O21517   1.687   7.327   4.751
 7092WAT     H121518   1.784   7.317   4.773
 7092WAT     H221519   1.651   7.407   4.798
 7093WAT      O21520   0.655   5.742   6.552
 7093WAT     H121521   0.698   5.661   6.513
 7093WAT     H221522   0.724   5.800   6.595
 7094WAT      O21523   3.405   3.224   2.949
 7094WAT     H121524   3.425   3.157   3.020
 7094WAT     H221525   3.469   3.301   2.958
 7095WAT      O21526   7.300   1.931   6.666
 7095WAT     H121527   7.208   1.894   6.669
 7095WAT     H221528   7.301   2.023   6.704
 7096WAT      O21529   7.172   2.251   3.804
 7096WAT     H121530   7.122   2.185   3.748
 7096WAT     H221531   7.223   2.203   3.875
 7097WAT      O21532   2.020   6.023   4.429
 7097WAT     H121533   1.974   6.055   4.512
 7097WAT     H221534   2.119   6.034   4.440
 7098WAT      O21535   1.210   3.293   4.308
 7098WAT     H121536   1.151   3.212   4.302
 7098WAT     H221537   1.305   3.264   4.317
 7099WAT      O21538   5.157   7.328   3.168
 7099WAT     H121539   5.178   7.412   3.218
 7099WAT     H221540   5.062   7.301   3.187
 7100WAT      O21541   3.547   7.667   8.018
 7100WAT     H121542   3.638   7.648   7.981
 7100WAT     H221543   3.510   7.750   7.976
 7101WAT      O21544   1.506   8.594   1.564
 7101WAT     H121545   1.499   8.686   1.603
 7101WAT     H221546   1.424   8.542   1.588
 7102WAT      O21547   2.521   1.615   0.066
 7102WAT     H121548   2.542   1.663  -0.019
 7102WAT     H221549   2.604   1.603   0.119
 7103WAT      O21550   9.656   0.511   5.833
 7103WAT     H121551   9.634   0.568   5.754
 7103WAT     H221552   9.752   0.525   5.858
 7104WAT      O21553   2.007   6.557   6.474
 7104WAT     H121554   1.960   6.640   6.444
 7104WAT     H221555   1.943   6.497   6.522
 7105WAT      O21556   4.540   8.916   4.949
 7105WAT     H121557   4.590   8.977   4.887
 7105WAT     H221558   4.589   8.907   5.035
 7106WAT      O21559   1.402   1.153   1.503
 7106WAT     H121560   1.404   1.053   1.509
 7106WAT     H221561   1.334   1.181   1.435
 7107WAT      O21562   9.408   9.426   2.297
 7107WAT     H121563   9.424   9.330   2.274
 7107WAT     H221564   9.496   9.473   2.307
 7108WAT      O21565   9.045   3.901   8.734
 7108WAT     H121566   9.079   3.964   8.664
 7108WAT     H221567   9.025   3.812   8.692
 7109WAT      O21568   3.877   8.801   5.332
 7109WAT     H121569   3.812   8.781   5.258
 7109WAT     H221570   3.970   8.782   5.300
 7110WAT      O21571   2.398   6.212   6.427
 7110WAT     H121572   2.341   6.293   6.414
 7110WAT     H221573   2.341   6.130   6.424
 7111WAT      O21574   1.280   4.667   4.665
 7111WAT     H121575   1.203   4.603   4.667
 7111WAT     H221576   1.336   4.648   4.584
 7112WAT      O21577   3.621   8.716   5.667
 7112WAT     H121578   3.604   8.627   5.710
 7112WAT     H221579   3.542   8.775   5.681
 7113WAT      O21580   3.498   1.134   2.083
 7113WAT     H121581   3.449   1.070   2.024
 7113WAT     H221582   3.576   1.172   2.034
 7114WAT      O21583   2.937   4.726   6.809
 7114WAT     H121584   3.037   4.718   6.810
 7114WAT     H221585   2.908   4.792   6.878
 7115WAT      O21586   9.353   5.164   0.113
 7115WAT     H121587   9.448   5.150   0.140
 7115WAT     H221588   9.323   5.254   0.141
 7116WAT      O21589   0.724   4.176   9.054
 7116WAT     H121590   0.739   4.193   9.152
 7116WAT     H221591   0.803   4.210   9.003
 7117WAT      O21592   3.837   6.662   1.587
 7117WAT     H121593   3.921   6.639   1.637
 7117WAT     H221594   3.835   6.611   1.501
 7118WAT      O21595   9.111   0.764   8.391
 7118WAT     H121596   9.162   0.718   8.318
 7118WAT     H221597   9.019   0.786   8.359
 7119WAT      O21598   8.634   4.365   2.843
 7119WAT     H121599   8.666   4.442   2.898
 7119WAT     H221600   8.564   4.397   2.780
 7120WAT      O21601   6.923   0.137   1.715
 7120WAT     H121602   6.957   0.232   1.718
 7120WAT     H221603   6.987   0.078   1.764
 7121WAT      O21604   0.692   2.925   7.110
 7121WAT     H121605   0.675   3.023   7.100
 7121WAT     H221606   0.627   2.873   7.055
 7122WAT      O21607   7.819   9.085   2.446
 7122WAT     H121608   7.750   9.059   2.513
 7122WAT     H221609   7.805   9.034   2.361
 7123WAT      O21610   2.332   5.758   3.533
 7123WAT     H121611   2.430   5.741   3.521
 7123WAT     H221612   2.317   5.854   3.554
 7124WAT      O21613   9.061   5.958   8.276
 7124WAT     H121614   9.050   5.922   8.183
 7124WAT     H221615   9.127   6.033   8.275
 7125WAT      O21616   4.714   1.361   8.799
 7125WAT     H121617   4.806   1.398   8.803
 7125WAT     H221618   4.717   1.262   8.812
 7126WAT      O21619   1.346   2.427   0.125
 7126WAT     H121620   1.397   2.512   0.138
 7126WAT     H221621   1.344   2.376   0.211
 7127WAT      O21622   2.628   1.625   2.584
 7127WAT     H121623   2.550   1.566   2.604
 7127WAT     H221624   2.598   1.702   2.527
 7128WAT      O21625   3.752   0.069   5.448
 7128WAT     H121626   3.671   0.016   5.424
 7128WAT     H221627   3.798   0.028   5.526
 7129WAT      O21628   8.078   9.772   5.439
 7129WAT     H121629   8.042   9.776   5.533
 7129WAT     H221630   8.015   9.820   5.378
 7130WAT      O21631   8.822   1.162   4.334
 7130WAT     H121632   8.828   1.063   4.332
 7130WAT     H221633   8.895   1.199   4.391
 7131WAT      O21634   5.760   6.928   1.101
 7131WAT     H121635   5.775   6.831   1.082
 7131WAT     H221636   5.662   6.948   1.099
 7132WAT      O21637   2.143   3.175   0.872
 7132WAT     H121638   2.099   3.189   0.960
 7132WAT     H221639   2.196   3.090   0.873
 7133WAT      O21640   8.143   8.310   8.706
 7133WAT     H121641   8.208   8.246   8.665
 7133WAT     H221642   8.154   8.308   8.806
 7134WAT      O21643   0.152   5.547   0.258
 7134WAT     H121644   0.188   5.524   0.348
 7134WAT     H221645   0.082   5.619   0.267
 7135WAT      O21646   5.131   2.851   9.351
 7135WAT     H121647   5.214   2.901   9.328
 7135WAT     H221648   5.059   2.875   9.286
 7136WAT      O21649   8.372   3.407   7.265
 7136WAT     H121650   8.419   3.326   7.301
 7136WAT     H221651   8.434   3.485   7.267
 7137WAT      O21652   4.742   6.406   6.686
 7137WAT     H121653   4.710   6.455   6.767
 7137WAT     H221654   4.808   6.462   6.636
 7138WAT      O21655   5.027   5.293   1.881
 7138WAT     H121656   5.092   5.236   1.830
 7138WAT     H221657   4.935   5.255   1.870
 7139WAT      O21658   4.650   1.279   6.595
 7139WAT     H121659   4.729   1.332   6.626
 7139WAT     H221660   4.648   1.277   6.495
 7140WAT      O21661   7.320   4.856   5.298
 7140WAT     H121662   7.335   4.850   5.199
 7140WAT     H221663   7.357   4.942   5.332
 7141WAT      O21664   8.638   3.398   0.644
 7141WAT     H121665   8.635   3.318   0.585
 7141WAT     H221666   8.629   3.370   0.740
 7142WAT      O21667   6.744   1.183   7.823
 7142WAT     H121668   6.687   1.249   7.873
 7142WAT     H221669   6.807   1.233   7.763
 7143WAT      O21670   1.903   6.092   2.457
 7143WAT     H121671   1.806   6.112   2.464
 7143WAT     H221672   1.941   6.137   2.376
 7144WAT      O21673   9.418   4.813   9.043
 7144WAT     H121674   9.374   4.796   8.955
 7144WAT     H221675   9.449   4.726   9.082
 7145WAT      O21676   4.765   7.918   4.050
 7145WAT     H121677   4.691   7.877   4.102
 7145WAT     H221678   4.750   8.017   4.043
 7146WAT      O21679   2.655   2.268   2.550
 7146WAT     H121680   2.644   2.259   2.649
 7146WAT     H221681   2.680   2.179   2.511
 7147WAT      O21682   3.515   6.000   9.585
 7147WAT     H121683   3.590   6.065   9.574
 7147WAT     H221684   3.431   6.041   9.549
 7148WAT      O21685   9.370   6.103   6.001
 7148WAT     H121686   9.422   6.057   6.073
 7148WAT     H221687   9.317   6.178   6.042
 7149WAT      O21688   0.086   3.476   2.668
 7149WAT     H121689   0.058   3.410   2.737
 7149WAT     H221690   0.181   3.502   2.682
 7150WAT      O21691   1.947   3.379   0.982
 7150WAT     H121692   2.032   3.429   0.961
 7150WAT     H221693   1.962   3.320   1.061
 7151WAT      O21694   2.436   5.198   8.490
 7151WAT     H121695   2.389   5.243   8.566
 7151WAT     H221696   2.466   5.267   8.424
 7152WAT      O21697   5.170   0.920   8.016
 7152WAT     H121698   5.133   0.956   7.931
 7152WAT     H221699   5.257   0.965   8.037
 7153WAT      O21700   6.821   1.579   8.543
 7153WAT     H121701   6.722   1.590   8.547
 7153WAT     H221702   6.853   1.529   8.623
 7154WAT      O21703   5.846   4.342   8.743
 7154WAT     H121704   5.933   4.305   8.711
 7154WAT     H221705   5.842   4.440   8.721
 7155WAT      O21706   1.918   5.786   4.807
 7155WAT     H121707   1.819   5.776   4.817
 7155WAT     H221708   1.950   5.726   4.735
 7156WAT      O21709   7.588   9.149   4.558
 7156WAT     H121710   7.593   9.199   4.472
 7156WAT     H221711   7.617   9.054   4.544
 7157WAT      O21712   3.242   0.531   3.896
 7157WAT     H121713   3.266   0.627   3.909
 7157WAT     H221714   3.311   0.487   3.839
 7158WAT      O21715   5.536   8.394   7.741
 7158WAT     H121716   5.522   8.462   7.812
 7158WAT     H221717   5.447   8.361   7.709
 7159WAT      O21718   1.916   6.100   9.152
 7159WAT     H121719   1.819   6.078   9.151
 7159WAT     H221720   1.963   6.048   9.081
 7160WAT      O21721   6.452   6.303   6.815
 7160WAT     H121722   6.526   6.267   6.759
 7160WAT     H221723   6.370   6.315   6.758
 7161WAT      O21724   4.553   9.119   7.285
 7161WAT     H121725   4.501   9.143   7.203
 7161WAT     H221726   4.555   9.197   7.347
 7162WAT      O21727   0.734   2.664   5.595
 7162WAT     H121728   0.699   2.716   5.517
 7162WAT     H221729   0.661   2.606   5.632
 7163WAT      O21730   1.117   9.104   5.866
 7163WAT     H121731   1.164   9.178   5.914
 7163WAT     H221732   1.041   9.142   5.813
 7164WAT      O21733   9.525   2.384   2.931
 7164WAT     H121734   9.618   2.413   2.953
 7164WAT     H221735   9.472   2.373   3.015
 7165WAT      O21736   7.786   3.007   8.478
 7165WAT     H121737   7.784   3.099   8.517
 7165WAT     H221738   7.763   2.940   8.548
 7166WAT      O21739   8.294   4.168   8.859
 7166WAT     H121740   8.301   4.228   8.938
 7166WAT     H221741   8.213   4.193   8.805
 7167WAT      O21742   2.393   4.386   4.931
 7167WAT     H121743   2.398   4.467   4.990
 7167WAT     H221744   2.483   4.345   4.922
 7168WAT      O21745   7.130   7.010   6.607
 7168WAT     H121746   7.170   7.033   6.696
 7168WAT     H221747   7.196   7.028   6.534
 7169WAT      O21748   2.346   3.314   8.240
 7169WAT     H121749   2.442   3.287   8.250
 7169WAT     H221750   2.337   3.412   8.258
 7170WAT      O21751   1.020   3.964   0.671
 7170WAT     H121752   0.975   3.955   0.760
 7170WAT     H221753   0.966   4.025   0.612
 7171WAT      O21754   3.984   1.162   0.813
 7171WAT     H121755   4.071   1.179   0.765
 7171WAT     H221756   3.973   1.064   0.828
 7172WAT      O21757   4.919   9.400   8.903
 7172WAT     H121758   4.930   9.479   8.963
 7172WAT     H221759   4.886   9.322   8.956
 7173WAT      O21760   3.189   0.465   8.141
 7173WAT     H121761   3.243   0.475   8.225
 7173WAT     H221762   3.126   0.389   8.151
 7174WAT      O21763   4.199   8.626   9.563
 7174WAT     H121764   4.138   8.705   9.559
 7174WAT     H221765   4.294   8.656   9.558
 7175WAT      O21766   7.543   6.432   4.852
 7175WAT     H121767   7.565   6.337   4.833
 7175WAT     H221768   7.474   6.465   4.787
 7176WAT      O21769   2.352   7.664   9.385
 7176WAT     H121770   2.293   7.599   9.433
 7176WAT     H221771   2.430   7.686   9.443
 7177WAT      O21772   4.878   7.347   3.067
 7177WAT     H121773   4.799   7.407   3.050
 7177WAT     H221774   4.856   7.285   3.142
 7178WAT      O21775   2.999   0.196   8.639
 7178WAT     H121776   2.901   0.218   8.634
 7178WAT     H221777   3.010   0.096   8.645
 7179WAT      O21778   2.189   7.969   9.733
 7179WAT     H121779   2.216   7.932   9.644
 7179WAT     H221780   2.106   8.023   9.722
 7180WAT      O21781   8.724   8.672   4.411
 7180WAT     H121782   8.641   8.623   4.384
 7180WAT     H221783   8.699   8.754   4.463
 7181WAT      O21784   8.622   8.488   4.658
 7181WAT     H121785   8.565   8.428   4.602
 7181WAT     H221786   8.618   8.459   4.753
 7182WAT      O21787   0.974   4.712   7.105
 7182WAT     H121788   1.026   4.652   7.045
 7182WAT     H221789   1.033   4.741   7.181
 7183WAT      O21790   3.382   8.348   3.060
 7183WAT     H121791   3.381   8.367   3.158
 7183WAT     H221792   3.472   8.315   3.034
 7184WAT      O21793   2.025   6.388   6.794
 7184WAT     H121794   2.017   6.347   6.885
 7184WAT     H221795   2.093   6.462   6.797
 7185WAT      O21796   3.578   8.681   3.859
 7185WAT     H121797   3.672   8.651   3.848
 7185WAT     H221798   3.522   8.644   3.785
 7186WAT      O21799   7.703   8.018   7.874
 7186WAT     H121800   7.691   7.927   7.835
 7186WAT     H221801   7.616   8.067   7.873
 7187WAT      O21802   8.726   7.003   7.688
 7187WAT     H121803   8.775   6.917   7.674
 7187WAT     H221804   8.633   6.983   7.721
 7188WAT      O21805   4.674   2.315   0.650
 7188WAT     H121806   4.769   2.346   0.656
 7188WAT     H221807   4.670   2.218   0.673
 7189WAT      O21808   3.499   5.409   7.050
 7189WAT     H121809   3.588   5.446   7.022
 7189WAT     H221810   3.469   5.455   7.134
 7190WAT      O21811   7.128   4.799   1.285
 7190WAT     H121812   7.050   4.788   1.347
 7190WAT     H221813   7.155   4.896   1.284
 7191WAT      O21814   2.519   4.319   3.400
 7191WAT     H121815   2.474   4.328   3.489
 7191WAT     H221816   2.456   4.275   3.336
 7192WAT      O21817   3.146   1.004   9.006
 7192WAT     H121818   3.081   1.022   9.081
 7192WAT     H221819   3.133   0.911   8.973
 7193WAT      O21820   5.068   4.641   0.607
 7193WAT     H121821   5.048   4.630   0.704
 7193WAT     H221822   5.018   4.719   0.570
 7194WAT      O21823   1.487   8.842   3.244
 7194WAT     H121824   1.439   8.867   3.328
 7194WAT     H221825   1.433   8.773   3.195
 7195WAT      O21826   3.173   2.441   8.370
 7195WAT     H121827   3.129   2.372   8.313
 7195WAT     H221828   3.261   2.407   8.403
 7196WAT      O21829   7.687   9.420   3.692
 7196WAT     H121830   7.704   9.505   3.642
 7196WAT     H221831   7.691   9.343   3.630
 7197WAT      O21832   6.471   0.348   9.443
 7197WAT     H121833   6.405   0.364   9.517
 7197WAT     H221834   6.467   0.252   9.414
 7198WAT      O21835   6.537   7.383   7.938
 7198WAT     H121836   6.515   7.292   7.972
 7198WAT     H221837   6.614   7.377   7.874
 7199WAT      O21838   2.741   0.171   7.114
 7199WAT     H121839   2.745   0.143   7.018
 7199WAT     H221840   2.649   0.207   7.134
 7200WAT      O21841   0.672   6.056   9.410
 7200WAT     H121842   0.757   6.104   9.430
 7200WAT     H221843   0.624   6.036   9.496
 7201WAT      O21844   1.944   8.018   8.640
 7201WAT     H121845   1.947   8.029   8.541
 7201WAT     H221846   1.849   8.021   8.671
 7202WAT      O21847   1.497   8.933   9.292
 7202WAT     H121848   1.545   8.854   9.254
 7202WAT     H221849   1.403   8.935   9.258
 7203WAT      O21850   8.618   1.790   5.105
 7203WAT     H121851   8.664   1.703   5.119
 7203WAT     H221852   8.678   1.851   5.054
 7204WAT      O21853   1.406   2.839   5.124
 7204WAT     H121854   1.320   2.794   5.149
 7204WAT     H221855   1.416   2.924   5.176
 7205WAT      O21856   1.947   7.187   1.298
 7205WAT     H121857   1.926   7.244   1.218
 7205WAT     H221858   2.046   7.175   1.304
 7206WAT      O21859   9.171   3.373   7.435
 7206WAT     H121860   9.098   3.341   7.373
 7206WAT     H221861   9.169   3.472   7.441
 7207WAT      O21862   3.827   1.370   0.825
 7207WAT     H121863   3.865   1.451   0.869
 7207WAT     H221864   3.889   1.293   0.839
 7208WAT      O21865   6.088   5.839   5.884
 7208WAT     H121866   6.154   5.846   5.958
 7208WAT     H221867   6.136   5.823   5.798
 7209WAT      O21868   0.467   6.171   2.834
 7209WAT     H121869   0.535   6.100   2.853
 7209WAT     H221870   0.399   6.172   2.908
 7210WAT      O21871   3.469   9.064   3.114
 7210WAT     H121872   3.413   9.018   3.183
 7210WAT     H221873   3.436   9.040   3.023
 7211WAT      O21874   8.913   2.675   0.161
 7211WAT     H121875   8.871   2.725   0.237
 7211WAT     H221876   8.869   2.702   0.076
 7212WAT      O21877   7.112   2.855   9.198
 7212WAT     H121878   7.076   2.852   9.105
 7212WAT     H221879   7.175   2.933   9.207
 7213WAT      O21880   9.551   2.230   6.826
 7213WAT     H121881   9.504   2.190   6.747
 7213WAT     H221882   9.612   2.161   6.866
 7214WAT      O21883   0.682   2.702   8.765
 7214WAT     H121884   0.702   2.787   8.813
 7214WAT     H221885   0.724   2.626   8.813
 7215WAT      O21886   0.231   5.057   5.696
 7215WAT     H121887   0.176   4.974   5.684
 7215WAT     H221888   0.278   5.053   5.784
 7216WAT      O21889   0.387   5.872   3.913
 7216WAT     H121890   0.386   5.971   3.902
 7216WAT     H221891   0.293   5.838   3.916
 7217WAT      O21892   7.877   4.850   2.756
 7217WAT     H121893   7.812   4.849   2.680
 7217WAT     H221894   7.969   4.868   2.722
 7218WAT      O21895   6.406   5.581   0.281
 7218WAT     H121896   6.317   5.613   0.311
 7218WAT     H221897   6.472   5.655   0.286
 7219WAT      O21898   9.552   8.903   6.048
 7219WAT     H121899   9.542   8.804   6.041
 7219WAT     H221900   9.648   8.928   6.038
 7220WAT      O21901   7.204   2.693   2.756
 7220WAT     H121902   7.166   2.600   2.753
 7220WAT     H221903   7.283   2.699   2.695
 7221WAT      O21904   5.158   1.112   1.279
 7221WAT     H121905   5.179   1.036   1.340
 7221WAT     H221906   5.188   1.089   1.186
 7222WAT      O21907   9.517   9.801   6.627
 7222WAT     H121908   9.474   9.712   6.612
 7222WAT     H221909   9.613   9.797   6.601
 7223WAT      O21910   1.834   4.593   3.189
 7223WAT     H121911   1.913   4.651   3.210
 7223WAT     H221912   1.854   4.498   3.214
 7224WAT      O21913   2.175   5.400   5.261
 7224WAT     H121914   2.189   5.445   5.173
 7224WAT     H221915   2.077   5.398   5.282
 7225WAT      O21916   3.983   4.528   9.732
 7225WAT     H121917   3.973   4.550   9.635
 7225WAT     H221918   3.999   4.612   9.784
 7226WAT      O21919   8.934   3.644   5.188
 7226WAT     H121920   9.006   3.576   5.202
 7226WAT     H221921   8.899   3.638   5.094
 7227WAT      O21922   7.004   6.468   5.313
 7227WAT     H121923   7.022   6.374   5.285
 7227WAT     H221924   7.076   6.499   5.375
 7228WAT      O21925   6.444   6.735   0.763
 7228WAT     H121926   6.502   6.804   0.806
 7228WAT     H221927   6.362   6.778   0.726
 7229WAT      O21928   2.176   5.237   7.313
 7229WAT     H121929   2.088   5.256   7.357
 7229WAT     H221930   2.218   5.323   7.284
 7230WAT      O21931   0.108   0.315   4.843
 7230WAT     H121932   0.010   0.330   4.831
 7230WAT     H221933   0.145   0.384   4.907
 7231WAT      O21934   2.231   4.614   3.626
 7231WAT     H121935   2.214   4.518   3.602
 7231WAT     H221936   2.177   4.638   3.706
 7232WAT      O21937   8.905   5.464   4.615
 7232WAT     H121938   8.959   5.384   4.590
 7232WAT     H221939   8.944   5.546   4.573
 7233WAT      O21940   1.778   1.700   4.116
 7233WAT     H121941   1.739   1.716   4.207
 7233WAT     H221942   1.737   1.763   4.051
 7234WAT      O21943   7.284   8.477   8.627
 7234WAT     H121944   7.224   8.399   8.614
 7234WAT     H221945   7.328   8.472   8.717
 7235WAT      O21946   0.137   6.545   7.019
 7235WAT     H121947   0.107   6.619   7.080
 7235WAT     H221948   0.203   6.488   7.067
 7236WAT      O21949   6.921   5.894   0.671
 7236WAT     H121950   6.983   5.920   0.596
 7236WAT     H221951   6.963   5.915   0.759
 7237WAT      O21952   9.685   4.370   9.165
 7237WAT     H121953   9.680   4.356   9.264
 7237WAT     H221954   9.776   4.402   9.141
 7238WAT      O21955   5.897   4.821   5.878
 7238WAT     H121956   5.857   4.899   5.927
 7238WAT     H221957   5.846   4.807   5.793
 7239WAT      O21958   2.761   4.518   5.389
 7239WAT     H121959   2.673   4.478   5.415
 7239WAT     H221960   2.785   4.489   5.297
 7240WAT      O21961   7.202   7.685   0.643
 7240WAT     H121962   7.253   7.599   0.634
 7240WAT     H221963   7.205   7.716   0.738
 7241WAT      O21964   2.497   4.774   0.210
 7241WAT     H121965   2.596   4.772   0.223
 7241WAT     H221966   2.453   4.806   0.294
 7242WAT      O21967   3.706   8.296   1.847
 7242WAT     H121968   3.657   8.222   1.893
 7242WAT     H221969   3.804   8.285   1.862
 7243WAT      O21970   8.715   5.653   1.127
 7243WAT     H121971   8.779   5.590   1.171
 7243WAT     H221972   8.691   5.619   1.036
 7244WAT      O21973   5.101   2.680   6.522
 7244WAT     H121974   5.168   2.674   6.448
 7244WAT     H221975   5.112   2.603   6.584
 7245WAT      O21976   8.336   4.139   9.883
 7245WAT     H121977   8.339   4.090   9.796
 7245WAT     H221978   8.257   4.201   9.885
 7246WAT      O21979   9.670   4.918   2.495
 7246WAT     H121980   9.588   4.958   2.536
 7246WAT     H221981   9.721   4.990   2.448
 7247WAT      O21982   7.584   1.174   1.036
 7247WAT     H121983   7.671   1.144   1.074
 7247WAT     H221984   7.546   1.247   1.094
 7248WAT      O21985   2.462   2.136   7.465
 7248WAT     H121986   2.546   2.114   7.414
 7248WAT     H221987   2.459   2.235   7.482
 7249WAT      O21988   0.701   3.772   3.780
 7249WAT     H121989   0.635   3.758   3.706
 7249WAT     H221990   0.713   3.687   3.832
 7250WAT      O21991   9.149   6.137   7.506
 7250WAT     H121992   9.153   6.216   7.567
 7250WAT     H221993   9.116   6.166   7.416
 7251WAT      O21994   9.745   0.604   0.778
 7251WAT     H121995   9.757   0.621   0.876
 7251WAT     H221996   9.698   0.681   0.736
 7252WAT      O21997   4.740   7.578   7.009
 7252WAT     H121998   4.806   7.541   6.944
 7252WAT     H221999   4.667   7.511   7.024
 7253WAT      O22000   0.163   3.640   2.102
 7253WAT     H122001   0.197   3.632   2.008
 7253WAT     H222002   0.073   3.683   2.101
 7254WAT      O22003   6.225   0.707   2.627
 7254WAT     H122004   6.238   0.674   2.533
 7254WAT     H222005   6.147   0.770   2.629
 7255WAT      O22006   0.173   9.797   5.899
 7255WAT     H122007   0.090   9.773   5.847
 7255WAT     H222008   0.153   9.874   5.960
 7256WAT      O22009   0.888   1.874   4.220
 7256WAT     H122010   0.945   1.829   4.150
 7256WAT     H222011   0.892   1.973   4.207
 7257WAT      O22012   0.647   3.471   6.783
 7257WAT     H122013   0.549   3.484   6.773
 7257WAT     H222014   0.680   3.410   6.710
 7258WAT      O22015   0.062   0.369   5.636
 7258WAT     H122016   0.157   0.344   5.617
 7258WAT     H222017   0.032   0.439   5.572
 7259WAT      O22018   3.602   8.113   5.020
 7259WAT     H122019   3.544   8.172   4.963
 7259WAT     H222020   3.635   8.164   5.099
 7260WAT      O22021   1.161   1.181   5.729
 7260WAT     H122022   1.220   1.119   5.781
 7260WAT     H222023   1.209   1.267   5.713
 7261WAT      O22024   9.704   5.488   9.857
 7261WAT     H122025   9.626   5.536   9.818
 7261WAT     H222026   9.718   5.402   9.808
 7262WAT      O22027   3.023   6.022   2.687
 7262WAT     H122028   2.940   5.979   2.652
 7262WAT     H222029   2.999   6.089   2.758
 7263WAT      O22030   5.830   4.814   1.546
 7263WAT     H122031   5.765   4.847   1.615
 7263WAT     H222032   5.918   4.794   1.590
 7264WAT      O22033   4.275   7.309   7.246
 7264WAT     H122034   4.277   7.256   7.331
 7264WAT     H222035   4.197   7.371   7.248
 7265WAT      O22036   5.190   6.529   5.820
 7265WAT     H122037   5.092   6.506   5.823
 7265WAT     H222038   5.224   6.516   5.727
 7266WAT      O22039   3.976   7.336   0.985
 7266WAT     H122040   4.069   7.362   0.959
 7266WAT     H222041   3.931   7.413   1.029
 7267WAT      O22042   2.578   8.631   3.740
 7267WAT     H122043   2.592   8.681   3.825
 7267WAT     H222044   2.663   8.626   3.689
 7268WAT      O22045   9.287   6.176   3.656
 7268WAT     H122046   9.286   6.097   3.718
 7268WAT     H222047   9.254   6.148   3.566
 7269WAT      O22048   9.709   6.934   6.809
 7269WAT     H122049   9.680   7.006   6.872
 7269WAT     H222050   9.781   6.969   6.749
 7270WAT      O22051   1.435   4.925   3.739
 7270WAT     H122052   1.379   4.873   3.803
 7270WAT     H222053   1.490   4.862   3.683
 7271WAT      O22054   7.089   2.674   3.378
 7271WAT     H122055   7.134   2.669   3.288
 7271WAT     H222056   6.992   2.695   3.366
 7272WAT      O22057   5.977   4.972   0.552
 7272WAT     H122058   5.944   4.893   0.603
 7272WAT     H222059   6.050   5.017   0.604
 7273WAT      O22060   2.441   0.854   8.985
 7273WAT     H122061   2.412   0.919   9.055
 7273WAT     H222062   2.509   0.896   8.926
 7274WAT      O22063   6.104   9.542   5.303
 7274WAT     H122064   6.147   9.628   5.274
 7274WAT     H222065   6.052   9.503   5.228
 7275WAT      O22066   8.836   2.997   2.461
 7275WAT     H122067   8.862   3.093   2.468
 7275WAT     H222068   8.844   2.953   2.551
 7276WAT      O22069   1.758   5.993   7.545
 7276WAT     H122070   1.838   6.031   7.499
 7276WAT     H222071   1.721   6.060   7.608
 7277WAT      O22072   7.913   6.650   1.374
 7277WAT     H122073   7.878   6.743   1.366
 7277WAT     H222074   7.961   6.639   1.461
 7278WAT      O22075   9.150   2.153   8.698
 7278WAT     H122076   9.055   2.179   8.716
 7278WAT     H222077   9.205   2.236   8.686
 7279WAT      O22078   5.172   0.619   4.065
 7279WAT     H122079   5.184   0.630   4.164
 7279WAT     H222080   5.189   0.524   4.040
 7280WAT      O22081   9.867   4.294   4.210
 7280WAT     H122082   9.844   4.269   4.116
 7280WAT     H222083   9.893   4.390   4.213
 7281WAT      O22084   4.056   0.078   3.228
 7281WAT     H122085   4.099   0.133   3.157
 7281WAT     H222086   4.124   0.018   3.270
 7282WAT      O22087   1.775   3.657   4.586
 7282WAT     H122088   1.793   3.735   4.526
 7282WAT     H222089   1.723   3.687   4.666
 7283WAT      O22090   7.164   9.080   0.286
 7283WAT     H122091   7.144   9.104   0.191
 7283WAT     H222092   7.235   9.010   0.290
 7284WAT      O22093   2.902   6.401   7.586
 7284WAT     H122094   2.846   6.426   7.506
 7284WAT     H222095   2.996   6.384   7.557
 7285WAT      O22096   9.555   5.470   1.167
 7285WAT     H122097   9.648   5.438   1.182
 7285WAT     H222098   9.540   5.555   1.217
 7286WAT      O22099   7.791   4.397   1.221
 7286WAT     H122100   7.828   4.399   1.128
 7286WAT     H222101   7.857   4.437   1.285
 7287WAT      O22102   3.074   6.108   4.547
 7287WAT     H122103   3.004   6.120   4.618
 7287WAT     H222104   3.118   6.018   4.558
 7288WAT      O22105   0.301   3.051   7.793
 7288WAT     H122106   0.387   3.012   7.823
 7288WAT     H222107   0.313   3.093   7.703
 7289WAT      O22108   6.083   4.362   2.927
 7289WAT     H122109   6.097   4.279   2.980
 7289WAT     H222110   5.992   4.360   2.884
 7290WAT      O22111   9.808   5.262   9.214
 7290WAT     H122112   9.844   5.168   9.211
 7290WAT     H222113   9.882   5.325   9.239
 7291WAT      O22114   3.159   7.090   1.070
 7291WAT     H122115   3.067   7.088   1.030
 7291WAT     H222116   3.189   7.184   1.082
 7292WAT      O22117   7.857   2.956   4.104
 7292WAT     H122118   7.916   2.910   4.038
 7292WAT     H222119   7.876   3.054   4.102
 7293WAT      O22120   2.561   0.331   9.051
 7293WAT     H122121   2.617   0.321   8.968
 7293WAT     H222122   2.563   0.426   9.081
 7294WAT      O22123   1.710   3.753   2.869
 7294WAT     H122124   1.706   3.806   2.784
 7294WAT     H222125   1.801   3.714   2.880
 7295WAT      O22126   8.751   1.141   9.400
 7295WAT     H122127   8.730   1.069   9.466
 7295WAT     H222128   8.687   1.137   9.323
 7296WAT      O22129   8.558   1.498   0.950
 7296WAT     H122130   8.472   1.457   0.919
 7296WAT     H222131   8.538   1.583   0.999
 7297WAT      O22132   5.751   1.444   8.971
 7297WAT     H122133   5.828   1.421   9.031
 7297WAT     H222134   5.734   1.369   8.908
 7298WAT      O22135   5.753   9.175   0.491
 7298WAT     H122136   5.706   9.158   0.405
 7298WAT     H222137   5.846   9.139   0.485
 7299WAT      O22138   8.468   4.397   1.869
 7299WAT     H122139   8.461   4.492   1.841
 7299WAT     H222140   8.415   4.383   1.953
 7300WAT      O22141   8.040   4.468   6.797
 7300WAT     H122142   7.988   4.547   6.830
 7300WAT     H222143   7.977   4.394   6.773
 7301WAT      O22144   1.354   1.164   9.227
 7301WAT     H122145   1.310   1.098   9.289
 7301WAT     H222146   1.374   1.248   9.277
 7302WAT      O22147   5.553   4.049   6.671
 7302WAT     H122148   5.541   4.138   6.628
 7302WAT     H222149   5.609   4.058   6.753
 7303WAT      O22150   2.249   1.603   7.500
 7303WAT     H122151   2.168   1.607   7.441
 7303WAT     H222152   2.326   1.567   7.447
 7304WAT      O22153   5.691   0.527   3.875
 7304WAT     H122154   5.649   0.560   3.791
 7304WAT     H222155   5.790   0.541   3.870
 7305WAT      O22156   5.612   3.021   7.951
 7305WAT     H122157   5.573   2.935   7.919
 7305WAT     H222158   5.706   3.007   7.980
 7306WAT      O22159   8.322   3.498   0.939
 7306WAT     H122160   8.273   3.504   0.851
 7306WAT     H222161   8.411   3.543   0.931
 7307WAT      O22162   7.855   7.964   2.586
 7307WAT     H122163   7.862   8.007   2.496
 7307WAT     H222164   7.761   7.973   2.620
 7308WAT      O22165   5.761   3.829   0.561
 7308WAT     H122166   5.794   3.827   0.466
 7308WAT     H222167   5.774   3.740   0.603
 7309WAT      O22168   4.358   0.556   6.975
 7309WAT     H122169   4.259   0.571   6.975
 7309WAT     H222170   4.390   0.550   7.070
 7310WAT      O22171   3.086   9.082   6.853
 7310WAT     H122172   3.181   9.069   6.824
 7310WAT     H222173   3.033   9.000   6.832
 7311WAT      O22174   0.128   2.420   2.979
 7311WAT     H122175   0.144   2.502   2.925
 7311WAT     H222176   0.201   2.411   3.048
 7312WAT      O22177   6.949   3.038   3.024
 7312WAT     H122178   7.006   3.101   2.971
 7312WAT     H222179   6.960   2.945   2.989
 7313WAT      O22180   2.328   6.522   2.890
 7313WAT     H122181   2.261   6.490   2.957
 7313WAT     H222182   2.286   6.521   2.799
 7314WAT      O22183   0.456   1.663   8.167
 7314WAT     H122184   0.409   1.598   8.107
 7314WAT     H222185   0.416   1.754   8.154
 7315WAT      O22186   2.344   6.627   7.276
 7315WAT     H122187   2.295   6.543   7.249
 7315WAT     H222188   2.396   6.610   7.359
 7316WAT      O22189   3.657   0.741   2.589
 7316WAT     H122190   3.641   0.688   2.506
 7316WAT     H222191   3.637   0.684   2.669
 7317WAT      O22192   0.525   5.727   8.858
 7317WAT     H122193   0.446   5.720   8.919
 7317WAT     H222194   0.496   5.771   8.772
 7318WAT      O22195   4.523   8.267   5.222
 7318WAT     H122196   4.611   8.266   5.174
 7318WAT     H222197   4.459   8.326   5.173
 7319WAT      O22198   8.841   1.516   7.054
 7319WAT     H122199   8.789   1.579   6.995
 7319WAT     H222200   8.874   1.565   7.134
 7320WAT      O22201   5.273   4.250   3.314
 7320WAT     H122202   5.347   4.289   3.259
 7320WAT     H222203   5.206   4.207   3.254
 7321WAT      O22204   6.241   4.804   9.076
 7321WAT     H122205   6.262   4.811   9.173
 7321WAT     H222206   6.308   4.745   9.031
 7322WAT      O22207   7.869   2.561   1.533
 7322WAT     H122208   7.785   2.616   1.532
 7322WAT     H222209   7.884   2.522   1.443
 7323WAT      O22210   9.626   8.421   5.045
 7323WAT     H122211   9.720   8.441   5.018
 7323WAT     H222212   9.573   8.395   4.965
 7324WAT      O22213   1.020   7.366   4.136
 7324WAT     H122214   0.933   7.394   4.175
 7324WAT     H222215   1.067   7.445   4.097
 7325WAT      O22216   2.807   5.648   6.937
 7325WAT     H122217   2.838   5.571   6.993
 7325WAT     H222218   2.785   5.616   6.845
 7326WAT      O22219   1.093   2.631   5.509
 7326WAT     H122220   1.192   2.634   5.524
 7326WAT     H222221   1.061   2.720   5.478
 7327WAT      O22222   1.737   3.108   0.727
 7327WAT     H122223   1.649   3.135   0.686
 7327WAT     H222224   1.810   3.123   0.660
 7328WAT      O22225   8.313   2.945   1.676
 7328WAT     H122226   8.365   2.872   1.720
 7328WAT     H222227   8.271   2.910   1.592
 7329WAT      O22228   9.579   3.868   5.254
 7329WAT     H122229   9.668   3.906   5.278
 7329WAT     H222230   9.544   3.813   5.330
 7330WAT      O22231   1.079   5.603   1.577
 7330WAT     H122232   1.020   5.566   1.505
 7330WAT     H222233   1.135   5.677   1.540
 7331WAT      O22234   6.102   1.258   1.610
 7331WAT     H122235   6.070   1.277   1.703
 7331WAT     H222236   6.145   1.168   1.607
 7332WAT      O22237   0.898   0.275   7.735
 7332WAT     H122238   0.968   0.253   7.667
 7332WAT     H222239   0.813   0.300   7.687
 7333WAT      O22240   5.493   7.718   0.144
 7333WAT     H122241   5.533   7.806   0.120
 7333WAT     H222242   5.556   7.669   0.205
 7334WAT      O22243   1.438   9.031   7.912
 7334WAT     H122244   1.423   9.053   7.816
 7334WAT     H222245   1.479   8.940   7.920
 7335WAT      O22246   1.752   1.931   0.947
 7335WAT     H122247   1.665   1.948   0.900
 7335WAT     H222248   1.828   1.942   0.882
 7336WAT      O22249   2.578   6.774   0.050
 7336WAT     H122250   2.648   6.751   0.119
 7336WAT     H222251   2.489   6.740   0.081
 7337WAT      O22252   6.501   6.774   5.750
 7337WAT     H122253   6.596   6.803   5.745
 7337WAT     H222254   6.468   6.751   5.658
 7338WAT      O22255   9.517   0.171   4.725
 7338WAT     H122256   9.435   0.141   4.774
 7338WAT     H222257   9.502   0.263   4.688
 7339WAT      O22258   2.499   6.770   1.287
 7339WAT     H122259   2.557   6.733   1.358
 7339WAT     H222260   2.541   6.754   1.197
 7340WAT      O22261   9.232   5.536   2.914
 7340WAT     H122262   9.248   5.440   2.935
 7340WAT     H222263   9.134   5.550   2.897
 7341WAT      O22264   9.285   0.636   7.295
 7341WAT     H122265   9.241   0.659   7.381
 7341WAT     H222266   9.275   0.537   7.278
 7342WAT      O22267   1.520   9.804   8.557
 7342WAT     H122268   1.453   9.810   8.632
 7342WAT     H222269   1.610   9.781   8.595
 7343WAT      O22270   3.617   0.124   3.648
 7343WAT     H122271   3.699   0.166   3.689
 7343WAT     H222272   3.548   0.111   3.719
 7344WAT      O22273   7.066   2.419   2.696
 7344WAT     H122274   6.989   2.460   2.646
 7344WAT     H222275   7.105   2.344   2.642
 7345WAT      O22276   7.465   9.219   0.555
 7345WAT     H122277   7.431   9.294   0.612
 7345WAT     H222278   7.458   9.246   0.459
 7346WAT      O22279   5.383   8.521   1.174
 7346WAT     H122280   5.425   8.527   1.265
 7346WAT     H222281   5.439   8.461   1.116
 7347WAT      O22282   0.333   3.324   7.535
 7347WAT     H122283   0.243   3.301   7.572
 7347WAT     H222284   0.321   3.364   7.443
 7348WAT      O22285   3.443   1.317   9.352
 7348WAT     H122286   3.474   1.222   9.350
 7348WAT     H222287   3.353   1.322   9.394
 7349WAT      O22288   3.926   1.752   7.363
 7349WAT     H122289   3.966   1.817   7.429
 7349WAT     H222290   3.912   1.664   7.408
 7350WAT      O22291   1.776   5.314   9.880
 7350WAT     H122292   1.759   5.376   9.956
 7350WAT     H222293   1.815   5.365   9.803
 7351WAT      O22294   8.971   0.153   8.307
 7351WAT     H122295   8.911   0.200   8.372
 7351WAT     H222296   9.043   0.106   8.357
 7352WAT      O22297   8.546   6.528   2.141
 7352WAT     H122298   8.641   6.529   2.171
 7352WAT     H222299   8.511   6.622   2.139
 7353WAT      O22300   1.919   7.169   9.299
 7353WAT     H122301   1.914   7.267   9.314
 7353WAT     H222302   1.916   7.150   9.201
 7354WAT      O22303   1.468   1.843   5.009
 7354WAT     H122304   1.562   1.809   5.017
 7354WAT     H222305   1.414   1.807   5.086
 7355WAT      O22306   6.794   7.225   4.481
 7355WAT     H122307   6.734   7.281   4.538
 7355WAT     H222308   6.885   7.266   4.477
 7356WAT      O22309   6.286   5.922   1.535
 7356WAT     H122310   6.209   5.985   1.531
 7356WAT     H222311   6.350   5.941   1.460
 7357WAT      O22312   2.973   0.365   4.899
 7357WAT     H122313   2.990   0.408   4.988
 7357WAT     H222314   2.966   0.436   4.829
 7358WAT      O22315   0.834   9.507   8.817
 7358WAT     H122316   0.862   9.494   8.913
 7358WAT     H222317   0.735   9.520   8.813
 7359WAT      O22318   4.551   0.703   6.826
 7359WAT     H122319   4.569   0.644   6.747
 7359WAT     H222320   4.499   0.652   6.895
 7360WAT      O22321   7.450   9.837   8.156
 7360WAT     H122322   7.457   9.842   8.255
 7360WAT     H222323   7.475   9.745   8.126
 7361WAT      O22324   4.058   2.181   1.240
 7361WAT     H122325   4.072   2.145   1.147
 7361WAT     H222326   4.062   2.105   1.305
 7362WAT      O22327   9.276   3.387   4.376
 7362WAT     H122328   9.309   3.477   4.348
 7362WAT     H222329   9.354   3.324   4.383
 7363WAT      O22330   5.079   9.201   4.021
 7363WAT     H122331   5.164   9.205   4.074
 7363WAT     H222332   5.072   9.112   3.976
 7364WAT      O22333   6.273   1.067   8.919
 7364WAT     H122334   6.271   1.066   8.819
 7364WAT     H222335   6.181   1.082   8.954
 7365WAT      O22336   3.853   0.567   6.130
 7365WAT     H122337   3.857   0.543   6.227
 7365WAT     H222338   3.763   0.605   6.109
 7366WAT      O22339   3.016   2.772   9.185
 7366WAT     H122340   3.100   2.826   9.174
 7366WAT     H222341   2.983   2.742   9.096
 7367WAT      O22342   6.370   8.868   6.030
 7367WAT     H122343   6.432   8.815   6.087
 7367WAT     H222344   6.355   8.958   6.071
 7368WAT      O22345   7.360   5.466   0.285
 7368WAT     H122346   7.283   5.441   0.343
 7368WAT     H222347   7.398   5.553   0.317
 7369WAT      O22348   9.476   3.619   7.741
 7369WAT     H122349   9.475   3.584   7.835
 7369WAT     H222350   9.474   3.719   7.744
 7370WAT      O22351   4.864   9.173   1.793
 7370WAT     H122352   4.935   9.213   1.851
 7370WAT     H222353   4.890   9.184   1.697
 7371WAT      O22354   3.600   0.431   3.047
 7371WAT     H122355   3.553   0.491   3.112
 7371WAT     H222356   3.555   0.342   3.045
 7372WAT      O22357   6.495   9.057   0.118
 7372WAT     H122358   6.464   9.001   0.194
 7372WAT     H222359   6.525   8.999   0.043
 7373WAT      O22360   3.123   4.535   7.350
 7373WAT     H122361   3.181   4.517   7.270
 7373WAT     H222362   3.170   4.503   7.432
 7374WAT      O22363   0.592   6.342   0.120
 7374WAT     H122364   0.687   6.310   0.127
 7374WAT     H222365   0.589   6.441   0.135
 7375WAT      O22366   9.115   6.927   2.399
 7375WAT     H122367   9.156   6.844   2.438
 7375WAT     H222368   9.171   6.960   2.324
 7376WAT      O22369   7.135   0.649   0.033
 7376WAT     H122370   7.061   0.657  -0.034
 7376WAT     H222371   7.096   0.632   0.124
 7377WAT      O22372   0.324   7.998   5.641
 7377WAT     H122373   0.354   8.014   5.735
 7377WAT     H222374   0.253   7.928   5.640
 7378WAT      O22375   7.324   4.317   3.193
 7378WAT     H122376   7.270   4.235   3.173
 7378WAT     H222377   7.322   4.334   3.292
 7379WAT      O22378   4.514   1.855   8.555
 7379WAT     H122379   4.583   1.924   8.575
 7379WAT     H222380   4.512   1.836   8.457
 7380WAT      O22381   3.711   0.141   1.906
 7380WAT     H122382   3.781   0.091   1.855
 7380WAT     H222383   3.709   0.236   1.876
 7381WAT      O22384   9.297   7.830   9.170
 7381WAT     H122385   9.346   7.824   9.257
 7381WAT     H222386   9.276   7.737   9.138
 7382WAT      O22387   3.369   3.975   0.072
 7382WAT     H122388   3.378   4.074   0.084
 7382WAT     H222389   3.410   3.928   0.151
 7383WAT      O22390   2.959   0.308   3.599
 7383WAT     H122391   2.883   0.298   3.663
 7383WAT     H222392   2.939   0.257   3.515
 7384WAT      O22393   1.850   7.439   9.012
 7384WAT     H122394   1.861   7.514   8.947
 7384WAT     H222395   1.903   7.360   8.982
 7385WAT      O22396   1.326   5.820   0.174
 7385WAT     H122397   1.309   5.731   0.216
 7385WAT     H222398   1.249   5.844   0.115
 7386WAT      O22399   5.521   2.007   9.132
 7386WAT     H122400   5.469   1.927   9.162
 7386WAT     H222401   5.514   2.017   9.033
 7387WAT      O22402   9.591   4.192   7.123
 7387WAT     H122403   9.498   4.159   7.108
 7387WAT     H222404   9.645   4.178   7.040
 7388WAT      O22405   0.805   0.276   2.068
 7388WAT     H122406   0.864   0.240   2.140
 7388WAT     H222407   0.802   0.376   2.074
 7389WAT      O22408   1.584   1.213   7.945
 7389WAT     H122409   1.517   1.171   7.883
 7389WAT     H222410   1.537   1.245   8.027
 7390WAT      O22411   5.704   0.198   9.844
 7390WAT     H122412   5.658   0.268   9.790
 7390WAT     H222413   5.792   0.233   9.876
 7391WAT      O22414   9.834   0.304   0.459
 7391WAT     H122415   9.801   0.261   0.544
 7391WAT     H222416   9.758   0.313   0.395
 7392WAT      O22417   4.803   6.585   8.521
 7392WAT     H122418   4.871   6.631   8.578
 7392WAT     H222419   4.739   6.536   8.580
 7393WAT      O22420   0.709   2.192   6.042
 7393WAT     H122421   0.660   2.125   5.986
 7393WAT     H222422   0.661   2.203   6.130
 7394WAT      O22423   4.957   4.945   1.036
 7394WAT     H122424   5.050   4.982   1.034
 7394WAT     H222425   4.919   4.956   1.128
 7395WAT      O22426   1.470   4.097   6.398
 7395WAT     H122427   1.453   4.166   6.327
 7395WAT     H222428   1.420   4.122   6.481
 7396WAT      O22429   4.546   8.196   6.520
 7396WAT     H122430   4.546   8.232   6.427
 7396WAT     H222431   4.463   8.142   6.535
 7397WAT      O22432   2.501   2.782   1.066
 7397WAT     H122433   2.421   2.836   1.093
 7397WAT     H222434   2.580   2.843   1.054
 7398WAT      O22435   7.125   8.017   6.081
 7398WAT     H122436   7.161   7.994   5.991
 7398WAT     H222437   7.200   8.043   6.142
 7399WAT      O22438   8.289   9.179   0.903
 7399WAT     H122439   8.375   9.175   0.953
 7399WAT     H222440   8.214   9.194   0.968
 7400WAT      O22441   4.365   4.339   7.685
 7400WAT     H122442   4.444   4.289   7.721
 7400WAT     H222443   4.302   4.274   7.642
 7401WAT      O22444   4.250   9.088   9.521
 7401WAT     H122445   4.310   9.020   9.479
 7401WAT     H222446   4.156   9.075   9.489
 7402WAT      O22447   7.831   9.800   0.053
 7402WAT     H122448   7.785   9.862   0.116
 7402WAT     H222449   7.764   9.751  -0.002
 7403WAT      O22450   1.030   6.295   7.011
 7403WAT     H122451   1.023   6.290   7.111
 7403WAT     H222452   1.097   6.365   6.986
 7404WAT      O22453   5.694   5.515   8.435
 7404WAT     H122454   5.713   5.535   8.339
 7404WAT     H222455   5.704   5.417   8.452
 7405WAT      O22456   1.768   5.823   4.324
 7405WAT     H122457   1.734   5.741   4.280
 7405WAT     H222458   1.860   5.807   4.360
 7406WAT      O22459   8.240   1.035   1.852
 7406WAT     H122460   8.223   1.130   1.825
 7406WAT     H222461   8.334   1.025   1.885
 7407WAT      O22462   6.790   2.006   9.839
 7407WAT     H122463   6.788   2.096   9.883
 7407WAT     H222464   6.805   2.017   9.741
 7408WAT      O22465   7.363   0.391   2.892
 7408WAT     H122466   7.458   0.362   2.881
 7408WAT     H222467   7.349   0.480   2.850
 7409WAT      O22468   6.514   5.743   1.870
 7409WAT     H122469   6.456   5.669   1.834
 7409WAT     H222470   6.458   5.804   1.927
 7410WAT      O22471   6.091   0.325   4.571
 7410WAT     H122472   6.091   0.380   4.487
 7410WAT     H222473   6.184   0.314   4.605
 7411WAT      O22474   3.101   4.182   5.812
 7411WAT     H122475   3.133   4.245   5.882
 7411WAT     H222476   3.178   4.153   5.756
 7412WAT      O22477   6.877   9.666   1.865
 7412WAT     H122478   6.803   9.727   1.837
 7412WAT     H222479   6.964   9.703   1.832
 7413WAT      O22480   6.121   8.992   3.309
 7413WAT     H122481   6.024   8.976   3.297
 7413WAT     H222482   6.170   8.905   3.312
 7414WAT      O22483   5.233   0.265   3.175
 7414WAT     H122484   5.143   0.242   3.212
 7414WAT     H222485   5.241   0.228   3.083
 7415WAT      O22486   0.146   8.433   1.251
 7415WAT     H122487   0.111   8.361   1.310
 7415WAT     H222488   0.094   8.517   1.267
 7416WAT      O22489   0.414   8.949   3.755
 7416WAT     H122490   0.499   8.905   3.786
 7416WAT     H222491   0.433   9.007   3.676
 7417WAT      O22492   7.837   1.647   4.315
 7417WAT     H122493   7.918   1.603   4.354
 7417WAT     H222494   7.796   1.708   4.383
 7418WAT      O22495   0.006   3.680   6.885
 7418WAT     H122496  -0.018   3.651   6.793
 7418WAT     H222497   0.094   3.641   6.911
 7419WAT      O22498   1.993   2.378   5.779
 7419WAT     H122499   1.932   2.315   5.731
 7419WAT     H222500   2.084   2.374   5.737
 7420WAT      O22501   1.212   4.167   0.921
 7420WAT     H122502   1.128   4.180   0.974
 7420WAT     H222503   1.291   4.172   0.983
 7421WAT      O22504   1.088   2.826   8.737
 7421WAT     H122505   1.099   2.730   8.762
 7421WAT     H222506   1.064   2.833   8.640
 7422WAT      O22507   7.194   0.458   2.470
 7422WAT     H122508   7.146   0.463   2.558
 7422WAT     H222509   7.289   0.486   2.482
 7423WAT      O22510   4.412   4.390   2.178
 7423WAT     H122511   4.382   4.476   2.220
 7423WAT     H222512   4.451   4.331   2.249
 7424WAT      O22513   6.821   3.282   6.435
 7424WAT     H122514   6.847   3.379   6.443
 7424WAT     H222515   6.828   3.254   6.339
 7425WAT      O22516   3.443   7.302   6.282
 7425WAT     H122517   3.400   7.262   6.201
 7425WAT     H222518   3.536   7.267   6.291
 7426WAT      O22519   0.803   6.129   2.228
 7426WAT     H122520   0.852   6.158   2.310
 7426WAT     H222521   0.745   6.050   2.250
 7427WAT      O22522   4.445   8.852   0.071
 7427WAT     H122523   4.446   8.883  -0.024
 7427WAT     H222524   4.538   8.859   0.108
 7428WAT      O22525   0.277   3.303   2.403
 7428WAT     H122526   0.362   3.353   2.417
 7428WAT     H222527   0.248   3.262   2.490
 7429WAT      O22528   5.930   8.802   2.574
 7429WAT     H122529   5.888   8.712   2.581
 7429WAT     H222530   5.918   8.838   2.482
 7430WAT      O22531   2.422   2.045   4.239
 7430WAT     H122532   2.451   2.065   4.333
 7430WAT     H222533   2.346   2.105   4.214
 7431WAT      O22534   1.543   1.755   4.659
 7431WAT     H122535   1.594   1.829   4.614
 7431WAT     H222536   1.447   1.759   4.630
 7432WAT      O22537   3.255   1.828   3.966
 7432WAT     H122538   3.247   1.904   3.901
 7432WAT     H222539   3.185   1.838   4.037
 7433WAT      O22540   6.337   8.643   0.955
 7433WAT     H122541   6.310   8.547   0.957
 7433WAT     H222542   6.290   8.690   0.880
 7434WAT      O22543   0.903   9.142   7.946
 7434WAT     H122544   0.944   9.194   8.021
 7434WAT     H222545   0.817   9.101   7.978
 7435WAT      O22546   6.091   8.234   7.317
 7435WAT     H122547   6.091   8.136   7.334
 7435WAT     H222548   6.158   8.256   7.246
 7436WAT      O22549   2.158   1.806   1.297
 7436WAT     H122550   2.117   1.723   1.259
 7436WAT     H222551   2.234   1.781   1.356
 7437WAT      O22552   2.435   0.852   3.601
 7437WAT     H122553   2.436   0.774   3.539
 7437WAT     H222554   2.465   0.824   3.692
 7438WAT      O22555   2.140   6.426   1.308
 7438WAT     H122556   2.218   6.402   1.366
 7438WAT     H222557   2.061   6.369   1.332
 7439WAT      O22558   8.895   3.350   0.405
 7439WAT     H122559   8.863   3.444   0.419
 7439WAT     H222560   8.954   3.323   0.481
 7440WAT      O22561   8.575   0.531   6.007
 7440WAT     H122562   8.547   0.621   5.974
 7440WAT     H222563   8.561   0.463   5.935
 7441WAT      O22564   9.609   8.916   7.685
 7441WAT     H122565   9.517   8.951   7.666
 7441WAT     H222566   9.661   8.908   7.600
 7442WAT      O22567   4.774   7.497   4.368
 7442WAT     H122568   4.770   7.400   4.344
 7442WAT     H222569   4.690   7.543   4.338
 7443WAT      O22570   0.473   4.034   6.717
 7443WAT     H122571   0.406   4.105   6.698
 7443WAT     H222572   0.565   4.074   6.717
 7444WAT      O22573   9.525   1.443   3.074
 7444WAT     H122574   9.521   1.502   3.155
 7444WAT     H222575   9.432   1.412   3.050
 7445WAT      O22576   8.688   4.077   3.187
 7445WAT     H122577   8.629   4.087   3.107
 7445WAT     H222578   8.631   4.074   3.269
 7446WAT      O22579   5.149   3.074   0.228
 7446WAT     H122580   5.101   3.018   0.295
 7446WAT     H222581   5.153   3.025   0.141
 7447WAT      O22582   3.920   8.276   9.546
 7447WAT     H122583   3.887   8.217   9.472
 7447WAT     H222584   3.843   8.302   9.605
 7448WAT      O22585   4.264   0.929   0.444
 7448WAT     H122586   4.336   0.986   0.406
 7448WAT     H222587   4.205   0.895   0.371
 7449WAT      O22588   7.136   0.461   5.991
 7449WAT     H122589   7.062   0.499   5.936
 7449WAT     H222590   7.217   0.449   5.933
 7450WAT      O22591   0.104   8.926   7.623
 7450WAT     H122592   0.072   9.018   7.645
 7450WAT     H222593   0.105   8.870   7.706
 7451WAT      O22594   1.207   1.580   6.674
 7451WAT     H122595   1.132   1.515   6.680
 7451WAT     H222596   1.284   1.538   6.625
 7452WAT      O22597   3.294   6.237   4.456
 7452WAT     H122598   3.293   6.221   4.357
 7452WAT     H222599   3.220   6.184   4.499
 7453WAT      O22600   4.287   5.662   2.327
 7453WAT     H122601   4.305   5.760   2.326
 7453WAT     H222602   4.291   5.628   2.421
 7454WAT      O22603   4.415   6.360   5.129
 7454WAT     H122604   4.420   6.262   5.108
 7454WAT     H222605   4.318   6.387   5.134
 7455WAT      O22606   3.872   8.369   6.126
 7455WAT     H122607   3.961   8.326   6.139
 7455WAT     H222608   3.879   8.467   6.150
 7456WAT      O22609   4.043   4.386   0.473
 7456WAT     H122610   4.069   4.299   0.431
 7456WAT     H222611   4.060   4.461   0.409
 7457WAT      O22612   7.680   3.828   9.709
 7457WAT     H122613   7.759   3.804   9.653
 7457WAT     H222614   7.674   3.927   9.718
 7458WAT      O22615   7.570   5.179   5.873
 7458WAT     H122616   7.483   5.148   5.833
 7458WAT     H222617   7.557   5.269   5.914
 7459WAT      O22618   1.267   5.564   0.322
 7459WAT     H122619   1.330   5.501   0.366
 7459WAT     H222620   1.232   5.629   0.389
 7460WAT      O22621   1.365   9.206   1.046
 7460WAT     H122622   1.378   9.304   1.030
 7460WAT     H222623   1.298   9.193   1.120
 7461WAT      O22624   4.507   8.638   8.970
 7461WAT     H122625   4.565   8.653   8.890
 7461WAT     H222626   4.500   8.540   8.988
 7462WAT      O22627   8.314   1.268   6.426
 7462WAT     H122628   8.360   1.356   6.418
 7462WAT     H222629   8.332   1.228   6.516
 7463WAT      O22630   1.233   6.289   0.229
 7463WAT     H122631   1.328   6.319   0.234
 7463WAT     H222632   1.195   6.282   0.322
 7464WAT      O22633   8.035   8.895   4.974
 7464WAT     H122634   8.128   8.920   4.945
 7464WAT     H222635   7.973   8.971   4.957
 7465WAT      O22636   0.442   0.433   8.365
 7465WAT     H122637   0.487   0.389   8.287
 7465WAT     H222638   0.343   0.426   8.355
 7466WAT      O22639   5.497   5.661   3.095
 7466WAT     H122640   5.423   5.722   3.122
 7466WAT     H222641   5.489   5.574   3.144
 7467WAT      O22642   5.499   0.739   4.561
 7467WAT     H122643   5.492   0.789   4.648
 7467WAT     H222644   5.592   0.748   4.526
 7468WAT      O22645   1.537   7.189   7.400
 7468WAT     H122646   1.570   7.097   7.381
 7468WAT     H222647   1.459   7.185   7.462
 7469WAT      O22648   1.957   6.002   6.278
 7469WAT     H122649   2.024   5.975   6.347
 7469WAT     H222650   1.887   6.060   6.319
 7470WAT      O22651   1.678   4.050   4.855
 7470WAT     H122652   1.715   4.098   4.775
 7470WAT     H222653   1.590   4.089   4.881
 7471WAT      O22654   2.694   7.381   4.796
 7471WAT     H122655   2.759   7.456   4.811
 7471WAT     H222656   2.603   7.410   4.827
 7472WAT      O22657   9.849   7.812   6.411
 7472WAT     H122658   9.850   7.838   6.507
 7472WAT     H222659   9.793   7.730   6.399
 7473WAT      O22660   3.211   7.891   9.315
 7473WAT     H122661   3.113   7.870   9.325
 7473WAT     H222662   3.222   7.965   9.249
 7474WAT      O22663   0.626   4.904   5.869
 7474WAT     H122664   0.723   4.905   5.891
 7474WAT     H222665   0.598   4.812   5.842
 7475WAT      O22666   6.764   2.767   1.071
 7475WAT     H122667   6.803   2.841   1.017
 7475WAT     H222668   6.670   2.749   1.041
 7476WAT      O22669   2.174   4.856   5.041
 7476WAT     H122670   2.195   4.856   5.139
 7476WAT     H222671   2.257   4.874   4.989
 7477WAT      O22672   8.650   2.984   6.367
 7477WAT     H122673   8.610   3.006   6.456
 7477WAT     H222674   8.578   2.981   6.298
 7478WAT      O22675   8.692   6.010   2.702
 7478WAT     H122676   8.694   5.991   2.800
 7478WAT     H222677   8.598   6.008   2.669
 7479WAT      O22678   3.086   9.216   9.172
 7479WAT     H122679   3.048   9.302   9.207
 7479WAT     H222680   3.128   9.232   9.083
 7480WAT      O22681   4.365   9.227   4.206
 7480WAT     H122682   4.319   9.274   4.282
 7480WAT     H222683   4.464   9.233   4.218
 7481WAT      O22684   4.529   8.440   0.799
 7481WAT     H122685   4.475   8.476   0.724
 7481WAT     H222686   4.515   8.496   0.881
 7482WAT      O22687   4.341   7.585   2.897
 7482WAT     H122688   4.245   7.601   2.875
 7482WAT     H222689   4.365   7.633   2.981
 7483WAT      O22690   1.228   9.253   3.826
 7483WAT     H122691   1.185   9.330   3.781
 7483WAT     H222692   1.272   9.284   3.910
 7484WAT      O22693   3.878   5.742   5.273
 7484WAT     H122694   3.906   5.728   5.178
 7484WAT     H222695   3.954   5.718   5.334
 7485WAT      O22696   7.679   0.075   7.336
 7485WAT     H122697   7.714   0.095   7.244
 7485WAT     H222698   7.722  -0.009   7.370
 7486WAT      O22699   2.058   9.587   9.635
 7486WAT     H122700   2.048   9.487   9.634
 7486WAT     H222701   2.014   9.625   9.554
 7487WAT      O22702   9.521   8.307   7.594
 7487WAT     H122703   9.530   8.212   7.624
 7487WAT     H222704   9.483   8.310   7.502
 7488WAT      O22705   3.282   7.273   4.435
 7488WAT     H122706   3.301   7.319   4.521
 7488WAT     H222707   3.288   7.174   4.448
 7489WAT      O22708   5.164   3.679   7.588
 7489WAT     H122709   5.208   3.659   7.500
 7489WAT     H222710   5.103   3.758   7.578
 7490WAT      O22711   5.810   6.316   1.882
 7490WAT     H122712   5.808   6.399   1.826
 7490WAT     H222713   5.888   6.259   1.854
 7491WAT      O22714   7.973   4.746   8.322
 7491WAT     H122715   8.056   4.799   8.338
 7491WAT     H222716   7.994   4.669   8.262
 7492WAT      O22717   7.319   7.423   0.699
 7492WAT     H122718   7.306   7.359   0.775
 7492WAT     H222719   7.267   7.392   0.619
 7493WAT      O22720   3.683   0.885   7.556
 7493WAT     H122721   3.603   0.845   7.511
 7493WAT     H222722   3.656   0.970   7.601
 7494WAT      O22723   1.533   4.448   8.359
 7494WAT     H122724   1.572   4.509   8.289
 7494WAT     H222725   1.491   4.369   8.315
 7495WAT      O22726   0.042   5.706   5.758
 7495WAT     H122727   0.096   5.748   5.685
 7495WAT     H222728  -0.047   5.750   5.763
 7496WAT      O22729   7.722   1.412   3.290
 7496WAT     H122730   7.707   1.466   3.207
 7496WAT     H222731   7.635   1.373   3.320
 7497WAT      O22732   2.072   0.810   5.038
 7497WAT     H122733   2.170   0.801   5.025
 7497WAT     H222734   2.053   0.891   5.095
 7498WAT      O22735   8.640   2.089   1.463
 7498WAT     H122736   8.580   2.053   1.391
 7498WAT     H222737   8.588   2.150   1.523
 7499WAT      O22738   1.168   4.357   6.044
 7499WAT     H122739   1.133   4.397   6.129
 7499WAT     H222740   1.095   4.355   5.976
 7500WAT      O22741   4.644   7.363   1.804
 7500WAT     H122742   4.735   7.375   1.844
 7500WAT     H222743   4.653   7.343   1.706
 7501WAT      O22744   1.328   1.380   7.404
 7501WAT     H122745   1.350   1.294   7.450
 7501WAT     H222746   1.301   1.448   7.472
 7502WAT      O22747   1.342   1.602   8.830
 7502WAT     H122748   1.311   1.663   8.757
 7502WAT     H222749   1.388   1.523   8.790
 7503WAT      O22750   4.497   9.411   5.686
 7503WAT     H122751   4.467   9.499   5.649
 7503WAT     H222752   4.516   9.421   5.784
 7504WAT      O22753   9.164   4.149   8.186
 7504WAT     H122754   9.140   4.182   8.278
 7504WAT     H222755   9.261   4.127   8.183
 7505WAT      O22756   2.002   2.587   2.413
 7505WAT     H122757   2.073   2.617   2.477
 7505WAT     H222758   1.969   2.497   2.440
 7506WAT      O22759   6.018   8.790   5.773
 7506WAT     H122760   6.090   8.800   5.703
 7506WAT     H222761   5.939   8.744   5.732
 7507WAT      O22762   5.831   4.514   6.324
 7507WAT     H122763   5.892   4.578   6.278
 7507WAT     H222764   5.741   4.554   6.333
 7508WAT      O22765   2.149   6.354   5.216
 7508WAT     H122766   2.194   6.371   5.128
 7508WAT     H222767   2.219   6.350   5.288
 7509WAT      O22768   8.306   7.271   3.540
 7509WAT     H122769   8.332   7.331   3.464
 7509WAT     H222770   8.255   7.193   3.505
 7510WAT      O22771   9.821   7.447   9.683
 7510WAT     H122772   9.857   7.419   9.773
 7510WAT     H222773   9.752   7.518   9.696
 7511WAT      O22774   7.397   3.034   4.826
 7511WAT     H122775   7.445   2.955   4.863
 7511WAT     H222776   7.427   3.117   4.873
 7512WAT      O22777   5.229   5.102   1.311
 7512WAT     H122778   5.253   5.082   1.215
 7512WAT     H222779   5.203   5.198   1.319
 7513WAT      O22780   3.983   3.146   5.188
 7513WAT     H122781   4.003   3.062   5.137
 7513WAT     H222782   3.930   3.208   5.131
 7514WAT      O22783   0.572   7.517   4.669
 7514WAT     H122784   0.652   7.545   4.722
 7514WAT     H222785   0.599   7.447   4.603
 7515WAT      O22786   2.980   2.614   5.195
 7515WAT     H122787   3.024   2.618   5.285
 7515WAT     H222788   3.003   2.528   5.150
 7516WAT      O22789   1.522   0.524   7.799
 7516WAT     H122790   1.602   0.584   7.800
 7516WAT     H222791   1.534   0.452   7.731
 7517WAT      O22792   9.857   9.244   0.949
 7517WAT     H122793   9.847   9.233   0.850
 7517WAT     H222794   9.908   9.328   0.968
 7518WAT      O22795   7.817   9.677   9.467
 7518WAT     H122796   7.766   9.619   9.404
 7518WAT     H222797   7.788   9.657   9.561
 7519WAT      O22798   0.063   4.028   8.718
 7519WAT     H122799   0.002   3.953   8.695
 7519WAT     H222800   0.019   4.087   8.785
 7520WAT      O22801   9.701   1.242   0.902
 7520WAT     H122802   9.710   1.181   0.824
 7520WAT     H222803   9.772   1.313   0.897
 7521WAT      O22804   3.905   8.107   9.302
 7521WAT     H122805   3.857   8.021   9.322
 7521WAT     H222806   3.975   8.090   9.233
 7522WAT      O22807   8.026   2.103   3.465
 7522WAT     H122808   8.022   2.013   3.508
 7522WAT     H222809   8.034   2.173   3.536
 7523WAT      O22810   8.521   9.738   0.173
 7523WAT     H122811   8.583   9.791   0.115
 7523WAT     H222812   8.467   9.676   0.116
 7524WAT      O22813   2.189   1.410   6.020
 7524WAT     H122814   2.257   1.409   5.946
 7524WAT     H222815   2.174   1.317   6.053
 7525WAT      O22816   5.634   1.170   5.135
 7525WAT     H122817   5.636   1.081   5.090
 7525WAT     H222818   5.565   1.228   5.091
 7526WAT      O22819   8.166   3.923   0.148
 7526WAT     H122820   8.226   3.992   0.106
 7526WAT     H222821   8.071   3.947   0.132
 7527WAT      O22822   4.939   4.845   8.420
 7527WAT     H122823   4.984   4.820   8.334
 7527WAT     H222824   4.992   4.809   8.497
 7528WAT      O22825   2.985   1.437   9.608
 7528WAT     H122826   2.916   1.365   9.613
 7528WAT     H222827   2.967   1.506   9.679
 7529WAT      O22828   2.880   8.254   9.878
 7529WAT     H122829   2.825   8.308   9.940
 7529WAT     H222830   2.835   8.166   9.860
 7530WAT      O22831   2.999   5.108   3.929
 7530WAT     H122832   2.971   5.109   3.833
 7530WAT     H222833   3.087   5.060   3.937
 7531WAT      O22834   5.408   5.646   8.218
 7531WAT     H122835   5.340   5.654   8.291
 7531WAT     H222836   5.362   5.645   8.129
 7532WAT      O22837   2.023   5.565   6.958
 7532WAT     H122838   1.954   5.503   6.995
 7532WAT     H222839   2.054   5.531   6.870
 7533WAT      O22840   1.699   8.347   5.416
 7533WAT     H122841   1.710   8.367   5.319
 7533WAT     H222842   1.731   8.254   5.435
 7534WAT      O22843   3.626   1.650   7.238
 7534WAT     H122844   3.697   1.580   7.228
 7534WAT     H222845   3.648   1.728   7.180
 7535WAT      O22846   8.689   3.735   2.915
 7535WAT     H122847   8.622   3.679   2.867
 7535WAT     H222848   8.711   3.816   2.860
 7536WAT      O22849   4.297   7.888   0.221
 7536WAT     H122850   4.381   7.942   0.226
 7536WAT     H222851   4.318   7.792   0.243
 7537WAT      O22852   9.866   7.892   4.552
 7537WAT     H122853   9.855   7.888   4.453
 7537WAT     H222854   9.899   7.803   4.586
 7538WAT      O22855   0.557   9.785   4.773
 7538WAT     H122856   0.489   9.851   4.805
 7538WAT     H222857   0.516   9.728   4.701
 7539WAT      O22858   6.512   1.399   9.864
 7539WAT     H122859   6.545   1.305   9.851
 7539WAT     H222860   6.496   1.441   9.774
 7540WAT      O22861   5.626   4.259   7.578
 7540WAT     H122862   5.712   4.300   7.546
 7540WAT     H222863   5.582   4.212   7.502
 7541WAT      O22864   6.150   7.032   5.798
 7541WAT     H122865   6.055   7.002   5.804
 7541WAT     H222866   6.155   7.130   5.819
 7542WAT      O22867   0.417   9.754   9.390
 7542WAT     H122868   0.493   9.692   9.371
 7542WAT     H222869   0.436   9.844   9.349
 7543WAT      O22870   1.168   6.443   8.656
 7543WAT     H122871   1.108   6.394   8.593
 7543WAT     H222872   1.234   6.498   8.605
 7544WAT      O22873   8.325   3.392   8.362
 7544WAT     H122874   8.379   3.476   8.372
 7544WAT     H222875   8.270   3.378   8.445
 7545WAT      O22876   4.422   0.322   3.824
 7545WAT     H122877   4.441   0.264   3.903
 7545WAT     H222878   4.508   0.355   3.786
 7546WAT      O22879   0.900   5.364   9.643
 7546WAT     H122880   0.850   5.450   9.631
 7546WAT     H222881   0.836   5.288   9.641
 7547WAT      O22882   6.141   6.330   8.379
 7547WAT     H122883   6.190   6.348   8.294
 7547WAT     H222884   6.052   6.290   8.359
 7548WAT      O22885   7.431   8.935   6.806
 7548WAT     H122886   7.333   8.933   6.786
 7548WAT     H222887   7.457   9.027   6.835
 7549WAT      O22888   8.543   2.342   7.832
 7549WAT     H122889   8.516   2.343   7.928
 7549WAT     H222890   8.507   2.424   7.786
 7550WAT      O22891   3.591   8.760   7.026
 7550WAT     H122892   3.495   8.785   7.014
 7550WAT     H222893   3.597   8.668   7.065
 7551WAT      O22894   6.902   9.699   4.193
 7551WAT     H122895   6.804   9.691   4.213
 7551WAT     H222896   6.929   9.795   4.199
 7552WAT      O22897   5.892   3.300   5.289
 7552WAT     H122898   5.953   3.225   5.264
 7552WAT     H222899   5.826   3.316   5.215
 7553WAT      O22900   4.145   1.616   8.789
 7553WAT     H122901   4.228   1.585   8.743
 7553WAT     H222902   4.101   1.538   8.834
 7554WAT      O22903   6.224   8.000   0.916
 7554WAT     H122904   6.171   8.040   0.841
 7554WAT     H222905   6.165   7.941   0.971
 7555WAT      O22906   9.632   3.139   7.236
 7555WAT     H122907   9.545   3.187   7.232
 7555WAT     H222908   9.618   3.042   7.215
 7556WAT      O22909   0.053   0.641   4.996
 7556WAT     H122910   0.006   0.617   4.911
 7556WAT     H222911   0.148   0.610   4.991
 7557WAT      O22912   5.359   1.786   9.128
 7557WAT     H122913   5.304   1.788   9.212
 7557WAT     H222914   5.440   1.730   9.143
 7558WAT      O22915   5.769   2.247   3.519
 7558WAT     H122916   5.714   2.329   3.505
 7558WAT     H222917   5.770   2.223   3.616
 7559WAT      O22918   2.820   8.070   7.813
 7559WAT     H122919   2.848   8.001   7.880
 7559WAT     H222920   2.721   8.065   7.799
 7560WAT      O22921   6.510   5.027   9.297
 7560WAT     H122922   6.546   5.092   9.230
 7560WAT     H222923   6.478   5.077   9.377
 7561WAT      O22924   1.886   5.573   6.615
 7561WAT     H122925   1.841   5.657   6.645
 7561WAT     H222926   1.980   5.571   6.651
 7562WAT      O22927   8.208   3.028   6.415
 7562WAT     H122928   8.233   2.976   6.497
 7562WAT     H222929   8.153   3.108   6.441
 7563WAT      O22930   2.658   2.534   2.286
 7563WAT     H122931   2.568   2.571   2.307
 7563WAT     H222932   2.696   2.583   2.207
 7564WAT      O22933   3.537   5.905   9.311
 7564WAT     H122934   3.475   5.965   9.260
 7564WAT     H222935   3.492   5.875   9.395
 7565WAT      O22936   6.472   7.367   1.805
 7565WAT     H122937   6.532   7.372   1.725
 7565WAT     H222938   6.491   7.443   1.866
 7566WAT      O22939   9.370   6.006   4.005
 7566WAT     H122940   9.466   5.976   4.006
 7566WAT     H222941   9.361   6.089   4.060
 7567WAT      O22942   8.709   3.347   9.043
 7567WAT     H122943   8.795   3.387   9.010
 7567WAT     H222944   8.693   3.376   9.138
 7568WAT      O22945   0.993   1.109   9.356
 7568WAT     H122946   1.071   1.050   9.378
 7568WAT     H222947   0.959   1.088   9.265
 7569WAT      O22948   0.880   2.163   4.178
 7569WAT     H122949   0.926   2.249   4.197
 7569WAT     H222950   0.783   2.179   4.161
 7570WAT      O22951   7.910   1.837   2.398
 7570WAT     H122952   7.971   1.758   2.399
 7570WAT     H222953   7.912   1.879   2.308
 7571WAT      O22954   2.477   0.418   6.155
 7571WAT     H122955   2.545   0.344   6.151
 7571WAT     H222956   2.499   0.479   6.231
 7572WAT      O22957   6.725   5.724   0.762
 7572WAT     H122958   6.730   5.635   0.718
 7572WAT     H222959   6.794   5.785   0.722
 7573WAT      O22960   3.691   1.290   7.921
 7573WAT     H122961   3.621   1.342   7.970
 7573WAT     H222962   3.750   1.354   7.872
 7574WAT      O22963   2.177   7.433   5.466
 7574WAT     H122964   2.124   7.503   5.417
 7574WAT     H222965   2.191   7.354   5.406
 7575WAT      O22966   2.145   6.844   9.047
 7575WAT     H122967   2.143   6.782   9.126
 7575WAT     H222968   2.060   6.895   9.042
 7576WAT      O22969   1.510   7.376   4.243
 7576WAT     H122970   1.444   7.396   4.170
 7576WAT     H222971   1.595   7.426   4.226
 7577WAT      O22972   6.927   4.192   0.232
 7577WAT     H122973   6.969   4.101   0.228
 7577WAT     H222974   6.950   4.243   0.149
 7578WAT      O22975   2.985   0.007   0.671
 7578WAT     H122976   2.919  -0.028   0.604
 7578WAT     H222977   2.942   0.011   0.761
 7579WAT      O22978   3.707   6.138   2.726
 7579WAT     H122979   3.797   6.145   2.768
 7579WAT     H222980   3.650   6.075   2.779
 7580WAT      O22981   6.962   4.867   7.448
 7580WAT     H122982   7.028   4.883   7.521
 7580WAT     H222983   7.001   4.896   7.361
 7581WAT      O22984   6.688   4.744   2.390
 7581WAT     H122985   6.607   4.732   2.332
 7581WAT     H222986   6.760   4.682   2.359
 7582WAT      O22987   8.130   3.282   5.167
 7582WAT     H122988   8.123   3.259   5.070
 7582WAT     H222989   8.107   3.378   5.180
 7583WAT      O22990   0.777   6.852   9.037
 7583WAT     H122991   0.825   6.893   8.959
 7583WAT     H222992   0.837   6.854   9.117
 7584WAT      O22993   7.591   1.639   2.143
 7584WAT     H122994   7.536   1.672   2.066
 7584WAT     H222995   7.679   1.605   2.110
 7585WAT      O22996   0.972   9.424   5.282
 7585WAT     H122997   0.971   9.377   5.370
 7585WAT     H222998   0.892   9.397   5.229
 7586WAT      O22999   1.290   4.898   4.165
 7586WAT     H123000   1.242   4.839   4.100
 7586WAT     H223001   1.339   4.970   4.116
 7587WAT      O23002   5.752   4.773   7.089
 7587WAT     H123003   5.839   4.726   7.079
 7587WAT     H223004   5.756   4.863   7.045
 7588WAT      O23005   2.411   3.629   7.797
 7588WAT     H123006   2.429   3.536   7.827
 7588WAT     H223007   2.320   3.634   7.756
 7589WAT      O23008   9.277   4.114   0.423
 7589WAT     H123009   9.204   4.126   0.491
 7589WAT     H223010   9.357   4.075   0.467
 7590WAT      O23011   6.136   4.436   5.190
 7590WAT     H123012   6.198   4.424   5.269
 7590WAT     H223013   6.060   4.495   5.216
 7591WAT      O23014   2.344   1.035   9.197
 7591WAT     H123015   2.353   1.132   9.173
 7591WAT     H223016   2.393   1.017   9.282
 7592WAT      O23017   6.370   8.479   6.156
 7592WAT     H123018   6.307   8.523   6.221
 7592WAT     H223019   6.329   8.394   6.122
 7593WAT      O23020   5.992   5.787   1.491
 7593WAT     H123021   5.970   5.759   1.585
 7593WAT     H223022   6.038   5.876   1.493
 7594WAT      O23023   1.100   1.134   6.784
 7594WAT     H123024   1.196   1.107   6.789
 7594WAT     H223025   1.054   1.106   6.868
 7595WAT      O23026   9.314   3.410   6.320
 7595WAT     H123027   9.398   3.356   6.314
 7595WAT     H223028   9.288   3.442   6.229
 7596WAT      O23029   4.282   6.276   6.598
 7596WAT     H123030   4.246   6.271   6.692
 7596WAT     H223031   4.364   6.334   6.597
 7597WAT      O23032   0.343   1.906   0.751
 7597WAT     H123033   0.292   1.896   0.666
 7597WAT     H223034   0.365   2.002   0.766
 7598WAT      O23035   4.420   5.468   9.614
 7598WAT     H123036   4.504   5.519   9.634
 7598WAT     H223037   4.420   5.441   9.518
 7599WAT      O23038   5.343   6.464   1.323
 7599WAT     H123039   5.328   6.500   1.415
 7599WAT     H223040   5.268   6.493   1.264
 7600WAT      O23041   4.011   2.101   9.321
 7600WAT     H123042   4.054   2.011   9.329
 7600WAT     H223043   3.943   2.099   9.247
 7601WAT      O23044   4.873   2.851   3.714
 7601WAT     H123045   4.792   2.828   3.660
 7601WAT     H223046   4.949   2.792   3.688
 7602WAT      O23047   6.150   3.584   4.882
 7602WAT     H123048   6.095   3.654   4.927
 7602WAT     H223049   6.110   3.494   4.898
 7603WAT      O23050   8.266   1.038   7.820
 7603WAT     H123051   8.342   0.978   7.793
 7603WAT     H223052   8.190   0.983   7.854
 7604WAT      O23053   1.717   0.948   0.048
 7604WAT     H123054   1.629   0.994   0.058
 7604WAT     H223055   1.775   0.968   0.127
 7605WAT      O23056   5.711   8.714   2.968
 7605WAT     H123057   5.685   8.711   3.064
 7605WAT     H223058   5.669   8.638   2.919
 7606WAT      O23059   6.631   0.015   2.742
 7606WAT     H123060   6.692  -0.026   2.810
 7606WAT     H223061   6.539   0.023   2.781
 7607WAT      O23062   3.144   4.423   6.900
 7607WAT     H123063   3.230   4.468   6.921
 7607WAT     H223064   3.161   4.339   6.849
 7608WAT      O23065   2.425   9.767   7.381
 7608WAT     H123066   2.418   9.685   7.437
 7608WAT     H223067   2.427   9.742   7.284
 7609WAT      O23068   8.325   0.007   4.777
 7609WAT     H123069   8.245   0.018   4.718
 7609WAT     H223070   8.396  -0.043   4.728
 7610WAT      O23071   5.026   9.197   0.999
 7610WAT     H123072   5.022   9.220   1.096
 7610WAT     H223073   5.119   9.209   0.965
 7611WAT      O23074   2.314   0.084   7.983
 7611WAT     H123075   2.279   0.014   8.046
 7611WAT     H223076   2.309   0.173   8.027
 7612WAT      O23077   7.011   5.270   7.576
 7612WAT     H123078   7.008   5.240   7.671
 7612WAT     H223079   6.945   5.344   7.562
 7613WAT      O23080   0.493   7.285   0.759
 7613WAT     H123081   0.516   7.382   0.749
 7613WAT     H223082   0.438   7.272   0.841
 7614WAT      O23083   3.717   8.374   2.430
 7614WAT     H123084   3.731   8.425   2.345
 7614WAT     H223085   3.713   8.438   2.507
 7615WAT      O23086   8.514   4.219   7.123
 7615WAT     H123087   8.578   4.266   7.063
 7615WAT     H223088   8.439   4.181   7.068
 7616WAT      O23089   7.957   8.240   7.155
 7616WAT     H123090   7.953   8.143   7.181
 7616WAT     H223091   8.017   8.250   7.075
 7617WAT      O23092   7.730   8.508   0.696
 7617WAT     H123093   7.747   8.541   0.603
 7617WAT     H223094   7.636   8.473   0.702
 7618WAT      O23095   4.545   9.417   8.334
 7618WAT     H123096   4.591   9.474   8.403
 7618WAT     H223097   4.561   9.320   8.354
 7619WAT      O23098   9.605   4.091   6.518
 7619WAT     H123099   9.619   4.080   6.420
 7619WAT     H223100   9.550   4.172   6.536
 7620WAT      O23101   8.425   9.105   7.974
 7620WAT     H123102   8.450   9.199   7.952
 7620WAT     H223103   8.357   9.072   7.908
 7621WAT      O23104   9.243   4.886   6.217
 7621WAT     H123105   9.239   4.795   6.175
 7621WAT     H223106   9.154   4.908   6.256
 7622WAT      O23107   8.005   0.088   5.000
 7622WAT     H123108   7.971   0.179   5.026
 7622WAT     H223109   7.934   0.039   4.949
 7623WAT      O23110   6.739   8.351   0.785
 7623WAT     H123111   6.666   8.286   0.805
 7623WAT     H223112   6.722   8.437   0.833
 7624WAT      O23113   9.543   6.159   9.624
 7624WAT     H123114   9.480   6.188   9.696
 7624WAT     H223115   9.626   6.215   9.628
 7625WAT      O23116   8.224   5.098   0.650
 7625WAT     H123117   8.296   5.034   0.678
 7625WAT     H223118   8.167   5.055   0.581
 7626WAT      O23119   8.643   9.361   1.645
 7626WAT     H123120   8.549   9.370   1.679
 7626WAT     H223121   8.706   9.405   1.709
 7627WAT      O23122   6.692   2.583   3.894
 7627WAT     H123123   6.762   2.649   3.922
 7627WAT     H223124   6.653   2.540   3.975
 7628WAT      O23125   0.778   9.159   4.556
 7628WAT     H123126   0.809   9.247   4.520
 7628WAT     H223127   0.824   9.140   4.643
 7629WAT      O23128   4.536   9.051   9.144
 7629WAT     H123129   4.469   8.977   9.138
 7629WAT     H223130   4.627   9.013   9.126
 7630WAT      O23131   9.290   5.412   9.836
 7630WAT     H123132   9.350   5.342   9.797
 7630WAT     H223133   9.328   5.503   9.817
 7631WAT      O23134   7.219   9.795   2.025
 7631WAT     H123135   7.125   9.786   2.057
 7631WAT     H223136   7.281   9.789   2.103
 7632WAT      O23137   0.352   5.045   5.017
 7632WAT     H123138   0.274   5.095   5.055
 7632WAT     H223139   0.435   5.075   5.064
 7633WAT      O23140   0.777   7.766   7.252
 7633WAT     H123141   0.716   7.767   7.331
 7633WAT     H223142   0.729   7.799   7.171
 7634WAT      O23143   3.224   1.672   8.589
 7634WAT     H123144   3.166   1.750   8.568
 7634WAT     H223145   3.319   1.702   8.597
 7635WAT      O23146   6.221   0.154   8.207
 7635WAT     H123147   6.242   0.145   8.304
 7635WAT     H223148   6.224   0.251   8.181
 7636WAT      O23149   1.620   3.247   8.357
 7636WAT     H123150   1.527   3.213   8.348
 7636WAT     H223151   1.675   3.215   8.280
 7637WAT      O23152   3.055   0.088   5.807
 7637WAT     H123153   3.118   0.105   5.731
 7637WAT     H223154   2.979   0.153   5.803
 7638WAT      O23155   9.805   3.012   6.945
 7638WAT     H123156   9.766   2.944   6.884
 7638WAT     H223157   9.743   3.090   6.953
 7639WAT      O23158   4.130   3.804   8.482
 7639WAT     H123159   4.071   3.883   8.501
 7639WAT     H223160   4.224   3.827   8.504
 7640WAT      O23161   9.643   5.180   0.135
 7640WAT     H123162   9.685   5.182   0.045
 7640WAT     H223163   9.677   5.257   0.190
 7641WAT      O23164   5.437   7.285   0.250
 7641WAT     H123165   5.491   7.229   0.313
 7641WAT     H223166   5.478   7.376   0.242
 7642WAT      O23167   5.271   4.638   3.005
 7642WAT     H123168   5.270   4.546   2.966
 7642WAT     H223169   5.278   4.705   2.931
 7643WAT      O23170   4.975   6.850   0.729
 7643WAT     H123171   4.947   6.913   0.802
 7643WAT     H223172   5.061   6.883   0.689
 7644WAT      O23173   1.929   9.818   4.862
 7644WAT     H123174   2.012   9.866   4.834
 7644WAT     H223175   1.913   9.740   4.802
 7645WAT      O23176   2.548   8.769   0.984
 7645WAT     H123177   2.568   8.854   1.033
 7645WAT     H223178   2.465   8.781   0.930
 7646WAT      O23179   6.512   5.059   6.790
 7646WAT     H123180   6.596   5.006   6.793
 7646WAT     H223181   6.441   5.007   6.743
 7647WAT      O23182   1.054   3.309   1.462
 7647WAT     H123183   0.958   3.314   1.436
 7647WAT     H223184   1.070   3.227   1.517
 7648WAT      O23185   9.681   5.867   8.705
 7648WAT     H123186   9.665   5.769   8.688
 7648WAT     H223187   9.595   5.910   8.733
 7649WAT      O23188   3.608   4.920   6.577
 7649WAT     H123189   3.704   4.946   6.566
 7649WAT     H223190   3.551   5.002   6.576
 7650WAT      O23191   6.527   7.421   2.511
 7650WAT     H123192   6.537   7.332   2.466
 7650WAT     H223193   6.505   7.407   2.607
 7651WAT      O23194   4.708   5.924   3.857
 7651WAT     H123195   4.705   5.829   3.889
 7651WAT     H223196   4.788   5.970   3.896
 7652WAT      O23197   7.559   7.994   2.519
 7652WAT     H123198   7.569   7.929   2.444
 7652WAT     H223199   7.570   8.087   2.484
 7653WAT      O23200   3.677   0.891   5.257
 7653WAT     H123201   3.682   0.989   5.233
 7653WAT     H223202   3.768   0.859   5.284
 7654WAT      O23203   4.334   5.588   2.611
 7654WAT     H123204   4.293   5.632   2.692
 7654WAT     H223205   4.428   5.560   2.633
 7655WAT      O23206   8.157   7.757   6.350
 7655WAT     H123207   8.246   7.724   6.382
 7655WAT     H223208   8.158   7.762   6.250
 7656WAT      O23209   7.888   9.026   8.986
 7656WAT     H123210   7.906   9.029   8.888
 7656WAT     H223211   7.825   9.100   9.011
 7657WAT      O23212   6.877   0.693   9.127
 7657WAT     H123213   6.778   0.700   9.123
 7657WAT     H223214   6.904   0.631   9.201
 7658WAT      O23215   0.796   1.962   2.746
 7658WAT     H123216   0.756   1.880   2.706
 7658WAT     H223217   0.894   1.965   2.727
 7659WAT      O23218   6.191   6.334   7.099
 7659WAT     H123219   6.224   6.427   7.119
 7659WAT     H223220   6.110   6.340   7.041
 7660WAT      O23221   1.099   7.244   0.743
 7660WAT     H123222   1.157   7.183   0.690
 7660WAT     H223223   1.008   7.249   0.701
 7661WAT      O23224   7.595   2.472   0.902
 7661WAT     H123225   7.664   2.402   0.887
 7661WAT     H223226   7.517   2.456   0.843
 7662WAT      O23227   6.601   6.456   4.043
 7662WAT     H123228   6.571   6.441   3.949
 7662WAT     H223229   6.613   6.554   4.058
 7663WAT      O23230   9.586   4.429   0.526
 7663WAT     H123231   9.490   4.431   0.498
 7663WAT     H223232   9.595   4.469   0.617
 7664WAT      O23233   6.909   7.602   6.787
 7664WAT     H123234   6.992   7.614   6.842
 7664WAT     H223235   6.903   7.507   6.757
 7665WAT      O23236   9.138   7.589   6.007
 7665WAT     H123237   9.157   7.492   5.991
 7665WAT     H223238   9.043   7.609   5.985
 7666WAT      O23239   5.679   2.139   0.434
 7666WAT     H123240   5.644   2.052   0.469
 7666WAT     H223241   5.659   2.212   0.498
 7667WAT      O23242   0.074   8.195   7.399
 7667WAT     H123243   0.080   8.137   7.480
 7667WAT     H223244  -0.012   8.247   7.401
 7668WAT      O23245   0.145   7.047   4.246
 7668WAT     H123246   0.056   7.090   4.234
 7668WAT     H223247   0.194   7.047   4.159
 7669WAT      O23248   1.323   4.863   5.627
 7669WAT     H123249   1.391   4.931   5.653
 7669WAT     H223250   1.240   4.909   5.596
 7670WAT      O23251   5.809   1.409   2.271
 7670WAT     H123252   5.893   1.372   2.230
 7670WAT     H223253   5.831   1.487   2.329
 7671WAT      O23254   0.540   1.286   8.668
 7671WAT     H123255   0.574   1.334   8.749
 7671WAT     H223256   0.582   1.323   8.586
 7672WAT      O23257   2.535   8.037   7.859
 7672WAT     H123258   2.464   8.082   7.806
 7672WAT     H223259   2.542   8.081   7.949
 7673WAT      O23260   6.308   2.292   9.613
 7673WAT     H123261   6.336   2.343   9.532
 7673WAT     H223262   6.356   2.204   9.616
 7674WAT      O23263   1.702   0.625   6.990
 7674WAT     H123264   1.793   0.664   6.977
 7674WAT     H223265   1.671   0.583   6.904
 7675WAT      O23266   1.068   0.322   7.065
 7675WAT     H123267   1.026   0.407   7.094
 7675WAT     H223268   1.168   0.331   7.066
 7676WAT      O23269   8.663   2.900   1.790
 7676WAT     H123270   8.701   2.844   1.716
 7676WAT     H223271   8.566   2.914   1.775
 7677WAT      O23272   7.557   9.667   7.190
 7677WAT     H123273   7.654   9.650   7.208
 7677WAT     H223274   7.544   9.764   7.168
 7678WAT      O23275   7.256   3.722   0.175
 7678WAT     H123276   7.229   3.629   0.150
 7678WAT     H223277   7.318   3.719   0.254
 7679WAT      O23278   9.275   9.545   7.586
 7679WAT     H123279   9.213   9.622   7.572
 7679WAT     H223280   9.277   9.523   7.684
 7680WAT      O23281   3.714   1.733   6.006
 7680WAT     H123282   3.680   1.641   6.027
 7680WAT     H223283   3.679   1.762   5.916
 7681WAT      O23284   9.858   8.987   7.080
 7681WAT     H123285   9.888   9.028   6.994
 7681WAT     H223286   9.795   9.050   7.126
 7682WAT      O23287   2.239   9.698   0.418
 7682WAT     H123288   2.292   9.715   0.335
 7682WAT     H223289   2.263   9.609   0.456
 7683WAT      O23290   4.363   1.603   0.160
 7683WAT     H123291   4.294   1.573   0.095
 7683WAT     H223292   4.319   1.624   0.248
 7684WAT      O23293   8.558   6.346   1.484
 7684WAT     H123294   8.582   6.252   1.508
 7684WAT     H223295   8.481   6.345   1.420
 7685WAT      O23296   6.955   6.836   7.390
 7685WAT     H123297   7.027   6.766   7.393
 7685WAT     H223298   6.885   6.809   7.324
 7686WAT      O23299   8.035   9.541   2.813
 7686WAT     H123300   8.028   9.632   2.774
 7686WAT     H223301   8.084   9.480   2.751
 7687WAT      O23302   3.333   7.411   3.472
 7687WAT     H123303   3.285   7.334   3.513
 7687WAT     H223304   3.300   7.424   3.378
 7688WAT      O23305   1.748   1.498   8.764
 7688WAT     H123306   1.704   1.521   8.677
 7688WAT     H223307   1.842   1.470   8.748
 7689WAT      O23308   7.669   4.251   3.448
 7689WAT     H123309   7.621   4.332   3.481
 7689WAT     H223310   7.759   4.277   3.414
 7690WAT      O23311   8.531   8.437   5.307
 7690WAT     H123312   8.490   8.349   5.282
 7690WAT     H223313   8.618   8.449   5.260
 7691WAT      O23314   7.156   4.157   0.917
 7691WAT     H123315   7.245   4.202   0.932
 7691WAT     H223316   7.116   4.192   0.833
 7692WAT      O23317   1.101   5.156   9.728
 7692WAT     H123318   1.057   5.239   9.693
 7692WAT     H223319   1.054   5.126   9.810
 7693WAT      O23320   4.073   9.013   0.591
 7693WAT     H123321   4.069   9.109   0.564
 7693WAT     H223322   4.163   8.992   0.630
 7694WAT      O23323   7.257   9.221   6.317
 7694WAT     H123324   7.311   9.137   6.315
 7694WAT     H223325   7.169   9.205   6.270
 7695WAT      O23326   5.271   3.944   8.222
 7695WAT     H123327   5.300   3.968   8.314
 7695WAT     H223328   5.174   3.918   8.223
 7696WAT      O23329   3.983   0.005   0.933
 7696WAT     H123330   4.053   0.046   0.992
 7696WAT     H223331   4.012  -0.087   0.905
 7697WAT      O23332   7.302   2.808   5.616
 7697WAT     H123333   7.208   2.836   5.637
 7697WAT     H223334   7.314   2.804   5.517
 7698WAT      O23335   8.832   7.359   7.450
 7698WAT     H123336   8.813   7.437   7.510
 7698WAT     H223337   8.924   7.368   7.412
 7699WAT      O23338   8.695   2.697   5.034
 7699WAT     H123339   8.702   2.670   5.130
 7699WAT     H223340   8.736   2.627   4.976
 7700WAT      O23341   4.474   0.730   8.827
 7700WAT     H123342   4.572   0.713   8.818
 7700WAT     H223343   4.429   0.713   8.740
 7701WAT      O23344   5.700   4.299   8.109
 7701WAT     H123345   5.700   4.244   8.193
 7701WAT     H223346   5.703   4.238   8.030
 7702WAT      O23347   8.962   5.861   8.001
 7702WAT     H123348   8.985   5.817   7.914
 7702WAT     H223349   8.862   5.864   8.012
 7703WAT      O23350   3.784   4.367   9.800
 7703WAT     H123351   3.843   4.444   9.775
 7703WAT     H223352   3.713   4.356   9.731
 7704WAT      O23353   8.651   3.767   5.151
 7704WAT     H123354   8.594   3.689   5.124
 7704WAT     H223355   8.739   3.734   5.185
 7705WAT      O23356   3.829   2.342   9.111
 7705WAT     H123357   3.920   2.379   9.094
 7705WAT     H223358   3.834   2.242   9.116
 7706WAT      O23359   9.518   0.206   1.676
 7706WAT     H123360   9.481   0.115   1.660
 7706WAT     H223361   9.447   0.265   1.715
 7707WAT      O23362   3.826   0.095   7.000
 7707WAT     H123363   3.836   0.008   7.048
 7707WAT     H223364   3.903   0.109   6.938
 7708WAT      O23365   4.971   2.624   8.261
 7708WAT     H123366   4.939   2.686   8.190
 7708WAT     H223367   5.031   2.674   8.324
 7709WAT      O23368   9.799   7.838   0.635
 7709WAT     H123369   9.830   7.757   0.586
 7709WAT     H223370   9.706   7.824   0.668
 7710WAT      O23371   9.275   0.139   9.272
 7710WAT     H123372   9.347   0.176   9.214
 7710WAT     H223373   9.192   0.126   9.219
 7711WAT      O23374   6.226   9.816   5.010
 7711WAT     H123375   6.134   9.848   4.986
 7711WAT     H223376   6.231   9.802   5.109
 7712WAT      O23377   3.990   5.826   7.138
 7712WAT     H123378   4.058   5.891   7.104
 7712WAT     H223379   4.034   5.738   7.155
 7713WAT      O23380   6.942   3.230   8.573
 7713WAT     H123381   7.032   3.184   8.578
 7713WAT     H223382   6.953   3.326   8.596
 7714WAT      O23383   8.627   1.261   2.650
 7714WAT     H123384   8.715   1.309   2.642
 7714WAT     H223385   8.641   1.163   2.638
 7715WAT      O23386   6.909   8.884   2.267
 7715WAT     H123387   6.819   8.906   2.229
 7715WAT     H223388   6.965   8.838   2.198
 7716WAT      O23389   4.800   9.034   6.888
 7716WAT     H123390   4.887   9.058   6.932
 7716WAT     H223391   4.727   9.031   6.957
 7717WAT      O23392   6.050   2.214   7.127
 7717WAT     H123393   6.069   2.130   7.075
 7717WAT     H223394   6.010   2.282   7.067
 7718WAT      O23395   9.112   8.840   1.434
 7718WAT     H123396   9.179   8.890   1.379
 7718WAT     H223397   9.106   8.746   1.401
 7719WAT      O23398   4.110   8.956   3.068
 7719WAT     H123399   4.163   9.002   2.997
 7719WAT     H223400   4.139   8.861   3.076
 7720WAT      O23401   9.196   6.886   0.401
 7720WAT     H123402   9.200   6.791   0.371
 7720WAT     H223403   9.101   6.912   0.419
 7721WAT      O23404   9.588   3.660   4.599
 7721WAT     H123405   9.625   3.751   4.618
 7721WAT     H223406   9.494   3.655   4.631
 7722WAT      O23407   1.501   3.623   1.965
 7722WAT     H123408   1.492   3.602   2.062
 7722WAT     H223409   1.411   3.646   1.927
 7723WAT      O23410   4.752   7.196   4.549
 7723WAT     H123411   4.850   7.201   4.531
 7723WAT     H223412   4.734   7.223   4.644
 7724WAT      O23413   1.708   0.864   3.847
 7724WAT     H123414   1.621   0.866   3.797
 7724WAT     H223415   1.703   0.797   3.920
 7725WAT      O23416   1.505   0.978   5.956
 7725WAT     H123417   1.406   0.976   5.955
 7725WAT     H223418   1.537   0.993   6.050
 7726WAT      O23419   2.223   3.699   0.036
 7726WAT     H123420   2.194   3.700  -0.060
 7726WAT     H223421   2.315   3.737   0.043
 7727WAT      O23422   9.658   2.661   7.101
 7727WAT     H123423   9.742   2.622   7.137
 7727WAT     H223424   9.629   2.738   7.157
 7728WAT      O23425   4.211   9.519   0.568
 7728WAT     H123426   4.149   9.573   0.512
 7728WAT     H223427   4.301   9.561   0.568
 7729WAT      O23428   2.075   2.229   1.321
 7729WAT     H123429   2.039   2.256   1.231
 7729WAT     H223430   2.042   2.293   1.390
 7730WAT      O23431   3.376   1.113   4.174
 7730WAT     H123432   3.471   1.087   4.187
 7730WAT     H223433   3.330   1.118   4.262
 7731WAT      O23434   6.030   8.614   5.102
 7731WAT     H123435   6.084   8.697   5.116
 7731WAT     H223436   5.953   8.633   5.041
 7732WAT      O23437   4.449   0.442   3.305
 7732WAT     H123438   4.414   0.469   3.215
 7732WAT     H223439   4.420   0.348   3.325
 7733WAT      O23440   8.332   5.215   9.209
 7733WAT     H123441   8.361   5.259   9.294
 7733WAT     H223442   8.237   5.185   9.218
 7734WAT      O23443   7.575   5.082   4.359
 7734WAT     H123444   7.603   5.021   4.285
 7734WAT     H223445   7.476   5.085   4.364
 7735WAT      O23446   2.993   1.680   6.120
 7735WAT     H123447   2.981   1.694   6.218
 7735WAT     H223448   2.911   1.710   6.072
 7736WAT      O23449   1.650   2.191   0.287
 7736WAT     H123450   1.582   2.181   0.214
 7736WAT     H223451   1.735   2.146   0.259
 7737WAT      O23452   6.059   8.040   6.027
 7737WAT     H123453   6.053   7.965   6.093
 7737WAT     H223454   6.075   8.003   5.936
 7738WAT      O23455   2.816   9.789   6.470
 7738WAT     H123456   2.721   9.788   6.503
 7738WAT     H223457   2.827   9.862   6.402
 7739WAT      O23458   1.820   1.909   2.311
 7739WAT     H123459   1.836   1.818   2.273
 7739WAT     H223460   1.750   1.956   2.257
 7740WAT      O23461   6.254   9.443   9.445
 7740WAT     H123462   6.214   9.526   9.484
 7740WAT     H223463   6.206   9.363   9.481
 7741WAT      O23464   6.593   6.408   4.314
 7741WAT     H123465   6.522   6.347   4.348
 7741WAT     H223466   6.598   6.401   4.214
 7742WAT      O23467   1.992   6.400   8.731
 7742WAT     H123468   2.014   6.372   8.638
 7742WAT     H223469   2.067   6.455   8.768
 7743WAT      O23470   6.289   1.633   1.843
 7743WAT     H123471   6.199   1.676   1.844
 7743WAT     H223472   6.359   1.702   1.832
 7744WAT      O23473   6.379   7.770   6.888
 7744WAT     H123474   6.302   7.827   6.918
 7744WAT     H223475   6.344   7.681   6.857
 7745WAT      O23476   5.191   0.294   0.743
 7745WAT     H123477   5.193   0.345   0.657
 7745WAT     H223478   5.265   0.325   0.802
 7746WAT      O23479   3.127   1.482   9.232
 7746WAT     H123480   3.174   1.480   9.144
 7746WAT     H223481   3.109   1.577   9.258
 7747WAT      O23482   2.448   6.220   9.392
 7747WAT     H123483   2.492   6.132   9.408
 7747WAT     H223484   2.400   6.249   9.475
 7748WAT      O23485   8.008   3.374   2.840
 7748WAT     H123486   7.991   3.288   2.792
 7748WAT     H223487   7.925   3.430   2.840
 7749WAT      O23488   3.117   0.835   7.397
 7749WAT     H123489   3.100   0.764   7.329
 7749WAT     H223490   3.215   0.838   7.418
 7750WAT      O23491   7.984   0.039   0.356
 7750WAT     H123492   7.981  -0.047   0.304
 7750WAT     H223493   7.895   0.084   0.350
 7751WAT      O23494   2.079   1.958   5.299
 7751WAT     H123495   2.156   1.954   5.362
 7751WAT     H223496   2.020   1.879   5.312
 7752WAT      O23497   7.500   9.221   6.903
 7752WAT     H123498   7.445   9.220   6.987
 7752WAT     H223499   7.456   9.282   6.836
 7753WAT      O23500   7.239   4.982   3.987
 7753WAT     H123501   7.321   5.005   3.934
 7753WAT     H223502   7.262   4.979   4.084
 7754WAT      O23503   5.099   3.558   0.589
 7754WAT     H123504   5.047   3.550   0.674
 7754WAT     H223505   5.195   3.535   0.606
 7755WAT      O23506   4.613   3.902   1.107
 7755WAT     H123507   4.710   3.890   1.085
 7755WAT     H223508   4.559   3.837   1.054
 7756WAT      O23509   3.974   9.188   3.192
 7756WAT     H123510   3.996   9.114   3.128
 7756WAT     H223511   3.979   9.275   3.143
 7757WAT      O23512   0.411   7.483   3.213
 7757WAT     H123513   0.461   7.454   3.295
 7757WAT     H223514   0.449   7.569   3.180
 7758WAT      O23515   8.396   1.102   5.355
 7758WAT     H123516   8.434   1.148   5.275
 7758WAT     H223517   8.435   1.141   5.438
 7759WAT      O23518   1.761   0.437   7.192
 7759WAT     H123519   1.759   0.341   7.162
 7759WAT     H223520   1.713   0.493   7.124
 7760WAT      O23521   1.302   7.469   7.632
 7760WAT     H123522   1.390   7.485   7.588
 7760WAT     H223523   1.267   7.554   7.671
 7761WAT      O23524   3.936   8.025   4.304
 7761WAT     H123525   3.968   8.060   4.215
 7761WAT     H223526   4.009   7.970   4.346
 7762WAT      O23527   5.271   6.488   6.849
 7762WAT     H123528   5.303   6.394   6.857
 7762WAT     H223529   5.302   6.527   6.762
 7763WAT      O23530   7.857   7.680   8.159
 7763WAT     H123531   7.775   7.638   8.121
 7763WAT     H223532   7.832   7.744   8.232
 7764WAT      O23533   4.421   5.396   9.342
 7764WAT     H123534   4.368   5.330   9.288
 7764WAT     H223535   4.507   5.415   9.296
 7765WAT      O23536   4.156   6.693   7.202
 7765WAT     H123537   4.147   6.672   7.105
 7765WAT     H223538   4.104   6.626   7.255
 7766WAT      O23539   1.652   1.190   8.274
 7766WAT     H123540   1.565   1.229   8.243
 7766WAT     H223541   1.658   1.095   8.246
 7767WAT      O23542   3.630   3.675   3.492
 7767WAT     H123543   3.682   3.752   3.456
 7767WAT     H223544   3.661   3.653   3.585
 7768WAT      O23545   2.985   6.774   6.096
 7768WAT     H123546   2.916   6.701   6.101
 7768WAT     H223547   3.065   6.747   6.149
 7769WAT      O23548   4.652   8.957   4.636
 7769WAT     H123549   4.687   9.050   4.649
 7769WAT     H223550   4.556   8.961   4.609
 7770WAT      O23551   5.145   1.983   0.090
 7770WAT     H123552   5.105   2.068   0.055
 7770WAT     H223553   5.208   1.945   0.022
 7771WAT      O23554   6.538   0.929   5.054
 7771WAT     H123555   6.486   0.900   5.134
 7771WAT     H223556   6.595   0.853   5.022
 7772WAT      O23557   6.163   5.593   2.430
 7772WAT     H123558   6.242   5.648   2.456
 7772WAT     H223559   6.169   5.569   2.333
 7773WAT      O23560   4.086   1.440   7.262
 7773WAT     H123561   4.167   1.487   7.297
 7773WAT     H223562   4.113   1.359   7.211
 7774WAT      O23563   0.589   9.255   9.063
 7774WAT     H123564   0.530   9.327   9.100
 7774WAT     H223565   0.554   9.166   9.091
 7775WAT      O23566   7.176   5.426   9.079
 7775WAT     H123567   7.111   5.384   9.142
 7775WAT     H223568   7.206   5.514   9.117
 7776WAT      O23569   8.933   5.242   9.298
 7776WAT     H123570   8.938   5.246   9.199
 7776WAT     H223571   8.944   5.147   9.328
 7777WAT      O23572   8.265   7.432   8.960
 7777WAT     H123573   8.251   7.335   8.943
 7777WAT     H223574   8.181   7.472   8.998
 7778WAT      O23575   5.501   8.293   2.337
 7778WAT     H123576   5.449   8.261   2.416
 7778WAT     H223577   5.442   8.349   2.279
 7779WAT      O23578   8.043   7.494   3.917
 7779WAT     H123579   8.136   7.505   3.953
 7779WAT     H223580   8.044   7.427   3.843
 7780WAT      O23581   8.110   1.631   2.889
 7780WAT     H123582   8.092   1.548   2.836
 7780WAT     H223583   8.202   1.626   2.928
 7781WAT      O23584   8.501   9.208   6.077
 7781WAT     H123585   8.446   9.212   6.161
 7781WAT     H223586   8.534   9.115   6.064
 7782WAT      O23587   6.456   3.627   0.208
 7782WAT     H123588   6.410   3.664   0.127
 7782WAT     H223589   6.488   3.703   0.265
 7783WAT      O23590   3.926   3.987   9.640
 7783WAT     H123591   3.907   4.034   9.554
 7783WAT     H223592   3.881   3.898   9.640
 7784WAT      O23593   3.835   0.559   0.345
 7784WAT     H123594   3.813   0.469   0.309
 7784WAT     H223595   3.931   0.561   0.375
 7785WAT      O23596   2.062   0.584   2.775
 7785WAT     H123597   1.995   0.658   2.773
 7785WAT     H223598   2.115   0.586   2.690
 7786WAT      O23599   5.609   0.221   2.998
 7786WAT     H123600   5.545   0.274   3.054
 7786WAT     H223601   5.700   0.262   3.002
 7787WAT      O23602   3.025   5.318   2.487
 7787WAT     H123603   3.017   5.294   2.583
 7787WAT     H223604   3.116   5.356   2.470
 7788WAT      O23605   5.741   3.129   8.470
 7788WAT     H123606   5.697   3.106   8.383
 7788WAT     H223607   5.751   3.046   8.526
 7789WAT      O23608   1.635   5.730   3.220
 7789WAT     H123609   1.683   5.649   3.186
 7789WAT     H223610   1.687   5.771   3.295
 7790WAT      O23611   6.367   4.693   4.143
 7790WAT     H123612   6.362   4.603   4.188
 7790WAT     H223613   6.447   4.743   4.178
 7791WAT      O23614   5.870   8.409   8.478
 7791WAT     H123615   5.837   8.499   8.451
 7791WAT     H223616   5.939   8.418   8.551
 7792WAT      O23617   7.611   2.629   9.002
 7792WAT     H123618   7.544   2.661   9.069
 7792WAT     H223619   7.575   2.548   8.955
 7793WAT      O23620   1.035   1.521   2.839
 7793WAT     H123621   1.011   1.550   2.932
 7793WAT     H223622   0.957   1.537   2.778
 7794WAT      O23623   2.180   6.455   6.102
 7794WAT     H123624   2.130   6.539   6.079
 7794WAT     H223625   2.277   6.469   6.084
 7795WAT      O23626   9.863   6.729   8.315
 7795WAT     H123627   9.927   6.748   8.240
 7795WAT     H223628   9.770   6.753   8.286
 7796WAT      O23629   7.700   8.425   0.330
 7796WAT     H123630   7.733   8.513   0.365
 7796WAT     H223631   7.774   8.357   0.337
 7797WAT      O23632   4.531   8.301   2.113
 7797WAT     H123633   4.595   8.358   2.165
 7797WAT     H223634   4.439   8.311   2.151
 7798WAT      O23635   8.335   3.228   4.040
 7798WAT     H123636   8.416   3.172   4.055
 7798WAT     H223637   8.361   3.325   4.043
 7799WAT      O23638   4.123   8.424   4.802
 7799WAT     H123639   4.213   8.381   4.796
 7799WAT     H223640   4.118   8.501   4.738
 7800WAT      O23641   0.688   1.349   2.916
 7800WAT     H123642   0.736   1.390   2.838
 7800WAT     H223643   0.602   1.397   2.931
 7801WAT      O23644   8.007   4.986   5.517
 7801WAT     H123645   7.945   4.935   5.577
 7801WAT     H223646   8.099   4.948   5.525
 7802WAT      O23647   7.827   0.213   5.848
 7802WAT     H123648   7.743   0.237   5.897
 7802WAT     H223649   7.809   0.209   5.750
 7803WAT      O23650   7.666   6.107   3.252
 7803WAT     H123651   7.569   6.084   3.247
 7803WAT     H223652   7.719   6.024   3.268
 7804WAT      O23653   1.326   3.885   5.033
 7804WAT     H123654   1.281   3.844   4.954
 7804WAT     H223655   1.370   3.814   5.088
 7805WAT      O23656   1.043   9.339   8.682
 7805WAT     H123657   0.969   9.398   8.714
 7805WAT     H223658   1.064   9.360   8.586
 7806WAT      O23659   8.825   1.747   6.607
 7806WAT     H123660   8.801   1.656   6.639
 7806WAT     H223661   8.857   1.742   6.512
 7807WAT      O23662   4.722   0.431   8.936
 7807WAT     H123663   4.653   0.454   9.005
 7807WAT     H223664   4.736   0.509   8.875
 7808WAT      O23665   3.555   7.417   4.030
 7808WAT     H123666   3.587   7.326   4.003
 7808WAT     H223667   3.525   7.414   4.125
 7809WAT      O23668   0.138   7.896   6.034
 7809WAT     H123669   0.047   7.859   6.015
 7809WAT     H223670   0.134   7.953   6.116
 7810WAT      O23671   7.039   8.677   7.708
 7810WAT     H123672   6.982   8.659   7.788
 7810WAT     H223673   6.983   8.719   7.636
 7811WAT      O23674   6.263   0.193   7.727
 7811WAT     H123675   6.224   0.102   7.736
 7811WAT     H223676   6.362   0.186   7.714
 7812WAT      O23677   3.285   8.174   0.296
 7812WAT     H123678   3.200   8.156   0.247
 7812WAT     H223679   3.342   8.236   0.243
 7813WAT      O23680   0.767   0.120   8.832
 7813WAT     H123681   0.807   0.211   8.819
 7813WAT     H223682   0.671   0.129   8.859
 7814WAT      O23683   0.761   8.811   3.008
 7814WAT     H123684   0.758   8.797   3.107
 7814WAT     H223685   0.854   8.795   2.975
 7815WAT      O23686   0.872   6.713   4.226
 7815WAT     H123687   0.891   6.740   4.320
 7815WAT     H223688   0.914   6.778   4.163
 7816WAT      O23689   1.368   6.305   3.270
 7816WAT     H123690   1.309   6.286   3.349
 7816WAT     H223691   1.462   6.279   3.292
 7817WAT      O23692   7.331   4.389   0.702
 7817WAT     H123693   7.295   4.476   0.736
 7817WAT     H223694   7.283   4.364   0.618
 7818WAT      O23695   0.970   2.623   3.498
 7818WAT     H123696   0.932   2.648   3.409
 7818WAT     H223697   0.898   2.627   3.568
 7819WAT      O23698   9.239   2.078   7.218
 7819WAT     H123699   9.249   2.135   7.136
 7819WAT     H223700   9.260   2.133   7.299
 7820WAT      O23701   0.851   6.350   0.509
 7820WAT     H123702   0.841   6.449   0.505
 7820WAT     H223703   0.795   6.313   0.582
 7821WAT      O23704   9.558   9.017   9.286
 7821WAT     H123705   9.459   9.004   9.277
 7821WAT     H223706   9.605   8.970   9.211
 7822WAT      O23707   5.645   7.671   3.427
 7822WAT     H123708   5.614   7.618   3.349
 7822WAT     H223709   5.617   7.766   3.416
 7823WAT      O23710   0.599   7.770   2.288
 7823WAT     H123711   0.575   7.773   2.385
 7823WAT     H223712   0.658   7.691   2.270
 7824WAT      O23713   4.032   2.496   5.925
 7824WAT     H123714   4.122   2.519   5.886
 7824WAT     H223715   4.027   2.528   6.020
 7825WAT      O23716   2.167   2.317   0.174
 7825WAT     H123717   2.171   2.395   0.236
 7825WAT     H223718   2.183   2.347   0.080
 7826WAT      O23719   6.287   6.984   3.836
 7826WAT     H123720   6.313   6.955   3.928
 7826WAT     H223721   6.269   6.903   3.780
 7827WAT      O23722   3.989   3.814   6.691
 7827WAT     H123723   4.072   3.865   6.713
 7827WAT     H223724   4.010   3.716   6.689
 7828WAT      O23725   0.615   6.794   2.926
 7828WAT     H123726   0.649   6.702   2.945
 7828WAT     H223727   0.641   6.821   2.833
 7829WAT      O23728   9.222   1.621   3.867
 7829WAT     H123729   9.305   1.601   3.919
 7829WAT     H223730   9.225   1.717   3.837
 7830WAT      O23731   6.460   9.703   7.885
 7830WAT     H123732   6.522   9.709   7.807
 7830WAT     H223733   6.500   9.645   7.956
 7831WAT      O23734   8.271   3.438   2.351
 7831WAT     H123735   8.296   3.474   2.261
 7831WAT     H223736   8.176   3.407   2.349
 7832WAT      O23737   9.156   0.016   8.443
 7832WAT     H123738   9.127   0.062   8.527
 7832WAT     H223739   9.255   0.025   8.432
 7833WAT      O23740   2.324   7.175   3.899
 7833WAT     H123741   2.312   7.153   3.802
 7833WAT     H223742   2.389   7.110   3.940
 7834WAT      O23743   6.163   7.473   2.129
 7834WAT     H123744   6.219   7.431   2.058
 7834WAT     H223745   6.082   7.516   2.088
 7835WAT      O23746   3.248   6.581   1.102
 7835WAT     H123747   3.298   6.623   1.026
 7835WAT     H223748   3.235   6.648   1.175
 7836WAT      O23749   3.003   1.704   0.702
 7836WAT     H123750   2.913   1.696   0.743
 7836WAT     H223751   3.049   1.785   0.737
 7837WAT      O23752   8.055   4.025   2.152
 7837WAT     H123753   8.091   4.010   2.060
 7837WAT     H223754   8.010   3.942   2.185
 7838WAT      O23755   6.247   8.805   6.740
 7838WAT     H123756   6.264   8.707   6.751
 7838WAT     H223757   6.213   8.823   6.647
 7839WAT      O23758   4.970   1.612   7.489
 7839WAT     H123759   5.031   1.598   7.566
 7839WAT     H223760   4.879   1.577   7.511
 7840WAT      O23761   6.244   7.686   1.303
 7840WAT     H123762   6.335   7.720   1.324
 7840WAT     H223763   6.194   7.755   1.251
 7841WAT      O23764   5.347   4.244   5.935
 7841WAT     H123765   5.390   4.211   5.851
 7841WAT     H223766   5.346   4.344   5.935
 7842WAT      O23767   2.270   4.831   0.058
 7842WAT     H123768   2.349   4.795   0.108
 7842WAT     H223769   2.193   4.768   0.069
 7843WAT      O23770   2.268   0.314   3.636
 7843WAT     H123771   2.174   0.327   3.604
 7843WAT     H223772   2.301   0.398   3.677
 7844WAT      O23773   3.363   0.189   9.190
 7844WAT     H123774   3.269   0.157   9.198
 7844WAT     H223775   3.425   0.111   9.187
 7845WAT      O23776   8.570   6.270   2.530
 7845WAT     H123777   8.549   6.283   2.627
 7845WAT     H223778   8.487   6.285   2.476
 7846WAT      O23779   8.993   7.101   3.535
 7846WAT     H123780   9.060   7.105   3.609
 7846WAT     H223781   8.982   7.191   3.494
 7847WAT      O23782   0.456   0.875   6.972
 7847WAT     H123783   0.389   0.842   6.905
 7847WAT     H223784   0.538   0.817   6.969
 7848WAT      O23785   8.975   1.750   9.134
 7848WAT     H123786   8.978   1.735   9.233
 7848WAT     H223787   9.068   1.764   9.100
 7849WAT      O23788   5.139   9.079   2.822
 7849WAT     H123789   5.193   9.162   2.835
 7849WAT     H223790   5.145   9.023   2.905
 7850WAT      O23791   1.198   4.361   1.761
 7850WAT     H123792   1.192   4.453   1.721
 7850WAT     H223793   1.192   4.293   1.688
 7851WAT      O23794   0.930   5.663   8.383
 7851WAT     H123795   0.906   5.572   8.416
 7851WAT     H223796   0.930   5.727   8.460
 7852WAT      O23797   7.925   5.993   4.664
 7852WAT     H123798   7.986   5.985   4.742
 7852WAT     H223799   7.946   6.077   4.613
 7853WAT      O23800   6.464   5.354   8.562
 7853WAT     H123801   6.429   5.378   8.652
 7853WAT     H223802   6.556   5.315   8.572
 7854WAT      O23803   0.777   4.424   1.586
 7854WAT     H123804   0.683   4.399   1.564
 7854WAT     H223805   0.779   4.518   1.620
 7855WAT      O23806   0.373   7.168   2.235
 7855WAT     H123807   0.364   7.076   2.273
 7855WAT     H223808   0.313   7.230   2.285
 7856WAT      O23809   6.115   7.300   5.819
 7856WAT     H123810   6.083   7.366   5.751
 7856WAT     H223811   6.182   7.344   5.879
 7857WAT      O23812   8.420   0.281   1.454
 7857WAT     H123813   8.442   0.191   1.416
 7857WAT     H223814   8.393   0.271   1.550
 7858WAT      O23815   1.468   7.423   9.265
 7858WAT     H123816   1.380   7.377   9.255
 7858WAT     H223817   1.457   7.520   9.246
 7859WAT      O23818   9.636   4.034   7.597
 7859WAT     H123819   9.619   4.099   7.523
 7859WAT     H223820   9.673   3.949   7.559
 7860WAT      O23821   7.471   0.481   0.188
 7860WAT     H123822   7.499   0.461   0.094
 7860WAT     H223823   7.377   0.451   0.201
 7861WAT      O23824   8.478   1.774   7.529
 7861WAT     H123825   8.577   1.783   7.541
 7861WAT     H223826   8.438   1.864   7.510
 7862WAT      O23827   8.428   4.683   1.043
 7862WAT     H123828   8.386   4.628   1.115
 7862WAT     H223829   8.444   4.776   1.078
 7863WAT      O23830   3.711   4.332   3.595
 7863WAT     H123831   3.800   4.292   3.617
 7863WAT     H223832   3.723   4.426   3.564
 7864WAT      O23833   9.589   6.672   2.918
 7864WAT     H123834   9.595   6.603   2.845
 7864WAT     H223835   9.526   6.640   2.989
 7865WAT      O23836   4.141   1.876   9.395
 7865WAT     H123837   4.211   1.878   9.466
 7865WAT     H223838   4.143   1.787   9.349
 7866WAT      O23839   4.241   3.645   9.454
 7866WAT     H123840   4.223   3.730   9.503
 7866WAT     H223841   4.195   3.647   9.365
 7867WAT      O23842   0.989   1.475   3.569
 7867WAT     H123843   0.961   1.561   3.526
 7867WAT     H223844   0.931   1.400   3.535
 7868WAT      O23845   6.250   1.524   5.399
 7868WAT     H123846   6.235   1.563   5.308
 7868WAT     H223847   6.176   1.553   5.461
 7869WAT      O23848   9.302   6.702   7.984
 7869WAT     H123849   9.306   6.608   8.018
 7869WAT     H223850   9.395   6.739   7.979
 7870WAT      O23851   8.720   5.877   5.658
 7870WAT     H123852   8.735   5.862   5.756
 7870WAT     H223853   8.744   5.794   5.608
 7871WAT      O23854   2.703   2.777   4.197
 7871WAT     H123855   2.629   2.802   4.258
 7871WAT     H223856   2.728   2.681   4.211
 7872WAT      O23857   4.893   7.794   2.215
 7872WAT     H123858   4.981   7.820   2.255
 7872WAT     H223859   4.835   7.875   2.207
 7873WAT      O23860   5.831   3.853   4.575
 7873WAT     H123861   5.862   3.822   4.485
 7873WAT     H223862   5.872   3.796   4.646
 7874WAT      O23863   6.678   0.725   6.393
 7874WAT     H123864   6.770   0.726   6.354
 7874WAT     H223865   6.611   0.723   6.319
 7875WAT      O23866   8.601   1.107   5.567
 7875WAT     H123867   8.685   1.061   5.540
 7875WAT     H223868   8.621   1.204   5.584
 7876WAT      O23869   8.975   6.010   5.834
 7876WAT     H123870   8.915   5.943   5.877
 7876WAT     H223871   9.022   5.968   5.756
 7877WAT      O23872   2.073   2.221   0.639
 7877WAT     H123873   2.019   2.296   0.676
 7877WAT     H223874   2.024   2.180   0.562
 7878WAT      O23875   2.395   5.978   7.639
 7878WAT     H123876   2.299   5.962   7.662
 7878WAT     H223877   2.452   5.964   7.721
 7879WAT      O23878   1.231   2.975   8.452
 7879WAT     H123879   1.288   3.020   8.383
 7879WAT     H223880   1.217   2.880   8.428
 7880WAT      O23881   9.630   5.887   5.115
 7880WAT     H123882   9.681   5.898   5.200
 7880WAT     H223883   9.675   5.817   5.058
 7881WAT      O23884   0.748   2.667   8.078
 7881WAT     H123885   0.772   2.758   8.046
 7881WAT     H223886   0.807   2.600   8.033
 7882WAT      O23887   7.655   7.020   5.835
 7882WAT     H123888   7.642   7.092   5.767
 7882WAT     H223889   7.660   6.931   5.790
 7883WAT      O23890   3.916   5.155   1.266
 7883WAT     H123891   3.869   5.243   1.252
 7883WAT     H223892   3.986   5.143   1.196
 7884WAT      O23893   4.294   3.584   2.193
 7884WAT     H123894   4.272   3.561   2.288
 7884WAT     H223895   4.217   3.558   2.134
 7885WAT      O23896   4.298   1.236   5.802
 7885WAT     H123897   4.296   1.314   5.739
 7885WAT     H223898   4.383   1.185   5.789
 7886WAT      O23899   0.137   5.412   6.909
 7886WAT     H123900   0.106   5.453   6.995
 7886WAT     H223901   0.075   5.337   6.883
 7887WAT      O23902   1.327   8.100   1.638
 7887WAT     H123903   1.425   8.105   1.657
 7887WAT     H223904   1.292   8.192   1.622
 7888WAT      O23905   9.492   1.582   8.154
 7888WAT     H123906   9.407   1.622   8.120
 7888WAT     H223907   9.479   1.552   8.249
 7889WAT      O23908   5.435   3.169   5.535
 7889WAT     H123909   5.530   3.174   5.566
 7889WAT     H223910   5.432   3.140   5.440
 7890WAT      O23911   7.239   6.280   7.092
 7890WAT     H123912   7.146   6.250   7.112
 7890WAT     H223913   7.300   6.254   7.167
 7891WAT      O23914   1.075   7.207   0.421
 7891WAT     H123915   1.123   7.139   0.367
 7891WAT     H223916   1.037   7.277   0.361
 7892WAT      O23917   0.226   4.255   3.642
 7892WAT     H123918   0.209   4.302   3.555
 7892WAT     H223919   0.253   4.161   3.624
 7893WAT      O23920   1.192   2.525   2.398
 7893WAT     H123921   1.281   2.528   2.445
 7893WAT     H223922   1.124   2.484   2.459
 7894WAT      O23923   0.388   4.592   3.348
 7894WAT     H123924   0.354   4.635   3.265
 7894WAT     H223925   0.406   4.495   3.330
 7895WAT      O23926   4.884   6.529   2.371
 7895WAT     H123927   4.909   6.554   2.278
 7895WAT     H223928   4.912   6.602   2.434
 7896WAT      O23929   2.076   6.997   5.571
 7896WAT     H123930   2.106   6.920   5.515
 7896WAT     H223931   2.059   6.966   5.665
 7897WAT      O23932   0.286   9.299   8.828
 7897WAT     H123933   0.370   9.352   8.842
 7897WAT     H223934   0.271   9.285   8.731
 7898WAT      O23935   6.752   8.061   8.760
 7898WAT     H123936   6.813   8.019   8.692
 7898WAT     H223937   6.764   8.016   8.848
 7899WAT      O23938   1.645   5.685   8.736
 7899WAT     H123939   1.586   5.606   8.718
 7899WAT     H223940   1.700   5.704   8.654
 7900WAT      O23941   3.192   6.162   4.882
 7900WAT     H123942   3.197   6.106   4.964
 7900WAT     H223943   3.102   6.150   4.839
 7901WAT      O23944   1.740   5.740   0.731
 7901WAT     H123945   1.720   5.838   0.743
 7901WAT     H223946   1.656   5.691   0.709
 7902WAT      O23947   9.220   4.657   6.072
 7902WAT     H123948   9.188   4.686   5.982
 7902WAT     H223949   9.235   4.558   6.071
 7903WAT      O23950   2.997   0.259   9.161
 7903WAT     H123951   3.071   0.326   9.154
 7903WAT     H223952   2.943   0.276   9.243
 7904WAT      O23953   4.588   6.555   6.838
 7904WAT     H123954   4.666   6.599   6.882
 7904WAT     H223955   4.535   6.623   6.787
 7905WAT      O23956   5.792   3.375   2.578
 7905WAT     H123957   5.858   3.313   2.620
 7905WAT     H223958   5.819   3.470   2.594
 7906WAT      O23959   3.635   9.356   0.071
 7906WAT     H123960   3.637   9.281   0.137
 7906WAT     H223961   3.540   9.379   0.050
 7907WAT      O23962   7.736   8.733   8.120
 7907WAT     H123963   7.672   8.788   8.174
 7907WAT     H223964   7.695   8.709   8.033
 7908WAT      O23965   3.430   2.015   4.204
 7908WAT     H123966   3.520   1.972   4.213
 7908WAT     H223967   3.359   1.950   4.231
 7909WAT      O23968   4.718   4.677   1.907
 7909WAT     H123969   4.661   4.596   1.922
 7909WAT     H223970   4.814   4.652   1.915
 7910WAT      O23971   2.013   2.965   7.176
 7910WAT     H123972   2.061   2.879   7.193
 7910WAT     H223973   1.952   2.954   7.098
 7911WAT      O23974   6.863   4.609   7.734
 7911WAT     H123975   6.874   4.613   7.635
 7911WAT     H223976   6.765   4.610   7.757
 7912WAT      O23977   3.246   0.970   1.434
 7912WAT     H123978   3.152   0.938   1.423
 7912WAT     H223979   3.246   1.057   1.482
 7913WAT      O23980   0.078   7.299   8.715
 7913WAT     H123981   0.080   7.209   8.757
 7913WAT     H223982   0.125   7.365   8.775
 7914WAT      O23983   4.263   2.281   0.507
 7914WAT     H123984   4.201   2.314   0.436
 7914WAT     H223985   4.357   2.308   0.485
 7915WAT      O23986   9.771   0.554   9.302
 7915WAT     H123987   9.719   0.513   9.377
 7915WAT     H223988   9.708   0.601   9.240
 7916WAT      O23989   1.161   0.232   7.544
 7916WAT     H123990   1.146   0.144   7.499
 7916WAT     H223991   1.157   0.305   7.476
 7917WAT      O23992   1.074   8.041   5.086
 7917WAT     H123993   1.041   8.087   5.168
 7917WAT     H223994   1.002   7.983   5.048
 7918WAT      O23995   0.846   3.535   5.334
 7918WAT     H123996   0.898   3.610   5.293
 7918WAT     H223997   0.786   3.572   5.405
 7919WAT      O23998   6.821   5.268   5.796
 7919WAT     H123999   6.806   5.367   5.791
 7919WAT     H224000   6.750   5.221   5.743
 7920WAT      O24001   3.016   9.420   4.152
 7920WAT     H124002   3.003   9.372   4.066
 7920WAT     H224003   3.096   9.480   4.145
 7921WAT      O24004   9.298   6.071   1.142
 7921WAT     H124005   9.245   6.009   1.083
 7921WAT     H224006   9.390   6.033   1.156
 7922WAT      O24007   8.843   1.681   5.502
 7922WAT     H124008   8.850   1.780   5.496
 7922WAT     H224009   8.914   1.646   5.563
 7923WAT      O24010   1.333   9.837   0.987
 7923WAT     H124011   1.289   9.927   0.991
 7923WAT     H224012   1.430   9.848   0.966
 7924WAT      O24013   3.631   1.104   7.694
 7924WAT     H124014   3.668   1.171   7.757
 7924WAT     H224015   3.553   1.143   7.645
 7925WAT      O24016   7.714   7.233   6.913
 7925WAT     H124017   7.732   7.252   6.816
 7925WAT     H224018   7.616   7.234   6.929
 7926WAT      O24019   6.713   5.700   9.444
 7926WAT     H124020   6.629   5.647   9.428
 7926WAT     H224021   6.694   5.774   9.508
 7927WAT      O24022   0.330   0.280   5.170
 7927WAT     H124023   0.266   0.217   5.213
 7927WAT     H224024   0.382   0.232   5.099
 7928WAT      O24025   9.801   8.921   9.187
 7928WAT     H124026   9.858   8.919   9.269
 7928WAT     H224027   9.819   9.006   9.137
 7929WAT      O24028   8.571   7.423   1.003
 7929WAT     H124029   8.580   7.454   0.909
 7929WAT     H224030   8.569   7.502   1.064
 7930WAT      O24031   5.326   8.548   3.138
 7930WAT     H124032   5.231   8.578   3.147
 7930WAT     H224033   5.339   8.464   3.189
 7931WAT      O24034   9.736   6.698   6.944
 7931WAT     H124035   9.741   6.792   6.911
 7931WAT     H224036   9.755   6.635   6.869
 7932WAT      O24037   3.998   0.260   7.228
 7932WAT     H124038   3.906   0.275   7.192
 7932WAT     H224039   4.036   0.347   7.258
 7933WAT      O24040   2.932   6.945   9.385
 7933WAT     H124041   2.865   7.016   9.410
 7933WAT     H224042   2.894   6.889   9.311
 7934WAT      O24043   4.920   7.364   6.282
 7934WAT     H124044   4.992   7.331   6.221
 7934WAT     H224045   4.887   7.452   6.248
 7935WAT      O24046   3.044   4.687   0.652
 7935WAT     H124047   3.003   4.778   0.651
 7935WAT     H224048   2.989   4.626   0.710
 7936WAT      O24049   8.091   7.938   0.775
 7936WAT     H124050   8.028   7.999   0.728
 7936WAT     H224051   8.042   7.857   0.808
 7937WAT      O24052   7.428   9.576   1.376
 7937WAT     H124053   7.423   9.512   1.299
 7937WAT     H224054   7.524   9.599   1.394
 7938WAT      O24055   1.792   0.608   1.959
 7938WAT     H124056   1.704   0.633   2.000
 7938WAT     H224057   1.856   0.685   1.966
 7939WAT      O24058   9.374   4.485   8.764
 7939WAT     H124059   9.320   4.435   8.832
 7939WAT     H224060   9.314   4.522   8.694
 7940WAT      O24061   5.098   9.050   6.964
 7940WAT     H124062   5.119   8.995   7.045
 7940WAT     H224063   5.106   8.994   6.882
 7941WAT      O24064   7.186   5.207   7.351
 7941WAT     H124065   7.216   5.295   7.313
 7941WAT     H224066   7.146   5.222   7.441
 7942WAT      O24067   0.514   0.181   6.775
 7942WAT     H124068   0.588   0.236   6.815
 7942WAT     H224069   0.506   0.095   6.825
 7943WAT      O24070   0.418   7.457   9.584
 7943WAT     H124071   0.475   7.379   9.610
 7943WAT     H224072   0.421   7.468   9.484
 7944WAT      O24073   5.357   8.989   6.356
 7944WAT     H124074   5.360   9.021   6.450
 7944WAT     H224075   5.365   9.067   6.294
 7945WAT      O24076   6.649   0.677   3.326
 7945WAT     H124077   6.702   0.654   3.407
 7945WAT     H224078   6.707   0.724   3.260
 7946WAT      O24079   3.200   3.643   7.049
 7946WAT     H124080   3.107   3.680   7.048
 7946WAT     H224081   3.229   3.627   6.955
 7947WAT      O24082   6.771   8.544   1.028
 7947WAT     H124083   6.755   8.483   1.106
 7947WAT     H224084   6.705   8.619   1.031
 7948WAT      O24085   9.140   7.648   9.383
 7948WAT     H124086   9.084   7.577   9.424
 7948WAT     H224087   9.158   7.720   9.450
 7949WAT      O24088   8.675   5.387   8.160
 7949WAT     H124089   8.651   5.474   8.116
 7949WAT     H224090   8.775   5.375   8.158
 7950WAT      O24091   7.068   1.207   7.527
 7950WAT     H124092   7.137   1.135   7.517
 7950WAT     H224093   7.112   1.290   7.561
 7951WAT      O24094   7.953   2.509   9.813
 7951WAT     H124095   7.966   2.573   9.738
 7951WAT     H224096   7.863   2.465   9.805
 7952WAT      O24097   5.208   4.142   3.956
 7952WAT     H124098   5.125   4.127   3.902
 7952WAT     H224099   5.282   4.085   3.919
 7953WAT      O24100   3.526   8.118   3.401
 7953WAT     H124101   3.583   8.137   3.321
 7953WAT     H224102   3.524   8.198   3.460
 7954WAT      O24103   8.956   6.890   5.656
 7954WAT     H124104   9.010   6.808   5.637
 7954WAT     H224105   8.868   6.863   5.697
 7955WAT      O24106   4.073   7.144   9.317
 7955WAT     H124107   4.138   7.166   9.390
 7955WAT     H224108   4.118   7.088   9.248
 7956WAT      O24109   9.231   1.973   2.514
 7956WAT     H124110   9.179   2.054   2.537
 7956WAT     H224111   9.326   1.983   2.545
 7957WAT      O24112   2.767   2.251   7.513
 7957WAT     H124113   2.713   2.218   7.590
 7957WAT     H224114   2.781   2.176   7.448
 7958WAT      O24115   7.414   9.500   3.859
 7958WAT     H124116   7.399   9.402   3.846
 7958WAT     H224117   7.439   9.543   3.772
 7959WAT      O24118   7.580   0.710   8.227
 7959WAT     H124119   7.511   0.763   8.276
 7959WAT     H224120   7.604   0.629   8.281
 7960WAT      O24121   4.815   9.003   4.351
 7960WAT     H124122   4.829   9.095   4.389
 7960WAT     H224123   4.791   8.940   4.424
 7961WAT      O24124   4.947   1.545   1.093
 7961WAT     H124125   5.030   1.509   1.137
 7961WAT     H224126   4.868   1.528   1.152
 7962WAT      O24127   9.554   7.576   9.307
 7962WAT     H124128   9.536   7.674   9.312
 7962WAT     H224129   9.510   7.530   9.384
 7963WAT      O24130   8.691   2.933   6.924
 7963WAT     H124131   8.627   2.974   6.988
 7963WAT     H224132   8.785   2.950   6.955
 7964WAT      O24133   8.365   1.884   7.942
 7964WAT     H124134   8.366   1.906   8.040
 7964WAT     H224135   8.414   1.955   7.891
 7965WAT      O24136   8.609   7.307   7.729
 7965WAT     H124137   8.592   7.212   7.753
 7965WAT     H224138   8.667   7.349   7.799
 7966WAT      O24139   7.174   5.352   5.375
 7966WAT     H124140   7.244   5.320   5.438
 7966WAT     H224141   7.214   5.365   5.284
 7967WAT      O24142   0.637   4.635   5.779
 7967WAT     H124143   0.572   4.559   5.772
 7967WAT     H224144   0.700   4.633   5.701
 7968WAT      O24145   9.551   0.255   8.903
 7968WAT     H124146   9.529   0.259   9.001
 7968WAT     H224147   9.466   0.243   8.851
 7969WAT      O24148   1.054   2.365   9.546
 7969WAT     H124149   1.091   2.409   9.628
 7969WAT     H224150   0.959   2.393   9.533
 7970WAT      O24151   1.464   4.158   1.355
 7970WAT     H124152   1.563   4.147   1.363
 7970WAT     H224153   1.418   4.097   1.420
 7971WAT      O24154   0.576   6.738   3.345
 7971WAT     H124155   0.604   6.784   3.261
 7971WAT     H224156   0.476   6.730   3.347
 7972WAT      O24157   3.945   4.377   7.567
 7972WAT     H124158   3.921   4.350   7.474
 7972WAT     H224159   3.999   4.305   7.610
 7973WAT      O24160   1.748   6.328   5.161
 7973WAT     H124161   1.832   6.286   5.125
 7973WAT     H224162   1.671   6.304   5.103
 7974WAT      O24163   5.010   3.900   4.720
 7974WAT     H124164   4.986   3.997   4.729
 7974WAT     H224165   5.096   3.883   4.768
 7975WAT      O24166   2.178   3.616   6.857
 7975WAT     H124167   2.247   3.678   6.821
 7975WAT     H224168   2.106   3.669   6.902
 7976WAT      O24169   5.137   5.102   6.663
 7976WAT     H124170   5.065   5.103   6.594
 7976WAT     H224171   5.226   5.094   6.618
 7977WAT      O24172   2.737   7.776   4.535
 7977WAT     H124173   2.832   7.794   4.558
 7977WAT     H224174   2.681   7.855   4.560
 7978WAT      O24175   6.324   5.181   1.711
 7978WAT     H124176   6.226   5.185   1.691
 7978WAT     H224177   6.338   5.143   1.802
 7979WAT      O24178   9.314   0.045   4.874
 7979WAT     H124179   9.331  -0.045   4.913
 7979WAT     H224180   9.313   0.114   4.947
 7980WAT      O24181   0.192   0.173   9.689
 7980WAT     H124182   0.240   0.088   9.711
 7980WAT     H224183   0.107   0.151   9.641
 7981WAT      O24184   2.375   2.486   0.227
 7981WAT     H124185   2.371   2.455   0.322
 7981WAT     H224186   2.315   2.565   0.215
 7982WAT      O24187   1.192   5.892   8.547
 7982WAT     H124188   1.137   5.973   8.566
 7982WAT     H224189   1.139   5.810   8.570
 7983WAT      O24190   3.921   1.392   5.685
 7983WAT     H124191   3.938   1.490   5.686
 7983WAT     H224192   3.943   1.354   5.595
 7984WAT      O24193   3.393   1.121   9.082
 7984WAT     H124194   3.451   1.051   9.125
 7984WAT     H224195   3.310   1.077   9.047
 7985WAT      O24196   3.063   9.672   4.874
 7985WAT     H124197   3.134   9.740   4.853
 7985WAT     H224198   3.104   9.598   4.927
 7986WAT      O24199   8.185   6.341   6.828
 7986WAT     H124200   8.085   6.344   6.831
 7986WAT     H224201   8.217   6.401   6.755
 7987WAT      O24202   4.795   7.251   0.586
 7987WAT     H124203   4.747   7.339   0.592
 7987WAT     H224204   4.858   7.252   0.508
 7988WAT      O24205   0.687   1.192   5.738
 7988WAT     H124206   0.648   1.102   5.757
 7988WAT     H224207   0.616   1.253   5.703
 7989WAT      O24208   0.776   0.093   6.386
 7989WAT     H124209   0.820   0.139   6.309
 7989WAT     H224210   0.732   0.009   6.353
 7990WAT      O24211   7.744   8.589   5.612
 7990WAT     H124212   7.807   8.610   5.538
 7990WAT     H224213   7.793   8.591   5.699
 7991WAT      O24214   8.828   8.256   2.673
 7991WAT     H124215   8.823   8.171   2.726
 7991WAT     H224216   8.924   8.284   2.664
 7992WAT      O24217   7.430   7.790   6.058
 7992WAT     H124218   7.393   7.868   6.007
 7992WAT     H224219   7.393   7.705   6.020
 7993WAT      O24220   0.598   3.372   2.747
 7993WAT     H124221   0.630   3.457   2.790
 7993WAT     H224222   0.668   3.338   2.684
 7994WAT      O24223   2.482   4.062   2.204
 7994WAT     H124224   2.403   4.005   2.226
 7994WAT     H224225   2.556   4.003   2.170
 7995WAT      O24226   6.636   4.326   5.536
 7995WAT     H124227   6.736   4.315   5.538
 7995WAT     H224228   6.606   4.343   5.443
 7996WAT      O24229   6.792   2.970   8.175
 7996WAT     H124230   6.705   3.019   8.184
 7996WAT     H224231   6.792   2.890   8.234
 7997WAT      O24232   1.134   4.344   7.164
 7997WAT     H124233   1.114   4.426   7.217
 7997WAT     H224234   1.074   4.270   7.194
 7998WAT      O24235   9.403   7.770   2.019
 7998WAT     H124236   9.339   7.768   1.941
 7998WAT     H224237   9.360   7.817   2.096
 7999WAT      O24238   2.865   1.781   1.789
 7999WAT     H124239   2.907   1.697   1.824
 7999WAT     H224240   2.935   1.838   1.745
 8000WAT      O24241   6.757   0.529   8.686
 8000WAT     H124242   6.801   0.541   8.597
 8000WAT     H224243   6.658   0.542   8.676
 8001WAT      O24244   1.938   0.706   0.814
 8001WAT     H124245   1.905   0.757   0.735
 8001WAT     H224246   2.018   0.652   0.788
 8002WAT      O24247   2.827   6.693   4.071
 8002WAT     H124248   2.803   6.780   4.115
 8002WAT     H224249   2.832   6.621   4.141
 8003WAT      O24250   4.331   0.752   3.894
 8003WAT     H124251   4.296   0.846   3.891
 8003WAT     H224252   4.422   0.749   3.853
 8004WAT      O24253   3.594   0.918   3.833
 8004WAT     H124254   3.511   0.867   3.852
 8004WAT     H224255   3.600   0.936   3.735
 8005WAT      O24256   4.020   1.161   0.085
 8005WAT     H124257   3.923   1.166   0.064
 8005WAT     H224258   4.033   1.144   0.183
 8006WAT      O24259   0.807   5.263   0.154
 8006WAT     H124260   0.804   5.287   0.251
 8006WAT     H224261   0.714   5.261   0.117
 8007WAT      O24262   5.819   1.779   4.986
 8007WAT     H124263   5.752   1.804   5.057
 8007WAT     H224264   5.893   1.726   5.028
 8008WAT      O24265   8.869   7.895   9.030
 8008WAT     H124266   8.864   7.876   8.932
 8008WAT     H224267   8.919   7.980   9.046
 8009WAT      O24268   3.011   9.626   2.965
 8009WAT     H124269   2.958   9.659   3.043
 8009WAT     H224270   3.097   9.676   2.959
 8010WAT      O24271   4.648   1.971   0.716
 8010WAT     H124272   4.669   1.988   0.813
 8010WAT     H224273   4.578   1.899   0.710
 8011WAT      O24274   7.548   1.476   0.100
 8011WAT     H124275   7.535   1.497   0.197
 8011WAT     H224276   7.637   1.431   0.088
 8012WAT      O24277   9.414   4.506   3.337
 8012WAT     H124278   9.348   4.569   3.296
 8012WAT     H224279   9.402   4.505   3.436
 8013WAT      O24280   8.791   9.489   7.607
 8013WAT     H124281   8.767   9.399   7.571
 8013WAT     H224282   8.854   9.477   7.684
 8014WAT      O24283   5.313   0.833   4.387
 8014WAT     H124284   5.257   0.752   4.366
 8014WAT     H224285   5.373   0.812   4.464
 8015WAT      O24286   2.990   4.061   8.407
 8015WAT     H124287   2.948   4.119   8.476
 8015WAT     H224288   2.936   3.978   8.395
 8016WAT      O24289   7.967   6.016   6.959
 8016WAT     H124290   8.039   6.075   6.997
 8016WAT     H224291   7.879   6.063   6.966
 8017WAT      O24292   2.525   7.086   5.056
 8017WAT     H124293   2.496   7.181   5.074
 8017WAT     H224294   2.485   7.026   5.125
 8018WAT      O24295   5.332   4.619   8.621
 8018WAT     H124296   5.344   4.716   8.645
 8018WAT     H224297   5.262   4.612   8.549
 8019WAT      O24298   5.546   0.621   5.612
 8019WAT     H124299   5.447   0.606   5.608
 8019WAT     H224300   5.578   0.656   5.524
 8020WAT      O24301   5.576   5.729   7.092
 8020WAT     H124302   5.650   5.704   7.155
 8020WAT     H224303   5.595   5.691   7.002
 8021WAT      O24304   1.807   6.339   5.417
 8021WAT     H124305   1.869   6.265   5.441
 8021WAT     H224306   1.786   6.334   5.319
 8022WAT      O24307   8.944   0.359   6.986
 8022WAT     H124308   8.944   0.272   7.036
 8022WAT     H224309   8.880   0.354   6.909
 8023WAT      O24310   0.220   0.048   4.880
 8023WAT     H124311   0.172   0.136   4.884
 8023WAT     H224312   0.213   0.010   4.788
 8024WAT      O24313   6.581   8.099   5.910
 8024WAT     H124314   6.563   8.047   5.994
 8024WAT     H224315   6.620   8.187   5.934
 8025WAT      O24316   6.766   4.971   7.140
 8025WAT     H124317   6.848   4.986   7.194
 8025WAT     H224318   6.727   5.060   7.114
 8026WAT      O24319   4.840   4.939   6.551
 8026WAT     H124320   4.846   4.867   6.482
 8026WAT     H224321   4.879   5.024   6.515
 8027WAT      O24322   9.121   1.410   3.210
 8027WAT     H124323   9.209   1.429   3.167
 8027WAT     H224324   9.073   1.496   3.227
 8028WAT      O24325   0.989   0.759   4.078
 8028WAT     H124326   1.040   0.806   4.005
 8028WAT     H224327   1.031   0.670   4.095
 8029WAT      O24328   6.855   8.544   4.375
 8029WAT     H124329   6.803   8.600   4.440
 8029WAT     H224330   6.951   8.543   4.401
 8030WAT      O24331   2.404   7.542   5.353
 8030WAT     H124332   2.388   7.640   5.345
 8030WAT     H224333   2.341   7.502   5.419
 8031WAT      O24334   9.878   0.640   3.086
 8031WAT     H124335   9.871   0.597   3.176
 8031WAT     H224336   9.956   0.703   3.085
 8032WAT      O24337   1.957   9.522   5.068
 8032WAT     H124338   2.020   9.583   5.117
 8032WAT     H224339   1.974   9.427   5.097
 8033WAT      O24340   5.836   2.212   0.004
 8033WAT     H124341   5.848   2.137   0.069
 8033WAT     H224342   5.817   2.296   0.055
 8034WAT      O24343   5.428   3.648   2.267
 8034WAT     H124344   5.516   3.604   2.284
 8034WAT     H224345   5.440   3.747   2.262
 8035WAT      O24346   7.923   4.599   0.133
 8035WAT     H124347   7.889   4.647   0.052
 8035WAT     H224348   7.876   4.634   0.214
 8036WAT      O24349   4.121   4.846   4.874
 8036WAT     H124350   4.145   4.913   4.944
 8036WAT     H224351   4.157   4.876   4.786
 8037WAT      O24352   2.680   6.842   7.627
 8037WAT     H124353   2.747   6.910   7.657
 8037WAT     H224354   2.593   6.859   7.674
 8038WAT      O24355   0.078   6.330   2.263
 8038WAT     H124356   0.159   6.279   2.291
 8038WAT     H224357   0.052   6.393   2.336
 8039WAT      O24358   9.391   1.879   0.629
 8039WAT     H124359   9.423   1.962   0.674
 8039WAT     H224360   9.455   1.805   0.647
 8040WAT      O24361   3.158   2.837   2.957
 8040WAT     H124362   3.209   2.920   2.933
 8040WAT     H224363   3.221   2.770   2.997
 8041WAT      O24364   0.614   9.312   0.377
 8041WAT     H124365   0.597   9.387   0.313
 8041WAT     H224366   0.608   9.347   0.470
 8042WAT      O24367   0.006   3.696   3.640
 8042WAT     H124368   0.074   3.768   3.652
 8042WAT     H224369  -0.044   3.711   3.554
 8043WAT      O24370   8.552   0.477   7.679
 8043WAT     H124371   8.490   0.542   7.636
 8043WAT     H224372   8.645   0.511   7.675
 8044WAT      O24373   3.008   5.930   0.583
 8044WAT     H124374   3.001   5.839   0.624
 8044WAT     H224375   2.928   5.946   0.524
 8045WAT      O24376   7.224   1.766   7.696
 8045WAT     H124377   7.288   1.741   7.768
 8045WAT     H224378   7.160   1.690   7.681
 8046WAT      O24379   5.910   9.158   2.556
 8046WAT     H124380   5.846   9.141   2.481
 8046WAT     H224381   5.963   9.240   2.536
 8047WAT      O24382   8.524   1.462   4.961
 8047WAT     H124383   8.607   1.517   4.969
 8047WAT     H224384   8.467   1.474   5.042
 8048WAT      O24385   8.009   6.657   1.626
 8048WAT     H124386   8.004   6.578   1.687
 8048WAT     H224387   8.101   6.697   1.629
 8049WAT      O24388   3.541   4.812   3.109
 8049WAT     H124389   3.532   4.900   3.064
 8049WAT     H224390   3.604   4.754   3.058
 8050WAT      O24391   1.100   7.709   2.003
 8050WAT     H124392   1.015   7.752   2.034
 8050WAT     H224393   1.134   7.648   2.075
 8051WAT      O24394   1.157   8.610   2.674
 8051WAT     H124395   1.128   8.701   2.704
 8051WAT     H224396   1.155   8.604   2.575
 8052WAT      O24397   8.826   6.993   8.957
 8052WAT     H124398   8.893   7.056   8.995
 8052WAT     H224399   8.733   7.024   8.978
 8053WAT      O24400   3.018   3.389   7.143
 8053WAT     H124401   3.030   3.316   7.210
 8053WAT     H224402   3.005   3.476   7.191
 8054WAT      O24403   4.571   7.389   3.257
 8054WAT     H124404   4.567   7.319   3.186
 8054WAT     H224405   4.479   7.417   3.283
 8055WAT      O24406   0.703   7.505   7.174
 8055WAT     H124407   0.735   7.589   7.216
 8055WAT     H224408   0.603   7.501   7.180
 8056WAT      O24409   0.032   0.413   6.602
 8056WAT     H124410   0.072   0.489   6.552
 8056WAT     H224411   0.100   0.374   6.664
 8057WAT      O24412   0.956   3.192   1.807
 8057WAT     H124413   0.876   3.244   1.775
 8057WAT     H224414   0.927   3.126   1.877
 8058WAT      O24415   9.473   3.544   0.592
 8058WAT     H124416   9.474   3.585   0.683
 8058WAT     H224417   9.560   3.496   0.576
 8059WAT      O24418   4.711   2.937   1.232
 8059WAT     H124419   4.698   2.980   1.321
 8059WAT     H224420   4.663   2.849   1.230
 8060WAT      O24421   7.215   5.482   8.468
 8060WAT     H124422   7.196   5.577   8.492
 8060WAT     H224423   7.129   5.435   8.448
 8061WAT      O24424   9.568   2.061   3.002
 8061WAT     H124425   9.505   1.990   3.032
 8061WAT     H224426   9.532   2.107   2.921
 8062WAT      O24427   3.631   5.411   8.282
 8062WAT     H124428   3.668   5.429   8.373
 8062WAT     H224429   3.561   5.479   8.260
 8063WAT      O24430   9.132   0.966   1.515
 8063WAT     H124431   9.052   0.943   1.459
 8063WAT     H224432   9.169   0.883   1.556
 8064WAT      O24433   3.525   1.181   1.124
 8064WAT     H124434   3.433   1.222   1.127
 8064WAT     H224435   3.563   1.177   1.216
 8065WAT      O24436   8.439   3.536   5.923
 8065WAT     H124437   8.428   3.635   5.925
 8065WAT     H224438   8.477   3.505   6.010
 8066WAT      O24439   4.491   8.939   6.462
 8066WAT     H124440   4.550   8.964   6.539
 8066WAT     H224441   4.547   8.922   6.381
 8067WAT      O24442   7.229   3.345   9.242
 8067WAT     H124443   7.174   3.429   9.243
 8067WAT     H224444   7.320   3.365   9.207
 8068WAT      O24445   0.244   4.212   6.632
 8068WAT     H124446   0.164   4.161   6.600
 8068WAT     H224447   0.274   4.275   6.560
 8069WAT      O24448   3.261   1.934   6.266
 8069WAT     H124449   3.193   1.981   6.323
 8069WAT     H224450   3.229   1.929   6.172
 8070WAT      O24451   2.350   5.580   6.944
 8070WAT     H124452   2.367   5.676   6.963
 8070WAT     H224453   2.271   5.572   6.882
 8071WAT      O24454   6.520   2.151   7.244
 8071WAT     H124455   6.454   2.118   7.176
 8071WAT     H224456   6.571   2.073   7.281
 8072WAT      O24457   0.822   0.216   1.362
 8072WAT     H124458   0.908   0.230   1.411
 8072WAT     H224459   0.761   0.160   1.417
 8073WAT      O24460   4.172   5.871   3.162
 8073WAT     H124461   4.189   5.904   3.255
 8073WAT     H224462   4.073   5.866   3.146
 8074WAT      O24463   7.756   2.747   0.922
 8074WAT     H124464   7.851   2.749   0.891
 8074WAT     H224465   7.717   2.657   0.904
 8075WAT      O24466   0.033   8.187   1.878
 8075WAT     H124467   0.073   8.115   1.821
 8075WAT     H224468  -0.066   8.172   1.886
 8076WAT      O24469   9.196   7.362   9.315
 8076WAT     H124470   9.199   7.460   9.296
 8076WAT     H224471   9.102   7.336   9.339
 8077WAT      O24472   1.166   9.557   4.395
 8077WAT     H124473   1.186   9.650   4.364
 8077WAT     H224474   1.067   9.545   4.402
 8078WAT      O24475   7.583   8.823   2.465
 8078WAT     H124476   7.494   8.777   2.467
 8078WAT     H224477   7.611   8.838   2.370
 8079WAT      O24478   6.278   2.469   0.649
 8079WAT     H124479   6.267   2.531   0.726
 8079WAT     H224480   6.310   2.519   0.569
 8080WAT      O24481   6.147   8.101   1.407
 8080WAT     H124482   6.185   8.192   1.393
 8080WAT     H224483   6.128   8.059   1.318
 8081WAT      O24484   7.940   8.327   5.327
 8081WAT     H124485   7.882   8.246   5.315
 8081WAT     H224486   8.036   8.301   5.312
 8082WAT      O24487   9.549   3.823   6.523
 8082WAT     H124488   9.565   3.922   6.532
 8082WAT     H224489   9.532   3.802   6.426
 8083WAT      O24490   1.824   4.905   4.862
 8083WAT     H124491   1.834   4.831   4.796
 8083WAT     H224492   1.864   4.877   4.950
 8084WAT      O24493   1.298   2.103   8.026
 8084WAT     H124494   1.274   2.124   7.931
 8084WAT     H224495   1.375   2.160   8.054
 8085WAT      O24496   9.174   3.112   4.114
 8085WAT     H124497   9.143   3.026   4.074
 8085WAT     H224498   9.209   3.095   4.206
 8086WAT      O24499   3.588   6.627   1.131
 8086WAT     H124500   3.616   6.541   1.087
 8086WAT     H224501   3.490   6.640   1.118
 8087WAT      O24502   7.227   7.681   1.184
 8087WAT     H124503   7.238   7.583   1.196
 8087WAT     H224504   7.138   7.699   1.140
 8088WAT      O24505   4.825   5.974   0.770
 8088WAT     H124506   4.733   6.005   0.794
 8088WAT     H224507   4.884   5.978   0.851
 8089WAT      O24508   2.127   8.929   9.017
 8089WAT     H124509   2.196   8.983   9.064
 8089WAT     H224510   2.039   8.976   9.020
 8090WAT      O24511   1.032   4.944   7.738
 8090WAT     H124512   0.991   4.874   7.797
 8090WAT     H224513   0.967   5.019   7.726
 8091WAT      O24514   2.060   8.577   3.209
 8091WAT     H124515   2.084   8.569   3.305
 8091WAT     H224516   2.049   8.486   3.169
 8092WAT      O24517   0.759   4.609   7.238
 8092WAT     H124518   0.766   4.553   7.321
 8092WAT     H224519   0.850   4.620   7.198
 8093WAT      O24520   1.105   5.560   2.232
 8093WAT     H124521   1.045   5.613   2.293
 8093WAT     H224522   1.128   5.615   2.152
 8094WAT      O24523   6.864   4.084   3.628
 8094WAT     H124524   6.796   4.063   3.558
 8094WAT     H224525   6.846   4.028   3.709
 8095WAT      O24526   7.953   1.709   4.020
 8095WAT     H124527   7.981   1.771   4.094
 8095WAT     H224528   7.887   1.756   3.961
 8096WAT      O24529   4.174   3.547   5.250
 8096WAT     H124530   4.271   3.570   5.242
 8096WAT     H224531   4.142   3.569   5.342
 8097WAT      O24532   5.564   2.671   7.318
 8097WAT     H124533   5.617   2.709   7.243
 8097WAT     H224534   5.484   2.729   7.335
 8098WAT      O24535   2.756   1.867   7.676
 8098WAT     H124536   2.833   1.905   7.726
 8098WAT     H224537   2.673   1.876   7.731
 8099WAT      O24538   6.848   5.616   6.110
 8099WAT     H124539   6.876   5.547   6.178
 8099WAT     H224540   6.928   5.644   6.056
 8100WAT      O24541   2.271   6.955   2.457
 8100WAT     H124542   2.183   6.997   2.479
 8100WAT     H224543   2.307   6.910   2.539
 8101WAT      O24544   1.627   6.842   0.524
 8101WAT     H124545   1.724   6.832   0.547
 8101WAT     H224546   1.591   6.754   0.492
 8102WAT      O24547   7.795   8.447   6.480
 8102WAT     H124548   7.780   8.500   6.563
 8102WAT     H224549   7.865   8.377   6.498
 8103WAT      O24550   9.573   5.507   3.631
 8103WAT     H124551   9.517   5.470   3.705
 8103WAT     H224552   9.537   5.476   3.543
 8104WAT      O24553   0.968   1.283   8.591
 8104WAT     H124554   1.016   1.346   8.530
 8104WAT     H224555   1.033   1.220   8.632
 8105WAT      O24556   5.076   0.828   0.262
 8105WAT     H124557   5.138   0.855   0.189
 8105WAT     H224558   4.982   0.843   0.234
 8106WAT      O24559   7.867   6.523   8.238
 8106WAT     H124560   7.803   6.447   8.229
 8106WAT     H224561   7.920   6.512   8.322
 8107WAT      O24562   6.716   3.519   3.344
 8107WAT     H124563   6.781   3.592   3.323
 8107WAT     H224564   6.623   3.550   3.325
 8108WAT      O24565   0.890   0.850   5.983
 8108WAT     H124566   0.940   0.769   6.014
 8108WAT     H224567   0.835   0.828   5.903
 8109WAT      O24568   5.064   8.149   6.574
 8109WAT     H124569   5.012   8.141   6.488
 8109WAT     H224570   5.146   8.203   6.558
 8110WAT      O24571   3.153   7.292   0.568
 8110WAT     H124572   3.231   7.308   0.628
 8110WAT     H224573   3.107   7.378   0.548
 8111WAT      O24574   4.717   8.377   3.422
 8111WAT     H124575   4.810   8.350   3.397
 8111WAT     H224576   4.720   8.428   3.508
 8112WAT      O24577   3.957   1.793   7.099
 8112WAT     H124578   3.988   1.705   7.061
 8112WAT     H224579   3.939   1.782   7.196
 8113WAT      O24580   4.085   2.262   8.048
 8113WAT     H124581   4.087   2.257   7.948
 8113WAT     H224582   3.999   2.226   8.082
 8114WAT      O24583   5.222   5.342   8.779
 8114WAT     H124584   5.309   5.391   8.786
 8114WAT     H224585   5.187   5.348   8.685
 8115WAT      O24586   6.446   4.725   5.059
 8115WAT     H124587   6.372   4.668   5.094
 8115WAT     H224588   6.431   4.820   5.086
 8116WAT      O24589   3.814   9.011   2.756
 8116WAT     H124590   3.840   9.000   2.852
 8116WAT     H224591   3.867   8.948   2.699
 8117WAT      O24592   5.753   3.881   7.094
 8117WAT     H124593   5.803   3.962   7.126
 8117WAT     H224594   5.799   3.798   7.126
 8118WAT      O24595   9.046   4.449   9.487
 8118WAT     H124596   8.977   4.508   9.532
 8118WAT     H224597   9.132   4.499   9.481
 8119WAT      O24598   7.212   1.069   2.464
 8119WAT     H124599   7.159   1.030   2.540
 8119WAT     H224600   7.281   1.131   2.501
 8120WAT      O24601   6.499   1.756   4.937
 8120WAT     H124602   6.405   1.780   4.914
 8120WAT     H224603   6.499   1.680   5.003
 8121WAT      O24604   8.612   7.804   8.212
 8121WAT     H124605   8.613   7.890   8.161
 8121WAT     H224606   8.523   7.793   8.257
 8122WAT      O24607   4.462   8.770   4.119
 8122WAT     H124608   4.395   8.827   4.166
 8122WAT     H224609   4.452   8.781   4.020
 8123WAT      O24610   2.168   4.955   2.731
 8123WAT     H124611   2.080   4.919   2.699
 8123WAT     H224612   2.155   5.002   2.818
 8124WAT      O24613   4.030   7.779   8.507
 8124WAT     H124614   3.933   7.789   8.482
 8124WAT     H224615   4.078   7.730   8.434
 8125WAT      O24616   6.704   5.793   2.741
 8125WAT     H124617   6.604   5.790   2.753
 8125WAT     H224618   6.726   5.835   2.653
 8126WAT      O24619   3.631   5.331   2.910
 8126WAT     H124620   3.662   5.425   2.894
 8126WAT     H224621   3.701   5.267   2.878
 8127WAT      O24622   8.050   4.196   4.234
 8127WAT     H124623   7.989   4.209   4.312
 8127WAT     H224624   8.002   4.218   4.149
 8128WAT      O24625   0.639   1.366   9.631
 8128WAT     H124626   0.688   1.280   9.643
 8128WAT     H224627   0.703   1.443   9.638
 8129WAT      O24628   5.154   1.273   3.973
 8129WAT     H124629   5.137   1.179   4.004
 8129WAT     H224630   5.121   1.338   4.041
 8130WAT      O24631   0.870   1.888   5.407
 8130WAT     H124632   0.859   1.850   5.315
 8130WAT     H224633   0.893   1.813   5.470
 8131WAT      O24634   8.619   8.469   9.342
 8131WAT     H124635   8.692   8.406   9.315
 8131WAT     H224636   8.531   8.431   9.316
 8132WAT      O24637   5.514   5.068   7.381
 8132WAT     H124638   5.602   5.063   7.430
 8132WAT     H224639   5.439   5.053   7.446
 8133WAT      O24640   0.171   1.943   2.797
 8133WAT     H124641   0.166   2.029   2.848
 8133WAT     H224642   0.084   1.927   2.751
 8134WAT      O24643   8.139   6.186   7.058
 8134WAT     H124644   8.219   6.193   7.118
 8134WAT     H224645   8.163   6.223   6.968
 8135WAT      O24646   8.290   1.982   9.297
 8135WAT     H124647   8.236   2.052   9.250
 8135WAT     H224648   8.237   1.898   9.303
 8136WAT      O24649   5.200   0.666   2.815
 8136WAT     H124650   5.110   0.638   2.849
 8136WAT     H224651   5.224   0.611   2.735
 8137WAT      O24652   1.227   8.461   3.213
 8137WAT     H124653   1.271   8.503   3.133
 8137WAT     H224654   1.140   8.421   3.185
 8138WAT      O24655   6.491   0.623   3.896
 8138WAT     H124656   6.442   0.560   3.835
 8138WAT     H224657   6.427   0.691   3.931
 8139WAT      O24658   4.153   8.874   0.837
 8139WAT     H124659   4.076   8.856   0.775
 8139WAT     H224660   4.149   8.811   0.914
 8140WAT      O24661   5.654   7.743   6.096
 8140WAT     H124662   5.714   7.695   6.031
 8140WAT     H224663   5.672   7.710   6.189
 8141WAT      O24664   5.648   3.887   3.968
 8141WAT     H124665   5.706   3.807   3.952
 8141WAT     H224666   5.704   3.969   3.976
 8142WAT      O24667   1.381   0.894   5.570
 8142WAT     H124668   1.470   0.855   5.545
 8142WAT     H224669   1.316   0.821   5.588
 8143WAT      O24670   1.274   4.945   4.692
 8143WAT     H124671   1.246   4.997   4.612
 8143WAT     H224672   1.259   4.847   4.676
 8144WAT      O24673   8.900   8.954   3.472
 8144WAT     H124674   8.809   8.967   3.513
 8144WAT     H224675   8.921   9.032   3.413
 8145WAT      O24676   0.227   3.219   9.082
 8145WAT     H124677   0.185   3.305   9.054
 8145WAT     H224678   0.325   3.233   9.098
 8146WAT      O24679   1.789   7.583   2.456
 8146WAT     H124680   1.795   7.517   2.530
 8146WAT     H224681   1.881   7.600   2.420
 8147WAT      O24682   0.783   1.939   7.413
 8147WAT     H124683   0.707   1.954   7.476
 8147WAT     H224684   0.753   1.882   7.337
 8148WAT      O24685   0.585   6.707   5.190
 8148WAT     H124686   0.554   6.766   5.115
 8148WAT     H224687   0.567   6.611   5.166
 8149WAT      O24688   6.392   2.196   7.503
 8149WAT     H124689   6.424   2.169   7.412
 8149WAT     H224690   6.296   2.223   7.498
 8150WAT      O24691   3.647   8.394   0.913
 8150WAT     H124692   3.621   8.312   0.965
 8150WAT     H224693   3.739   8.423   0.940
 8151WAT      O24694   0.940   9.063   0.529
 8151WAT     H124695   0.951   9.007   0.612
 8151WAT     H224696   0.879   9.015   0.465
 8152WAT      O24697   9.239   2.552   3.233
 8152WAT     H124698   9.269   2.596   3.317
 8152WAT     H224699   9.277   2.460   3.227
 8153WAT      O24700   5.977   2.620   5.794
 8153WAT     H124701   5.929   2.650   5.876
 8153WAT     H224702   5.918   2.630   5.714
 8154WAT      O24703   9.800   4.810   0.767
 8154WAT     H124704   9.846   4.817   0.678
 8154WAT     H224705   9.824   4.723   0.810
 8155WAT      O24706   2.138   9.667   0.798
 8155WAT     H124707   2.173   9.575   0.816
 8155WAT     H224708   2.215   9.731   0.790
 8156WAT      O24709   3.608   3.716   7.861
 8156WAT     H124710   3.532   3.768   7.822
 8156WAT     H224711   3.681   3.708   7.793
 8157WAT      O24712   0.077   9.039   1.077
 8157WAT     H124713   0.162   9.020   1.028
 8157WAT     H224714   0.031   9.118   1.036
 8158WAT      O24715   4.158   8.725   7.200
 8158WAT     H124716   4.080   8.726   7.262
 8158WAT     H224717   4.133   8.681   7.114
 8159WAT      O24718   2.980   7.859   6.666
 8159WAT     H124719   3.057   7.922   6.675
 8159WAT     H224720   2.981   7.794   6.743
 8160WAT      O24721   4.433   3.223   0.986
 8160WAT     H124722   4.336   3.200   0.991
 8160WAT     H224723   4.487   3.139   0.981
 8161WAT      O24724   6.952   4.310   6.180
 8161WAT     H124725   6.878   4.243   6.175
 8161WAT     H224726   6.931   4.377   6.252
 8162WAT      O24727   2.541   0.602   9.157
 8162WAT     H124728   2.484   0.682   9.133
 8162WAT     H224729   2.559   0.602   9.255
 8163WAT      O24730   3.658   4.667   7.336
 8163WAT     H124731   3.606   4.725   7.274
 8163WAT     H224732   3.601   4.642   7.415
 8164WAT      O24733   5.277   7.695   7.133
 8164WAT     H124734   5.350   7.648   7.183
 8164WAT     H224735   5.275   7.662   7.039
 8165WAT      O24736   6.002   6.291   4.323
 8165WAT     H124737   5.951   6.347   4.257
 8165WAT     H224738   5.956   6.293   4.411
 8166WAT      O24739   4.462   7.448   0.225
 8166WAT     H124740   4.438   7.355   0.253
 8166WAT     H224741   4.429   7.464   0.132
 8167WAT      O24742   4.208   0.836   0.907
 8167WAT     H124743   4.113   0.817   0.885
 8167WAT     H224744   4.248   0.893   0.835
 8168WAT      O24745   3.622   7.953   6.414
 8168WAT     H124746   3.672   8.038   6.395
 8168WAT     H224747   3.527   7.963   6.386
 8169WAT      O24748   3.113   5.668   2.139
 8169WAT     H124749   3.017   5.669   2.110
 8169WAT     H224750   3.167   5.723   2.075
 8170WAT      O24751   4.980   6.554   1.313
 8170WAT     H124752   5.002   6.643   1.271
 8170WAT     H224753   4.959   6.488   1.242
 8171WAT      O24754   6.349   2.882   3.274
 8171WAT     H124755   6.312   2.886   3.367
 8171WAT     H224756   6.274   2.865   3.210
 8172WAT      O24757   0.959   9.007   5.306
 8172WAT     H124758   0.912   9.093   5.288
 8172WAT     H224759   1.056   9.017   5.287
 8173WAT      O24760   5.888   1.288   3.783
 8173WAT     H124761   5.818   1.348   3.823
 8173WAT     H224762   5.866   1.193   3.805
 8174WAT      O24763   4.526   8.456   4.634
 8174WAT     H124764   4.509   8.457   4.733
 8174WAT     H224765   4.508   8.547   4.596
 8175WAT      O24766   5.957   2.525   3.611
 8175WAT     H124767   5.984   2.491   3.521
 8175WAT     H224768   5.874   2.478   3.641
 8176WAT      O24769   0.606   2.881   4.322
 8176WAT     H124770   0.593   2.918   4.414
 8176WAT     H224771   0.700   2.849   4.313
 8177WAT      O24772   9.789   4.795   3.012
 8177WAT     H124773   9.824   4.859   2.943
 8177WAT     H224774   9.821   4.822   3.102
 8178WAT      O24775   8.457   5.026   4.797
 8178WAT     H124776   8.408   4.961   4.739
 8178WAT     H224777   8.450   5.118   4.757
 8179WAT      O24778   7.474   7.340   1.106
 8179WAT     H124779   7.476   7.264   1.171
 8179WAT     H224780   7.391   7.395   1.122
 8180WAT      O24781   1.272   9.354   2.161
 8180WAT     H124782   1.186   9.391   2.197
 8180WAT     H224783   1.268   9.254   2.162
 8181WAT      O24784   7.176   8.989   1.570
 8181WAT     H124785   7.183   8.891   1.550
 8181WAT     H224786   7.266   9.031   1.568
 8182WAT      O24787   1.838   2.670   8.841
 8182WAT     H124788   1.858   2.745   8.905
 8182WAT     H224789   1.898   2.677   8.761
 8183WAT      O24790   7.014   7.991   2.258
 8183WAT     H124791   7.055   8.078   2.232
 8183WAT     H224792   6.986   7.995   2.354
 8184WAT      O24793   6.527   0.489   4.644
 8184WAT     H124794   6.575   0.487   4.731
 8184WAT     H224795   6.433   0.458   4.657
 8185WAT      O24796   7.455   5.432   3.153
 8185WAT     H124797   7.380   5.367   3.165
 8185WAT     H224798   7.424   5.510   3.098
 8186WAT      O24799   5.200   0.939   1.496
 8186WAT     H124800   5.120   0.891   1.532
 8186WAT     H224801   5.271   0.872   1.474
 8187WAT      O24802   3.180   1.296   6.923
 8187WAT     H124803   3.183   1.202   6.891
 8187WAT     H224804   3.253   1.349   6.879
 8188WAT      O24805   2.945   9.755   0.279
 8188WAT     H124806   2.999   9.821   0.330
 8188WAT     H224807   2.871   9.802   0.231
 8189WAT      O24808   4.972   6.078   8.968
 8189WAT     H124809   4.910   6.065   9.045
 8189WAT     H224810   4.931   6.042   8.885
 8190WAT      O24811   1.423   8.639   0.615
 8190WAT     H124812   1.508   8.589   0.634
 8190WAT     H224813   1.385   8.674   0.701
 8191WAT      O24814   5.134   2.415   8.877
 8191WAT     H124815   5.041   2.433   8.912
 8191WAT     H224816   5.132   2.410   8.778
 8192WAT      O24817   1.025   0.900   3.800
 8192WAT     H124818   0.967   0.878   3.721
 8192WAT     H224819   0.969   0.938   3.873
 8193WAT      O24820   2.614   8.396   2.068
 8193WAT     H124821   2.710   8.399   2.039
 8193WAT     H224822   2.605   8.336   2.147
 8194WAT      O24823   6.263   5.380   2.616
 8194WAT     H124824   6.221   5.457   2.569
 8194WAT     H224825   6.194   5.308   2.630
 8195WAT      O24826   2.991   8.333   7.339
 8195WAT     H124827   2.937   8.278   7.402
 8195WAT     H224828   3.078   8.357   7.381
 8196WAT      O24829   7.170   4.884   2.504
 8196WAT     H124830   7.142   4.788   2.491
 8196WAT     H224831   7.134   4.917   2.591
 8197WAT      O24832   0.461   7.130   0.322
 8197WAT     H124833   0.542   7.169   0.366
 8197WAT     H224834   0.470   7.138   0.222
 8198WAT      O24835   8.126   2.583   1.613
 8198WAT     H124836   8.111   2.604   1.710
 8198WAT     H224837   8.039   2.589   1.564
 8199WAT      O24838   7.387   1.666   3.456
 8199WAT     H124839   7.293   1.661   3.490
 8199WAT     H224840   7.402   1.754   3.412
 8200WAT      O24841   5.594   5.273   6.674
 8200WAT     H124842   5.561   5.322   6.755
 8200WAT     H224843   5.524   5.278   6.602
 8201WAT      O24844   8.047   8.607   6.638
 8201WAT     H124845   7.955   8.589   6.673
 8201WAT     H224846   8.041   8.669   6.560
 8202WAT      O24847   2.078   3.838   7.139
 8202WAT     H124848   2.150   3.881   7.085
 8202WAT     H224849   2.019   3.909   7.177
 8203WAT      O24850   1.194   6.082   7.741
 8203WAT     H124851   1.175   6.074   7.643
 8203WAT     H224852   1.108   6.082   7.792
 8204WAT      O24853   3.642   8.283   5.977
 8204WAT     H124854   3.579   8.300   6.053
 8204WAT     H224855   3.733   8.316   6.001
 8205WAT      O24856   6.895   2.857   7.222
 8205WAT     H124857   6.984   2.877   7.180
 8205WAT     H224858   6.904   2.859   7.321
 8206WAT      O24859   7.041   4.850   6.019
 8206WAT     H124860   7.011   4.855   6.114
 8206WAT     H224861   7.102   4.771   6.008
 8207WAT      O24862   6.290   9.099   4.188
 8207WAT     H124863   6.310   9.022   4.128
 8207WAT     H224864   6.262   9.066   4.278
 8208WAT      O24865   0.492   6.136   4.771
 8208WAT     H124866   0.459   6.044   4.795
 8208WAT     H224867   0.583   6.129   4.730
 8209WAT      O24868   4.130   1.327   8.253
 8209WAT     H124869   4.151   1.244   8.201
 8209WAT     H224870   4.032   1.346   8.246
 8210WAT      O24871   3.915   2.991   8.757
 8210WAT     H124872   3.869   3.073   8.722
 8210WAT     H224873   3.945   2.935   8.680
 8211WAT      O24874   5.798   3.460   9.471
 8211WAT     H124875   5.752   3.529   9.527
 8211WAT     H224876   5.847   3.396   9.530
 8212WAT      O24877   6.725   6.763   7.234
 8212WAT     H124878   6.728   6.725   7.141
 8212WAT     H224879   6.682   6.698   7.296
 8213WAT      O24880   7.061   4.114   1.672
 8213WAT     H124881   7.048   4.039   1.736
 8213WAT     H224882   7.106   4.190   1.720
 8214WAT      O24883   5.007   5.187   8.185
 8214WAT     H124884   5.035   5.242   8.107
 8214WAT     H224885   4.917   5.146   8.166
 8215WAT      O24886   8.297   4.555   6.382
 8215WAT     H124887   8.368   4.523   6.445
 8215WAT     H224888   8.325   4.533   6.288
 8216WAT      O24889   9.013   2.439   7.674
 8216WAT     H124890   9.008   2.443   7.574
 8216WAT     H224891   9.091   2.493   7.706
 8217WAT      O24892   9.585   8.391   8.185
 8217WAT     H124893   9.608   8.293   8.191
 8217WAT     H224894   9.574   8.417   8.089
 8218WAT      O24895   7.031   2.839   6.112
 8218WAT     H124896   7.021   2.925   6.162
 8218WAT     H224897   7.128   2.815   6.104
 8219WAT      O24898   0.854   3.571   3.269
 8219WAT     H124899   0.806   3.591   3.355
 8219WAT     H224900   0.944   3.534   3.290
 8220WAT      O24901   8.857   8.557   9.602
 8220WAT     H124902   8.851   8.657   9.602
 8220WAT     H224903   8.811   8.521   9.521
 8221WAT      O24904   5.235   5.684   3.403
 8221WAT     H124905   5.136   5.682   3.415
 8221WAT     H224906   5.260   5.761   3.344
 8222WAT      O24907   7.096   9.331   9.774
 8222WAT     H124908   7.012   9.341   9.720
 8222WAT     H224909   7.145   9.418   9.776
 8223WAT      O24910   9.685   4.488   3.397
 8223WAT     H124911   9.591   4.512   3.371
 8223WAT     H224912   9.683   4.411   3.461
 8224WAT      O24913   5.098   5.719   8.170
 8224WAT     H124914   5.065   5.803   8.212
 8224WAT     H224915   5.023   5.673   8.123
 8225WAT      O24916   8.401   7.439   7.341
 8225WAT     H124917   8.495   7.447   7.309
 8225WAT     H224918   8.362   7.353   7.309
 8226WAT      O24919   5.158   1.541   3.650
 8226WAT     H124920   5.168   1.604   3.727
 8226WAT     H224921   5.217   1.462   3.663
 8227WAT      O24922   2.588   9.765   3.325
 8227WAT     H124923   2.504   9.722   3.357
 8227WAT     H224924   2.591   9.860   3.355
 8228WAT      O24925   7.421   6.381   2.335
 8228WAT     H124926   7.396   6.444   2.262
 8228WAT     H224927   7.481   6.427   2.400
 8229WAT      O24928   4.118   5.550   5.949
 8229WAT     H124929   4.112   5.649   5.944
 8229WAT     H224930   4.027   5.512   5.964
 8230WAT      O24931   9.108   4.108   0.637
 8230WAT     H124932   9.038   4.173   0.609
 8230WAT     H224933   9.078   4.059   0.719
 8231WAT      O24934   7.891   6.978   3.092
 8231WAT     H124935   7.982   7.004   3.058
 8231WAT     H224936   7.890   6.983   3.192
 8232WAT      O24937   4.471   6.148   7.304
 8232WAT     H124938   4.484   6.063   7.253
 8232WAT     H224939   4.542   6.157   7.373
 8233WAT      O24940   5.814   9.253   3.067
 8233WAT     H124941   5.756   9.172   3.058
 8233WAT     H224942   5.896   9.242   3.011
 8234WAT      O24943   5.423   1.415   5.775
 8234WAT     H124944   5.405   1.509   5.803
 8234WAT     H224945   5.352   1.355   5.812
 8235WAT      O24946   1.412   5.131   6.875
 8235WAT     H124947   1.347   5.207   6.882
 8235WAT     H224948   1.429   5.092   6.965
 8236WAT      O24949   4.347   3.740   1.874
 8236WAT     H124950   4.287   3.789   1.810
 8236WAT     H224951   4.358   3.646   1.843
 8237WAT      O24952   0.412   4.776   4.241
 8237WAT     H124953   0.315   4.793   4.223
 8237WAT     H224954   0.450   4.720   4.168
 8238WAT      O24955   7.570   3.957   8.736
 8238WAT     H124956   7.608   3.976   8.645
 8238WAT     H224957   7.632   3.995   8.805
 8239WAT      O24958   6.767   7.519   8.776
 8239WAT     H124959   6.680   7.564   8.793
 8239WAT     H224960   6.812   7.498   8.862
 8240WAT      O24961   3.020   5.316   4.098
 8240WAT     H124962   3.011   5.275   4.188
 8240WAT     H224963   3.018   5.244   4.028
 8241WAT      O24964   4.448   8.563   1.893
 8241WAT     H124965   4.530   8.570   1.949
 8241WAT     H224966   4.383   8.501   1.937
 8242WAT      O24967   8.686   2.549   1.848
 8242WAT     H124968   8.600   2.504   1.825
 8242WAT     H224969   8.669   2.623   1.913
 8243WAT      O24970   6.455   5.579   2.214
 8243WAT     H124971   6.444   5.541   2.306
 8243WAT     H224972   6.410   5.519   2.148
 8244WAT      O24973   8.207   9.742   6.865
 8244WAT     H124974   8.224   9.652   6.906
 8244WAT     H224975   8.210   9.733   6.765
 8245WAT      O24976   6.038   7.560   1.432
 8245WAT     H124977   6.017   7.470   1.395
 8245WAT     H224978   6.114   7.601   1.382
 8246WAT      O24979   2.299   9.543   8.724
 8246WAT     H124980   2.348   9.607   8.783
 8246WAT     H224981   2.338   9.452   8.735
 8247WAT      O24982   5.286   6.202   8.615
 8247WAT     H124983   5.361   6.254   8.573
 8247WAT     H224984   5.215   6.265   8.646
 8248WAT      O24985   6.380   4.429   9.192
 8248WAT     H124986   6.395   4.489   9.113
 8248WAT     H224987   6.363   4.484   9.273
 8249WAT      O24988   0.195   6.601   9.780
 8249WAT     H124989   0.275   6.543   9.795
 8249WAT     H224990   0.150   6.573   9.695
 8250WAT      O24991   0.549   1.565   4.699
 8250WAT     H124992   0.559   1.513   4.614
 8250WAT     H224993   0.569   1.662   4.682
 8251WAT      O24994   9.242   3.646   7.971
 8251WAT     H124995   9.203   3.573   8.026
 8251WAT     H224996   9.171   3.687   7.914
 8252WAT      O24997   8.345   1.325   8.320
 8252WAT     H124998   8.407   1.396   8.353
 8252WAT     H224999   8.356   1.243   8.376
 8253WAT      O25000   1.940   1.996   8.598
 8253WAT     H125001   1.954   2.055   8.519
 8253WAT     H225002   2.028   1.981   8.644
 8254WAT      O25003   2.258   0.064   1.815
 8254WAT     H125004   2.283   0.140   1.755
 8254WAT     H225005   2.171   0.025   1.784
 8255WAT      O25006   8.895   1.857   8.800
 8255WAT     H125007   8.921   1.953   8.791
 8255WAT     H225008   8.839   1.845   8.881
 8256WAT      O25009   6.558   2.319   3.827
 8256WAT     H125010   6.472   2.366   3.807
 8256WAT     H225011   6.634   2.384   3.821
 8257WAT      O25012   1.298   2.884   4.868
 8257WAT     H125013   1.344   2.844   4.947
 8257WAT     H225014   1.264   2.975   4.892
 8258WAT      O25015   2.845   2.505   7.576
 8258WAT     H125016   2.799   2.418   7.556
 8258WAT     H225017   2.933   2.487   7.619
 8259WAT      O25018   1.496   4.993   7.984
 8259WAT     H125019   1.556   5.055   7.934
 8259WAT     H225020   1.401   5.010   7.960
 8260WAT      O25021   2.266   6.463   4.601
 8260WAT     H125022   2.223   6.449   4.511
 8260WAT     H225023   2.210   6.526   4.655
 8261WAT      O25024   7.984   5.876   2.833
 8261WAT     H125025   7.923   5.799   2.815
 8261WAT     H225026   7.989   5.892   2.932
 8262WAT      O25027   2.662   9.421   8.968
 8262WAT     H125028   2.714   9.338   8.987
 8262WAT     H225029   2.712   9.501   9.002
 8263WAT      O25030   1.198   5.278   4.631
 8263WAT     H125031   1.239   5.267   4.721
 8263WAT     H225032   1.105   5.241   4.631
 8264WAT      O25033   1.599   9.078   9.082
 8264WAT     H125034   1.542   9.045   9.006
 8264WAT     H225035   1.577   9.027   9.165
 8265WAT      O25036   9.854   5.293   5.558
 8265WAT     H125037   9.934   5.311   5.616
 8265WAT     H225038   9.840   5.369   5.495
 8266WAT      O25039   3.694   2.517   6.738
 8266WAT     H125040   3.632   2.574   6.792
 8266WAT     H225041   3.779   2.566   6.721
 8267WAT      O25042   0.308   0.529   5.042
 8267WAT     H125043   0.326   0.440   5.083
 8267WAT     H225044   0.368   0.598   5.082
 8268WAT      O25045   1.389   3.170   0.766
 8268WAT     H125046   1.442   3.191   0.848
 8268WAT     H225047   1.432   3.213   0.686
 8269WAT      O25048   7.488   6.180   7.198
 8269WAT     H125049   7.507   6.277   7.183
 8269WAT     H225050   7.505   6.157   7.294
 8270WAT      O25051   2.752   6.079   8.184
 8270WAT     H125052   2.666   6.090   8.135
 8270WAT     H225053   2.828   6.078   8.118
 8271WAT      O25054   3.688   7.164   4.280
 8271WAT     H125055   3.679   7.211   4.192
 8271WAT     H225056   3.627   7.086   4.283
 8272WAT      O25057   0.400   2.459   4.348
 8272WAT     H125058   0.412   2.518   4.428
 8272WAT     H225059   0.467   2.384   4.352
 8273WAT      O25060   1.747   3.258   7.629
 8273WAT     H125061   1.694   3.260   7.714
 8273WAT     H225062   1.780   3.350   7.609
 8274WAT      O25063   0.508   0.393   1.121
 8274WAT     H125064   0.518   0.492   1.121
 8274WAT     H225065   0.411   0.369   1.120
 8275WAT      O25066   8.824   9.210   8.181
 8275WAT     H125067   8.920   9.237   8.182
 8275WAT     H225068   8.811   9.131   8.241
 8276WAT      O25069   8.335   0.392   8.317
 8276WAT     H125070   8.251   0.439   8.288
 8276WAT     H225071   8.316   0.340   8.401
 8277WAT      O25072   5.185   3.256   4.533
 8277WAT     H125073   5.281   3.228   4.528
 8277WAT     H225074   5.141   3.239   4.445
 8278WAT      O25075   2.937   7.382   2.996
 8278WAT     H125076   2.991   7.459   3.029
 8278WAT     H225077   2.906   7.327   3.074
 8279WAT      O25078   7.203   0.427   4.462
 8279WAT     H125079   7.183   0.483   4.382
 8279WAT     H225080   7.202   0.484   4.544
 8280WAT      O25081   5.299   1.228   7.003
 8280WAT     H125082   5.344   1.312   7.032
 8280WAT     H225083   5.367   1.161   6.974
 8281WAT      O25084   5.068   9.012   8.408
 8281WAT     H125085   5.102   9.100   8.376
 8281WAT     H225086   5.101   8.939   8.348
 8282WAT      O25087   8.099   9.016   3.423
 8282WAT     H125088   8.000   9.028   3.431
 8282WAT     H225089   8.131   9.056   3.337
 8283WAT      O25090   5.354   5.429   7.162
 8283WAT     H125091   5.300   5.483   7.097
 8283WAT     H225092   5.302   5.418   7.247
 8284WAT      O25093   5.033   9.024   7.360
 8284WAT     H125094   5.120   9.006   7.315
 8284WAT     H225095   4.982   9.092   7.308
 8285WAT      O25096   0.889   2.439   0.199
 8285WAT     H125097   0.849   2.367   0.256
 8285WAT     H225098   0.963   2.485   0.250
 8286WAT      O25099   3.274   3.592   5.852
 8286WAT     H125100   3.328   3.603   5.768
 8286WAT     H225101   3.260   3.494   5.869
 8287WAT      O25102   6.918   6.001   9.310
 8287WAT     H125103   6.903   6.096   9.336
 8287WAT     H225104   6.965   5.954   9.385
 8288WAT      O25105   2.410   0.499   8.710
 8288WAT     H125106   2.506   0.522   8.725
 8288WAT     H225107   2.352   0.555   8.768
 8289WAT      O25108   8.559   2.024   9.296
 8289WAT     H125109   8.586   1.991   9.387
 8289WAT     H225110   8.462   2.003   9.280
 8290WAT      O25111   2.884   8.610   0.512
 8290WAT     H125112   2.933   8.528   0.483
 8290WAT     H225113   2.945   8.666   0.570
 8291WAT      O25114   1.832   8.935   9.230
 8291WAT     H125115   1.819   9.026   9.191
 8291WAT     H225116   1.780   8.868   9.177
 8292WAT      O25117   5.341   4.982   8.507
 8292WAT     H125118   5.246   5.015   8.502
 8292WAT     H225119   5.395   5.045   8.563
 8293WAT      O25120   0.538   0.212   4.417
 8293WAT     H125121   0.574   0.227   4.325
 8293WAT     H225122   0.593   0.143   4.463
 8294WAT      O25123   6.531   9.642   5.611
 8294WAT     H125124   6.477   9.559   5.627
 8294WAT     H225125   6.550   9.687   5.698
 8295WAT      O25126   2.382   5.144   7.659
 8295WAT     H125127   2.386   5.154   7.559
 8295WAT     H225128   2.431   5.061   7.686
 8296WAT      O25129   6.670   1.754   3.414
 8296WAT     H125130   6.756   1.707   3.392
 8296WAT     H225131   6.681   1.803   3.501
 8297WAT      O25132   6.354   3.881   5.733
 8297WAT     H125133   6.395   3.797   5.699
 8297WAT     H225134   6.414   3.958   5.712
 8298WAT      O25135   6.396   1.525   3.361
 8298WAT     H125136   6.473   1.501   3.419
 8298WAT     H225137   6.417   1.607   3.309
 8299WAT      O25138   0.953   5.702   5.702
 8299WAT     H125139   1.000   5.772   5.649
 8299WAT     H225140   0.980   5.709   5.798
 8300WAT      O25141   8.551   4.495   0.612
 8300WAT     H125142   8.584   4.528   0.701
 8300WAT     H225143   8.602   4.540   0.539
 8301WAT      O25144   6.254   4.457   5.841
 8301WAT     H125145   6.281   4.386   5.776
 8301WAT     H225146   6.228   4.539   5.791
 8302WAT      O25147   7.778   9.073   1.676
 8302WAT     H125148   7.871   9.080   1.712
 8302WAT     H225149   7.732   8.995   1.718
 8303WAT      O25150   7.362   0.225   6.899
 8303WAT     H125151   7.438   0.281   6.869
 8303WAT     H225152   7.289   0.227   6.830
 8304WAT      O25153   9.451   2.743   8.608
 8304WAT     H125154   9.373   2.731   8.546
 8304WAT     H225155   9.508   2.661   8.607
 8305WAT      O25156   9.641   5.346   1.529
 8305WAT     H125157   9.688   5.271   1.576
 8305WAT     H225158   9.542   5.332   1.536
 8306WAT      O25159   3.730   5.729   5.985
 8306WAT     H125160   3.653   5.698   5.929
 8306WAT     H225161   3.697   5.791   6.056
 8307WAT      O25162   4.759   7.699   3.897
 8307WAT     H125163   4.754   7.796   3.924
 8307WAT     H225164   4.815   7.649   3.964
 8308WAT      O25165   1.486   6.400   0.266
 8308WAT     H125166   1.514   6.480   0.318
 8308WAT     H225167   1.501   6.317   0.321
 8309WAT      O25168   8.285   0.210   5.170
 8309WAT     H125169   8.206   0.269   5.150
 8309WAT     H225170   8.338   0.196   5.086
 8310WAT      O25171   2.094   7.337   6.494
 8310WAT     H125172   2.071   7.253   6.544
 8310WAT     H225173   2.102   7.317   6.397
 8311WAT      O25174   4.373   7.811   0.593
 8311WAT     H125175   4.278   7.799   0.623
 8311WAT     H225176   4.397   7.908   0.595
 8312WAT      O25177   3.883   9.332   8.314
 8312WAT     H125178   3.910   9.342   8.218
 8312WAT     H225179   3.893   9.237   8.342
 8313WAT      O25180   8.758   1.042   2.590
 8313WAT     H125181   8.713   0.954   2.604
 8313WAT     H225182   8.838   1.049   2.651
 8314WAT      O25183   0.819   0.736   1.704
 8314WAT     H125184   0.831   0.658   1.642
 8314WAT     H225185   0.806   0.819   1.650
 8315WAT      O25186   1.369   5.629   3.441
 8315WAT     H125187   1.451   5.572   3.455
 8315WAT     H225188   1.355   5.643   3.344
 8316WAT      O25189   1.038   9.001   3.805
 8316WAT     H125190   1.079   9.090   3.823
 8316WAT     H225191   1.037   8.946   3.889
 8317WAT      O25192   0.006   8.615   4.143
 8317WAT     H125193  -0.075   8.595   4.089
 8317WAT     H225194   0.005   8.562   4.227
 8318WAT      O25195   2.512   2.451   8.312
 8318WAT     H125196   2.466   2.518   8.370
 8318WAT     H225197   2.583   2.405   8.365
 8319WAT      O25198   4.270   4.409   1.461
 8319WAT     H125199   4.298   4.403   1.365
 8319WAT     H225200   4.247   4.504   1.484
 8320WAT      O25201   0.593   1.609   1.063
 8320WAT     H125202   0.498   1.592   1.091
 8320WAT     H225203   0.648   1.527   1.078
 8321WAT      O25204   9.621   5.126   6.239
 8321WAT     H125205   9.652   5.124   6.144
 8321WAT     H225206   9.623   5.220   6.273
 8322WAT      O25207   3.216   1.732   7.535
 8322WAT     H125208   3.275   1.712   7.457
 8322WAT     H225209   3.122   1.744   7.504
 8323WAT      O25210   4.544   7.672   5.781
 8323WAT     H125211   4.448   7.679   5.808
 8323WAT     H225212   4.561   7.582   5.741
 8324WAT      O25213   4.165   7.424   9.264
 8324WAT     H125214   4.111   7.342   9.283
 8324WAT     H225215   4.109   7.491   9.216
 8325WAT      O25216   3.084   5.810   7.314
 8325WAT     H125217   3.013   5.859   7.363
 8325WAT     H225218   3.130   5.872   7.251
 8326WAT      O25219   9.409   0.462   9.605
 8326WAT     H125220   9.387   0.548   9.650
 8326WAT     H225221   9.329   0.402   9.606
 8327WAT      O25222   0.259   0.936   1.053
 8327WAT     H125223   0.180   0.994   1.031
 8327WAT     H225224   0.342   0.992   1.054
 8328WAT      O25225   9.241   8.987   6.284
 8328WAT     H125226   9.319   8.997   6.346
 8328WAT     H225227   9.164   9.039   6.320
 8329WAT      O25228   6.528   2.006   1.283
 8329WAT     H125229   6.590   2.008   1.204
 8329WAT     H225230   6.442   2.050   1.259
 8330WAT      O25231   6.096   0.682   7.910
 8330WAT     H125232   6.030   0.721   7.846
 8330WAT     H225233   6.047   0.624   7.976
 8331WAT      O25234   9.787   8.598   1.563
 8331WAT     H125235   9.794   8.663   1.639
 8331WAT     H225236   9.855   8.526   1.575
 8332WAT      O25237   2.923   7.351   1.186
 8332WAT     H125238   2.907   7.359   1.088
 8332WAT     H225239   2.859   7.285   1.225
 8333WAT      O25240   1.764   2.131   9.781
 8333WAT     H125241   1.831   2.075   9.732
 8333WAT     H225242   1.673   2.112   9.746
 8334WAT      O25243   4.731   7.091   5.729
 8334WAT     H125244   4.744   7.013   5.790
 8334WAT     H225245   4.721   7.058   5.635
 8335WAT      O25246   9.391   9.633   9.148
 8335WAT     H125247   9.420   9.537   9.146
 8335WAT     H225248   9.442   9.681   9.219
 8336WAT      O25249   8.357   3.275   3.103
 8336WAT     H125250   8.257   3.274   3.109
 8336WAT     H225251   8.392   3.184   3.124
 8337WAT      O25252   5.055   3.144   5.551
 8337WAT     H125253   4.966   3.184   5.572
 8337WAT     H225254   5.090   3.095   5.631
 8338WAT      O25255   6.831   2.868   3.732
 8338WAT     H125256   6.735   2.847   3.719
 8338WAT     H225257   6.865   2.823   3.815
 8339WAT      O25258   4.335   2.983   3.206
 8339WAT     H125259   4.322   3.005   3.303
 8339WAT     H225260   4.283   3.047   3.150
 8340WAT      O25261   9.546   3.424   9.595
 8340WAT     H125262   9.502   3.456   9.678
 8340WAT     H225263   9.511   3.476   9.517
 8341WAT      O25264   7.357   2.146   7.469
 8341WAT     H125265   7.415   2.158   7.550
 8341WAT     H225266   7.323   2.052   7.466
 8342WAT      O25267   5.581   9.839   5.542
 8342WAT     H125268   5.596   9.752   5.587
 8342WAT     H225269   5.517   9.894   5.595
 8343WAT      O25270   8.965   8.197   8.682
 8343WAT     H125271   8.868   8.176   8.694
 8343WAT     H225272   8.990   8.186   8.586
 8344WAT      O25273   4.585   5.904   7.204
 8344WAT     H125274   4.683   5.898   7.220
 8344WAT     H225275   4.540   5.824   7.243
 8345WAT      O25276   0.897   1.334   4.996
 8345WAT     H125277   0.909   1.313   5.093
 8345WAT     H225278   0.801   1.358   4.979
 8346WAT      O25279   5.482   5.587   9.426
 8346WAT     H125280   5.471   5.516   9.357
 8346WAT     H225281   5.393   5.626   9.449
 8347WAT      O25282   6.760   9.380   3.262
 8347WAT     H125283   6.828   9.308   3.250
 8347WAT     H225284   6.738   9.389   3.359
 8348WAT      O25285   4.237   4.658   7.969
 8348WAT     H125286   4.319   4.614   8.005
 8348WAT     H225287   4.260   4.710   7.887
 8349WAT      O25288   7.043   4.364   8.929
 8349WAT     H125289   7.006   4.371   8.836
 8349WAT     H225290   6.968   4.350   8.994
 8350WAT      O25291   2.351   3.714   0.812
 8350WAT     H125292   2.427   3.739   0.872
 8350WAT     H225293   2.307   3.797   0.778
 8351WAT      O25294   9.588   1.736   7.352
 8351WAT     H125295   9.583   1.776   7.443
 8351WAT     H225296   9.512   1.673   7.339
 8352WAT      O25297   8.290   4.277   2.607
 8352WAT     H125298   8.364   4.345   2.604
 8352WAT     H225299   8.307   4.206   2.538
 8353WAT      O25300   5.888   8.276   4.699
 8353WAT     H125301   5.842   8.319   4.777
 8353WAT     H225302   5.978   8.243   4.727
 8354WAT      O25303   3.372   0.728   4.470
 8354WAT     H125304   3.380   0.738   4.371
 8354WAT     H225305   3.277   0.708   4.494
 8355WAT      O25306   3.307   4.935   1.351
 8355WAT     H125307   3.240   4.973   1.415
 8355WAT     H225308   3.375   4.882   1.402
 8356WAT      O25309   7.936   6.093   6.438
 8356WAT     H125310   7.899   6.143   6.516
 8356WAT     H225311   7.869   6.091   6.365
 8357WAT      O25312   2.816   2.989   0.261
 8357WAT     H125313   2.835   3.012   0.356
 8357WAT     H225314   2.742   3.049   0.227
 8358WAT      O25315   0.361   9.249   3.164
 8358WAT     H125316   0.324   9.326   3.216
 8358WAT     H225317   0.313   9.243   3.077
 8359WAT      O25318   6.305   3.321   4.399
 8359WAT     H125319   6.258   3.400   4.360
 8359WAT     H225320   6.240   3.246   4.410
 8360WAT      O25321   7.966   3.863   0.420
 8360WAT     H125322   7.958   3.903   0.329
 8360WAT     H225323   7.924   3.772   0.421
 8361WAT      O25324   6.875   4.914   0.401
 8361WAT     H125325   6.797   4.976   0.413
 8361WAT     H225326   6.957   4.954   0.441
 8362WAT      O25327   4.624   7.466   0.619
 8362WAT     H125328   4.658   7.492   0.710
 8362WAT     H225329   4.525   7.481   0.615
 8363WAT      O25330   0.521   6.630   7.533
 8363WAT     H125331   0.550   6.536   7.514
 8363WAT     H225332   0.602   6.688   7.545
 8364WAT      O25333   2.101   7.997   7.207
 8364WAT     H125334   2.143   7.989   7.298
 8364WAT     H225335   2.042   8.077   7.204
 8365WAT      O25336   1.806   0.503   5.423
 8365WAT     H125337   1.795   0.451   5.339
 8365WAT     H225338   1.743   0.468   5.492
 8366WAT      O25339   5.706   9.147   8.376
 8366WAT     H125340   5.678   9.069   8.321
 8366WAT     H225341   5.655   9.147   8.462
 8367WAT      O25342   4.784   6.911   8.630
 8367WAT     H125343   4.842   6.920   8.549
 8367WAT     H225344   4.696   6.954   8.613
 8368WAT      O25345   5.834   8.623   9.503
 8368WAT     H125346   5.818   8.556   9.575
 8368WAT     H225347   5.854   8.576   9.417
 8369WAT      O25348   4.450   5.169   1.219
 8369WAT     H125349   4.422   5.077   1.245
 8369WAT     H225350   4.449   5.229   1.299
 8370WAT      O25351   6.031   4.385   1.618
 8370WAT     H125352   5.997   4.384   1.524
 8370WAT     H225353   6.016   4.295   1.660
 8371WAT      O25354   7.005   5.272   4.322
 8371WAT     H125355   7.063   5.292   4.243
 8371WAT     H225356   7.038   5.323   4.401
 8372WAT      O25357   8.483   0.928   5.052
 8372WAT     H125358   8.574   0.925   5.011
 8372WAT     H225359   8.466   1.019   5.089
 8373WAT      O25360   8.277   8.711   1.269
 8373WAT     H125361   8.209   8.780   1.244
 8373WAT     H225362   8.250   8.668   1.356
 8374WAT      O25363   6.912   3.420   0.358
 8374WAT     H125364   6.812   3.423   0.353
 8374WAT     H225365   6.947   3.509   0.385
 8375WAT      O25366   8.087   3.137   4.418
 8375WAT     H125367   8.185   3.155   4.411
 8375WAT     H225368   8.036   3.209   4.372
 8376WAT      O25369   2.581   6.049   0.563
 8376WAT     H125370   2.631   5.993   0.629
 8376WAT     H225371   2.543   6.129   0.609
 8377WAT      O25372   9.871   3.225   4.438
 8377WAT     H125373   9.924   3.142   4.424
 8377WAT     H225374   9.799   3.207   4.505
 8378WAT      O25375   1.757   6.771   0.859
 8378WAT     H125376   1.814   6.765   0.777
 8378WAT     H225377   1.698   6.691   0.865
 8379WAT      O25378   2.921   3.320   7.806
 8379WAT     H125379   2.860   3.252   7.847
 8379WAT     H225380   2.927   3.400   7.866
 8380WAT      O25381   2.352   6.846   3.847
 8380WAT     H125382   2.445   6.877   3.827
 8380WAT     H225383   2.337   6.756   3.805
 8381WAT      O25384   0.495   0.306   8.023
 8381WAT     H125385   0.514   0.246   8.100
 8381WAT     H225386   0.532   0.397   8.041
 8382WAT      O25387   8.714   7.801   3.607
 8382WAT     H125388   8.774   7.723   3.626
 8382WAT     H225389   8.747   7.882   3.657
 8383WAT      O25390   1.163   0.287   9.308
 8383WAT     H125391   1.107   0.204   9.312
 8383WAT     H225392   1.169   0.328   9.399
 8384WAT      O25393   6.530   6.299   2.992
 8384WAT     H125394   6.609   6.318   2.934
 8384WAT     H225395   6.499   6.384   3.035
 8385WAT      O25396   0.608   1.088   3.806
 8385WAT     H125397   0.591   1.186   3.803
 8385WAT     H225398   0.704   1.071   3.829
 8386WAT      O25399   8.676   2.882   0.267
 8386WAT     H125400   8.598   2.829   0.231
 8386WAT     H225401   8.711   2.942   0.195
 8387WAT      O25402   2.302   8.429   2.971
 8387WAT     H125403   2.341   8.409   3.061
 8387WAT     H225404   2.258   8.519   2.973
 8388WAT      O25405   5.100   3.275   2.062
 8388WAT     H125406   5.195   3.305   2.074
 8388WAT     H225407   5.039   3.349   2.087
 8389WAT      O25408   9.814   3.407   4.217
 8389WAT     H125409   9.842   3.353   4.296
 8389WAT     H225410   9.747   3.476   4.245
 8390WAT      O25411   9.807   2.799   8.869
 8390WAT     H125412   9.845   2.826   8.780
 8390WAT     H225413   9.872   2.739   8.916
 8391WAT      O25414   6.208   0.142   8.479
 8391WAT     H125415   6.166   0.232   8.466
 8391WAT     H225416   6.137   0.072   8.487
 8392WAT      O25417   3.432   5.362   3.362
 8392WAT     H125418   3.490   5.394   3.287
 8392WAT     H225419   3.380   5.282   3.333
 8393WAT      O25420   7.101   8.915   6.020
 8393WAT     H125421   7.175   8.974   5.986
 8393WAT     H225422   7.015   8.965   6.016
 8394WAT      O25423   7.760   2.215   3.730
 8394WAT     H125424   7.781   2.297   3.783
 8394WAT     H225425   7.842   2.159   3.721
 8395WAT      O25426   2.520   9.509   9.703
 8395WAT     H125427   2.605   9.539   9.746
 8395WAT     H225428   2.445   9.568   9.733
 8396WAT      O25429   8.148   9.465   4.559
 8396WAT     H125430   8.107   9.543   4.605
 8396WAT     H225431   8.245   9.459   4.583
 8397WAT      O25432   1.729   8.736   4.698
 8397WAT     H125433   1.814   8.726   4.647
 8397WAT     H225434   1.732   8.821   4.752
 8398WAT      O25435   4.196   2.884   7.747
 8398WAT     H125436   4.168   2.967   7.795
 8398WAT     H225437   4.178   2.805   7.804
 8399WAT      O25438   7.858   9.425   8.323
 8399WAT     H125439   7.806   9.369   8.388
 8399WAT     H225440   7.892   9.507   8.370
 8400WAT      O25441   2.605   5.763   4.832
 8400WAT     H125442   2.596   5.701   4.754
 8400WAT     H225443   2.571   5.853   4.807
 8401WAT      O25444   6.793   5.809   8.398
 8401WAT     H125445   6.738   5.825   8.480
 8401WAT     H225446   6.785   5.713   8.371
 8402WAT      O25447   7.460   9.093   7.398
 8402WAT     H125448   7.410   9.012   7.430
 8402WAT     H225449   7.556   9.068   7.384
 8403WAT      O25450   7.625   2.403   8.031
 8403WAT     H125451   7.658   2.312   8.005
 8403WAT     H225452   7.608   2.457   7.948
 8404WAT      O25453   7.410   5.201   7.754
 8404WAT     H125454   7.380   5.234   7.844
 8404WAT     H225455   7.507   5.219   7.743
 8405WAT      O25456   8.552   9.075   6.928
 8405WAT     H125457   8.502   9.157   6.954
 8405WAT     H225458   8.650   9.091   6.936
 8406WAT      O25459   9.712   3.849   1.120
 8406WAT     H125460   9.736   3.848   1.023
 8406WAT     H225461   9.634   3.909   1.135
 8407WAT      O25462   0.725   6.751   2.662
 8407WAT     H125463   0.630   6.725   2.644
 8407WAT     H225464   0.776   6.670   2.692
 8408WAT      O25465   1.401   6.186   9.252
 8408WAT     H125466   1.465   6.113   9.227
 8408WAT     H225467   1.309   6.161   9.223
 8409WAT      O25468   8.664   6.086   8.118
 8409WAT     H125469   8.597   6.111   8.049
 8409WAT     H225470   8.625   6.100   8.209
 8410WAT      O25471   3.035   1.231   9.177
 8410WAT     H125472   3.052   1.323   9.213
 8410WAT     H225473   3.044   1.165   9.251
 8411WAT      O25474   0.298   9.001   7.387
 8411WAT     H125475   0.383   9.002   7.334
 8411WAT     H225476   0.277   8.908   7.415
 8412WAT      O25477   3.628   8.794   2.362
 8412WAT     H125478   3.640   8.876   2.418
 8412WAT     H225479   3.716   8.750   2.347
 8413WAT      O25480   9.196   2.648   5.717
 8413WAT     H125481   9.275   2.679   5.664
 8413WAT     H225482   9.200   2.549   5.726
 8414WAT      O25483   6.871   8.189   7.279
 8414WAT     H125484   6.960   8.147   7.262
 8414WAT     H225485   6.826   8.142   7.355
 8415WAT      O25486   8.416   2.057   1.780
 8415WAT     H125487   8.420   2.147   1.736
 8415WAT     H225488   8.411   1.986   1.711
 8416WAT      O25489   5.768   4.541   9.846
 8416WAT     H125490   5.684   4.526   9.793
 8416WAT     H225491   5.841   4.482   9.810
 8417WAT      O25492   9.470   5.673   7.942
 8417WAT     H125493   9.568   5.652   7.938
 8417WAT     H225494   9.431   5.634   8.025
 8418WAT      O25495   8.713   6.376   7.965
 8418WAT     H125496   8.797   6.338   7.926
 8418WAT     H225497   8.634   6.330   7.925
 8419WAT      O25498   5.410   8.514   1.797
 8419WAT     H125499   5.430   8.417   1.807
 8419WAT     H225500   5.415   8.540   1.701
 8420WAT      O25501   9.635   2.376   9.741
 8420WAT     H125502   9.553   2.333   9.778
 8420WAT     H225503   9.715   2.345   9.792
 8421WAT      O25504   0.299   4.484   2.120
 8421WAT     H125505   0.213   4.514   2.160
 8421WAT     H225506   0.285   4.398   2.071
 8422WAT      O25507   5.944   2.205   9.052
 8422WAT     H125508   5.963   2.288   9.105
 8422WAT     H225509   6.028   2.175   9.007
 8423WAT      O25510   9.669   1.900   4.450
 8423WAT     H125511   9.739   1.868   4.514
 8423WAT     H225512   9.582   1.911   4.497
 8424WAT      O25513   0.111   5.027   3.372
 8424WAT     H125514   0.083   4.938   3.335
 8424WAT     H225515   0.189   5.015   3.433
 8425WAT      O25516   5.605   5.744   0.513
 8425WAT     H125517   5.589   5.684   0.434
 8425WAT     H225518   5.517   5.778   0.547
 8426WAT      O25519   9.395   9.228   0.781
 8426WAT     H125520   9.386   9.267   0.689
 8426WAT     H225521   9.363   9.294   0.849
 8427WAT      O25522   5.571   4.211   3.656
 8427WAT     H125523   5.575   4.195   3.755
 8427WAT     H225524   5.647   4.164   3.612
 8428WAT      O25525   1.835   0.782   1.284
 8428WAT     H125526   1.816   0.768   1.187
 8428WAT     H225527   1.904   0.716   1.314
 8429WAT      O25528   4.588   7.808   6.267
 8429WAT     H125529   4.529   7.737   6.305
 8429WAT     H225530   4.534   7.869   6.209
 8430WAT      O25531   0.902   1.033   4.011
 8430WAT     H125532   0.866   0.993   4.096
 8430WAT     H225533   0.963   1.109   4.033
 8431WAT      O25534   7.272   1.304   0.435
 8431WAT     H125535   7.260   1.206   0.418
 8431WAT     H225536   7.193   1.339   0.485
 8432WAT      O25537   1.870   6.366   9.104
 8432WAT     H125538   1.895   6.271   9.124
 8432WAT     H225539   1.788   6.367   9.046
 8433WAT      O25540   0.875   5.507   7.281
 8433WAT     H125541   0.822   5.587   7.310
 8433WAT     H225542   0.914   5.462   7.361
 8434WAT      O25543   1.376   1.866   2.411
 8434WAT     H125544   1.432   1.787   2.384
 8434WAT     H225545   1.329   1.902   2.331
 8435WAT      O25546   5.700   7.633   9.704
 8435WAT     H125547   5.696   7.550   9.648
 8435WAT     H225548   5.735   7.709   9.649
 8436WAT      O25549   7.031   2.040   3.673
 8436WAT     H125550   6.981   1.999   3.749
 8436WAT     H225551   6.968   2.053   3.596
 8437WAT      O25552   1.206   2.208   7.795
 8437WAT     H125553   1.106   2.206   7.790
 8437WAT     H225554   1.245   2.196   7.704
 8438WAT      O25555   5.697   1.874   9.821
 8438WAT     H125556   5.643   1.922   9.890
 8438WAT     H225557   5.664   1.898   9.730
 8439WAT      O25558   5.480   5.385   6.920
 8439WAT     H125559   5.437   5.403   7.009
 8439WAT     H225560   5.532   5.465   6.891
 8440WAT      O25561   8.754   3.702   9.364
 8440WAT     H125562   8.708   3.717   9.451
 8440WAT     H225563   8.743   3.782   9.306
 8441WAT      O25564   2.699   9.467   8.280
 8441WAT     H125565   2.757   9.548   8.287
 8441WAT     H225566   2.679   9.449   8.184
 8442WAT      O25567   9.512   5.764   1.612
 8442WAT     H125568   9.423   5.723   1.592
 8442WAT     H225569   9.506   5.821   1.693
 8443WAT      O25570   0.968   6.060   6.909
 8443WAT     H125571   0.987   6.146   6.957
 8443WAT     H225572   0.872   6.058   6.882
 8444WAT      O25573   9.775   0.053   9.687
 8444WAT     H125574   9.678   0.044   9.663
 8444WAT     H225575   9.785   0.052   9.786
 8445WAT      O25576   8.234   1.066   7.153
 8445WAT     H125577   8.237   1.160   7.189
 8445WAT     H225578   8.190   1.006   7.220
 8446WAT      O25579   2.218   8.978   1.877
 8446WAT     H125580   2.253   9.016   1.963
 8446WAT     H225581   2.252   9.033   1.800
 8447WAT      O25582   6.747   9.608   1.451
 8447WAT     H125583   6.845   9.622   1.464
 8447WAT     H225584   6.706   9.691   1.413
 8448WAT      O25585   2.132   9.039   6.188
 8448WAT     H125586   2.221   9.076   6.217
 8448WAT     H225587   2.060   9.105   6.210
 8449WAT      O25588   5.336   6.055   3.024
 8449WAT     H125589   5.299   6.108   2.948
 8449WAT     H225590   5.436   6.052   3.016
 8450WAT      O25591   4.731   1.547   2.704
 8450WAT     H125592   4.715   1.540   2.803
 8450WAT     H225593   4.690   1.631   2.670
 8451WAT      O25594   4.594   2.614   1.801
 8451WAT     H125595   4.674   2.668   1.825
 8451WAT     H225596   4.533   2.607   1.880
 8452WAT      O25597   2.997   6.805   4.298
 8452WAT     H125598   3.010   6.716   4.344
 8452WAT     H225599   3.066   6.869   4.332
 8453WAT      O25600   7.671   9.324   7.703
 8453WAT     H125601   7.754   9.364   7.665
 8453WAT     H225602   7.593   9.349   7.645
 8454WAT      O25603   2.516   4.963   1.598
 8454WAT     H125604   2.450   4.920   1.537
 8454WAT     H225605   2.560   4.892   1.655
 8455WAT      O25606   1.800   6.949   9.753
 8455WAT     H125607   1.748   7.031   9.730
 8455WAT     H225608   1.869   6.973   9.822
 8456WAT      O25609   8.604   1.284   0.089
 8456WAT     H125610   8.645   1.272  -0.001
 8456WAT     H225611   8.566   1.197   0.120
 8457WAT      O25612   6.811   7.534   3.255
 8457WAT     H125613   6.851   7.514   3.165
 8457WAT     H225614   6.882   7.530   3.325
 8458WAT      O25615   1.647   8.079  -0.000
 8458WAT     H125616   1.739   8.115   0.012
 8458WAT     H225617   1.581   8.154  -0.005
 8459WAT      O25618   0.779   8.008   5.440
 8459WAT     H125619   0.738   7.939   5.500
 8459WAT     H225620   0.712   8.079   5.420
 8460WAT      O25621   6.021   2.969   7.061
 8460WAT     H125622   6.004   3.035   7.135
 8460WAT     H225623   5.982   3.004   6.976
 8461WAT      O25624   1.446   6.602   6.215
 8461WAT     H125625   1.465   6.692   6.254
 8461WAT     H225626   1.373   6.557   6.268
 8462WAT      O25627   2.200   7.828   3.880
 8462WAT     H125628   2.261   7.824   3.801
 8462WAT     H225629   2.140   7.748   3.880
 8463WAT      O25630   8.803   5.385   7.739
 8463WAT     H125631   8.806   5.412   7.643
 8463WAT     H225632   8.735   5.440   7.787
 8464WAT      O25633   2.972   5.455   1.613
 8464WAT     H125634   2.963   5.385   1.542
 8464WAT     H225635   2.925   5.425   1.696
 8465WAT      O25636   7.530   3.058   2.592
 8465WAT     H125637   7.577   2.991   2.534
 8465WAT     H225638   7.475   3.118   2.534
 8466WAT      O25639   7.379   8.215   8.358
 8466WAT     H125640   7.439   8.150   8.312
 8466WAT     H225641   7.311   8.250   8.292
 8467WAT      O25642   1.525   9.631   1.572
 8467WAT     H125643   1.525   9.548   1.628
 8467WAT     H225644   1.526   9.606   1.475
 8468WAT      O25645   9.176   0.700   6.052
 8468WAT     H125646   9.088   0.697   6.005
 8468WAT     H225647   9.249   0.706   5.985
 8469WAT      O25648   5.804   4.812   5.609
 8469WAT     H125649   5.715   4.840   5.572
 8469WAT     H225650   5.860   4.892   5.626
 8470WAT      O25651   6.498   6.666   0.181
 8470WAT     H125652   6.534   6.583   0.139
 8470WAT     H225653   6.503   6.657   0.281
 8471WAT      O25654   5.660   9.011   7.622
 8471WAT     H125655   5.610   9.015   7.708
 8471WAT     H225656   5.679   8.916   7.598
 8472WAT      O25657   2.170   3.954   5.091
 8472WAT     H125658   2.139   4.011   5.015
 8472WAT     H225659   2.267   3.934   5.080
 8473WAT      O25660   2.166   1.188   6.188
 8473WAT     H125661   2.086   1.221   6.239
 8473WAT     H225662   2.149   1.095   6.154
 8474WAT      O25663   2.834   4.196   3.142
 8474WAT     H125664   2.931   4.216   3.129
 8474WAT     H225665   2.798   4.252   3.216
 8475WAT      O25666   6.159   7.774   4.189
 8475WAT     H125667   6.125   7.814   4.103
 8475WAT     H225668   6.131   7.832   4.266
 8476WAT      O25669   5.738   2.250   8.077
 8476WAT     H125670   5.759   2.248   8.175
 8476WAT     H225671   5.712   2.158   8.047
 8477WAT      O25672   9.104   3.817   3.560
 8477WAT     H125673   9.138   3.838   3.469
 8477WAT     H225674   9.036   3.884   3.587
 8478WAT      O25675   6.635   1.086   8.410
 8478WAT     H125676   6.583   1.127   8.336
 8478WAT     H225677   6.578   1.020   8.459
 8479WAT      O25678   9.074   2.476   5.111
 8479WAT     H125679   9.052   2.483   5.208
 8479WAT     H225680   9.135   2.398   5.096
 8480WAT      O25681   9.529   5.508   5.439
 8480WAT     H125682   9.488   5.418   5.449
 8480WAT     H225683   9.552   5.544   5.529
 8481WAT      O25684   5.969   7.048   9.313
 8481WAT     H125685   5.918   7.118   9.363
 8481WAT     H225686   6.031   7.091   9.248
 8482WAT      O25687   2.039   1.609   0.928
 8482WAT     H125688   1.963   1.608   0.994
 8482WAT     H225689   2.013   1.557   0.847
 8483WAT      O25690   1.624   8.964   6.551
 8483WAT     H125691   1.714   8.940   6.588
 8483WAT     H225692   1.579   9.029   6.613
 8484WAT      O25693   2.296   0.289   4.127
 8484WAT     H125694   2.285   0.353   4.051
 8484WAT     H225695   2.254   0.201   4.103
 8485WAT      O25696   2.160   8.039   7.496
 8485WAT     H125697   2.192   7.947   7.518
 8485WAT     H225698   2.060   8.039   7.488
 8486WAT      O25699   6.988   9.061   7.636
 8486WAT     H125700   7.068   9.018   7.595
 8486WAT     H225701   7.006   9.159   7.649
 8487WAT      O25702   5.506   8.794   9.592
 8487WAT     H125703   5.470   8.817   9.682
 8487WAT     H225704   5.592   8.843   9.577
 8488WAT      O25705   0.613   5.718   5.590
 8488WAT     H125706   0.534   5.691   5.535
 8488WAT     H225707   0.649   5.637   5.638
 8489WAT      O25708   1.268   1.813   6.551
 8489WAT     H125709   1.368   1.813   6.555
 8489WAT     H225710   1.233   1.729   6.593
 8490WAT      O25711   3.423   5.975   0.429
 8490WAT     H125712   3.394   5.904   0.365
 8490WAT     H225713   3.345   6.002   0.486
 8491WAT      O25714   4.021   8.379   0.342
 8491WAT     H125715   4.061   8.445   0.407
 8491WAT     H225716   3.925   8.366   0.365
 8492WAT      O25717   9.681   6.119   2.440
 8492WAT     H125718   9.756   6.066   2.478
 8492WAT     H225719   9.685   6.213   2.475
 8493WAT      O25720   2.208   5.986   2.379
 8493WAT     H125721   2.123   6.021   2.418
 8493WAT     H225722   2.252   6.058   2.325
 8494WAT      O25723   7.186   7.649   9.769
 8494WAT     H125724   7.231   7.735   9.795
 8494WAT     H225725   7.087   7.663   9.766
 8495WAT      O25726   4.965   2.629   4.494
 8495WAT     H125727   4.885   2.574   4.517
 8495WAT     H225728   4.953   2.668   4.403
 8496WAT      O25729   2.484   0.895   1.902
 8496WAT     H125730   2.575   0.935   1.905
 8496WAT     H225731   2.489   0.804   1.861
 8497WAT      O25732   9.595   2.526   8.663
 8497WAT     H125733   9.615   2.429   8.647
 8497WAT     H225734   9.642   2.557   8.745
 8498WAT      O25735   7.548   5.139   0.567
 8498WAT     H125736   7.576   5.145   0.472
 8498WAT     H225737   7.601   5.204   0.622
 8499WAT      O25738   0.633   7.387   8.317
 8499WAT     H125739   0.681   7.341   8.242
 8499WAT     H225740   0.690   7.460   8.354
 8500WAT      O25741   7.250   0.779   5.427
 8500WAT     H125742   7.342   0.743   5.412
 8500WAT     H225743   7.254   0.878   5.441
 8501WAT      O25744   0.006   4.081   3.426
 8501WAT     H125745  -0.089   4.059   3.451
 8501WAT     H225746   0.008   4.121   3.334
 8502WAT      O25747   4.813   6.496   9.442
 8502WAT     H125748   4.861   6.560   9.502
 8502WAT     H225749   4.874   6.422   9.417
 8503WAT      O25750   9.602   5.156   3.985
 8503WAT     H125751   9.674   5.188   3.923
 8503WAT     H225752   9.585   5.059   3.968
 8504WAT      O25753   2.632   2.247   7.757
 8504WAT     H125754   2.566   2.316   7.728
 8504WAT     H225755   2.598   2.200   7.839
 8505WAT      O25756   0.012   5.737   1.775
 8505WAT     H125757  -0.074   5.686   1.782
 8505WAT     H225758   0.006   5.820   1.831
 8506WAT      O25759   6.675   9.411   1.694
 8506WAT     H125760   6.747   9.357   1.737
 8506WAT     H225761   6.714   9.469   1.623
 8507WAT      O25762   6.898   0.095   6.345
 8507WAT     H125763   6.971   0.137   6.398
 8507WAT     H225764   6.937   0.031   6.279
 8508WAT      O25765   6.395   5.283   8.986
 8508WAT     H125766   6.401   5.378   9.016
 8508WAT     H225767   6.361   5.279   8.892
 8509WAT      O25768   2.400   3.125   0.210
 8509WAT     H125769   2.458   3.114   0.130
 8509WAT     H225770   2.405   3.219   0.243
 8510WAT      O25771   4.333   1.887   1.567
 8510WAT     H125772   4.427   1.858   1.549
 8510WAT     H225773   4.334   1.981   1.602
 8511WAT      O25774   4.361   4.802   6.119
 8511WAT     H125775   4.334   4.889   6.076
 8511WAT     H225776   4.375   4.816   6.217
 8512WAT      O25777   8.683   5.033   5.730
 8512WAT     H125778   8.779   5.046   5.704
 8512WAT     H225779   8.668   4.938   5.757
 8513WAT      O25780   3.806   7.448   6.710
 8513WAT     H125781   3.769   7.541   6.712
 8513WAT     H225782   3.835   7.426   6.618
 8514WAT      O25783   9.468   8.032   5.459
 8514WAT     H125784   9.437   7.952   5.510
 8514WAT     H225785   9.389   8.088   5.434
 8515WAT      O25786   2.418   4.597   8.641
 8515WAT     H125787   2.376   4.603   8.731
 8515WAT     H225788   2.453   4.504   8.627
 8516WAT      O25789   6.136   0.486   9.189
 8516WAT     H125790   6.173   0.458   9.101
 8516WAT     H225791   6.038   0.468   9.191
 8517WAT      O25792   1.032   5.479   7.521
 8517WAT     H125793   1.085   5.394   7.529
 8517WAT     H225794   1.090   5.550   7.482
 8518WAT      O25795   2.517   3.114   3.085
 8518WAT     H125796   2.508   3.172   3.166
 8518WAT     H225797   2.600   3.138   3.036
 8519WAT      O25798   6.481   6.851   1.909
 8519WAT     H125799   6.453   6.856   1.813
 8519WAT     H225800   6.444   6.930   1.958
 8520WAT      O25801   0.208   6.115   8.050
 8520WAT     H125802   0.123   6.067   8.071
 8520WAT     H225803   0.255   6.137   8.136
 8521WAT      O25804   6.655   1.226   7.392
 8521WAT     H125805   6.646   1.301   7.326
 8521WAT     H225806   6.597   1.150   7.363
 8522WAT      O25807   9.428   8.826   1.872
 8522WAT     H125808   9.356   8.809   1.805
 8522WAT     H225809   9.492   8.893   1.834
 8523WAT      O25810   8.896   4.412   7.008
 8523WAT     H125811   8.924   4.455   6.922
 8523WAT     H225812   8.884   4.481   7.079
 8524WAT      O25813   0.422   6.525   2.202
 8524WAT     H125814   0.333   6.523   2.247
 8524WAT     H225815   0.435   6.614   2.158
 8525WAT      O25816   8.935   9.073   3.817
 8525WAT     H125817   8.959   9.167   3.791
 8525WAT     H225818   8.836   9.061   3.810
 8526WAT      O25819   1.848   9.687   3.008
 8526WAT     H125820   1.884   9.662   3.098
 8526WAT     H225821   1.918   9.668   2.938
 8527WAT      O25822   3.461   8.276   4.249
 8527WAT     H125823   3.381   8.221   4.271
 8527WAT     H225824   3.542   8.218   4.250
 8528WAT      O25825   8.065   1.980   1.049
 8528WAT     H125826   8.134   2.039   1.090
 8528WAT     H225827   8.081   1.972   0.951
 8529WAT      O25828   9.034   9.143   7.046
 8529WAT     H125829   9.071   9.214   6.985
 8529WAT     H225830   8.939   9.126   7.021
 8530WAT      O25831   0.390   1.657   2.583
 8530WAT     H125832   0.355   1.658   2.489
 8530WAT     H225833   0.419   1.749   2.608
 8531WAT      O25834   9.526   0.813   6.753
 8531WAT     H125835   9.505   0.787   6.848
 8531WAT     H225836   9.496   0.907   6.737
 8532WAT      O25837   5.360   9.234   4.588
 8532WAT     H125838   5.346   9.248   4.686
 8532WAT     H225839   5.343   9.319   4.539
 8533WAT      O25840   2.336   8.714   2.603
 8533WAT     H125841   2.249   8.666   2.586
 8533WAT     H225842   2.338   8.798   2.549
 8534WAT      O25843   9.877   4.936   2.795
 8534WAT     H125844   9.849   4.873   2.722
 8534WAT     H225845   9.841   5.027   2.775
 8535WAT      O25846   8.462   6.814   9.169
 8535WAT     H125847   8.556   6.796   9.139
 8535WAT     H225848   8.418   6.727   9.192
 8536WAT      O25849   0.260   3.224   4.688
 8536WAT     H125850   0.350   3.265   4.696
 8536WAT     H225851   0.198   3.288   4.641
 8537WAT      O25852   9.228   2.277   6.194
 8537WAT     H125853   9.291   2.283   6.117
 8537WAT     H225854   9.240   2.188   6.239
 8538WAT      O25855   7.273   8.222   0.121
 8538WAT     H125856   7.194   8.260   0.169
 8538WAT     H225857   7.278   8.260   0.029
 8539WAT      O25858   6.353   5.763   7.036
 8539WAT     H125859   6.355   5.818   6.953
 8539WAT     H225860   6.332   5.668   7.013
 8540WAT      O25861   9.754   6.474   7.503
 8540WAT     H125862   9.775   6.378   7.522
 8540WAT     H225863   9.701   6.480   7.418
 8541WAT      O25864   7.621   4.545   5.798
 8541WAT     H125865   7.569   4.622   5.760
 8541WAT     H225866   7.714   4.547   5.761
 8542WAT      O25867   9.667   0.485   9.539
 8542WAT     H125868   9.706   0.533   9.617
 8542WAT     H225869   9.569   0.500   9.535
 8543WAT      O25870   6.787   5.349   0.387
 8543WAT     H125871   6.693   5.375   0.364
 8543WAT     H225872   6.843   5.348   0.304
 8544WAT      O25873   2.206   8.080   2.654
 8544WAT     H125874   2.231   8.176   2.644
 8544WAT     H225875   2.289   8.024   2.653
 8545WAT      O25876   2.248   4.370   6.196
 8545WAT     H125877   2.281   4.445   6.139
 8545WAT     H225878   2.300   4.369   6.282
 8546WAT      O25879   7.021   4.469   3.471
 8546WAT     H125880   6.963   4.407   3.524
 8546WAT     H225881   6.967   4.517   3.403
 8547WAT      O25882   1.271   3.945   0.780
 8547WAT     H125883   1.255   4.000   0.862
 8547WAT     H225884   1.188   3.944   0.724
 8548WAT      O25885   6.999   9.097   6.802
 8548WAT     H125886   7.058   9.083   6.723
 8548WAT     H225887   6.903   9.099   6.772
 8549WAT      O25888   2.561   2.057   8.257
 8549WAT     H125889   2.658   2.074   8.275
 8549WAT     H225890   2.542   1.959   8.262
 8550WAT      O25891   9.148   6.216   5.696
 8550WAT     H125892   9.213   6.159   5.646
 8550WAT     H225893   9.116   6.167   5.776
 8551WAT      O25894   4.580   9.388   9.855
 8551WAT     H125895   4.576   9.362   9.758
 8551WAT     H225896   4.545   9.313   9.911
 8552WAT      O25897   6.052   0.317   4.946
 8552WAT     H125898   6.034   0.396   4.887
 8552WAT     H225899   5.997   0.324   5.029
 8553WAT      O25900   4.145   2.781   4.007
 8553WAT     H125901   4.165   2.857   3.946
 8553WAT     H225902   4.193   2.794   4.093
 8554WAT      O25903   9.003   6.766   1.926
 8554WAT     H125904   9.037   6.704   1.855
 8554WAT     H225905   8.913   6.734   1.957
 8555WAT      O25906   8.489   5.204   5.657
 8555WAT     H125907   8.420   5.212   5.729
 8555WAT     H225908   8.560   5.140   5.687
 8556WAT      O25909   6.289   0.726   5.067
 8556WAT     H125910   6.346   0.645   5.080
 8556WAT     H225911   6.331   0.786   4.999
 8557WAT      O25912   6.535   2.748   5.715
 8557WAT     H125913   6.580   2.690   5.783
 8557WAT     H225914   6.489   2.691   5.648
 8558WAT      O25915   8.242   9.448   2.014
 8558WAT     H125916   8.170   9.380   2.003
 8558WAT     H225917   8.218   9.531   1.963
 8559WAT      O25918   1.080   2.517   6.027
 8559WAT     H125919   1.159   2.483   5.976
 8559WAT     H225920   1.076   2.471   6.116
 8560WAT      O25921   3.387   5.902   1.383
 8560WAT     H125922   3.449   5.971   1.347
 8560WAT     H225923   3.424   5.864   1.468
 8561WAT      O25924   8.216   8.904   3.642
 8561WAT     H125925   8.185   8.937   3.553
 8561WAT     H225926   8.266   8.818   3.631
 8562WAT      O25927   9.494   1.013   1.051
 8562WAT     H125928   9.592   1.022   1.030
 8562WAT     H225929   9.476   1.050   1.142
 8563WAT      O25930   8.878   0.037   8.844
 8563WAT     H125931   8.846   0.130   8.865
 8563WAT     H225932   8.844  -0.026   8.914
 8564WAT      O25933   0.425   2.873   8.069
 8564WAT     H125934   0.392   2.815   7.994
 8564WAT     H225935   0.351   2.886   8.135
 8565WAT      O25936   0.413   0.370   3.032
 8565WAT     H125937   0.450   0.293   3.084
 8565WAT     H225938   0.315   0.356   3.017
 8566WAT      O25939   3.085   4.874   4.526
 8566WAT     H125940   3.003   4.896   4.580
 8566WAT     H225941   3.152   4.947   4.538
 8567WAT      O25942   8.831   6.941   2.801
 8567WAT     H125943   8.805   6.845   2.813
 8567WAT     H225944   8.862   6.955   2.707
 8568WAT      O25945   3.728   0.361   1.725
 8568WAT     H125946   3.779   0.444   1.701
 8568WAT     H225947   3.766   0.283   1.676
 8569WAT      O25948   2.642   2.239   6.852
 8569WAT     H125949   2.721   2.229   6.791
 8569WAT     H225950   2.666   2.301   6.927
 8570WAT      O25951   7.423   0.648   7.793
 8570WAT     H125952   7.392   0.594   7.714
 8570WAT     H225953   7.444   0.587   7.869
 8571WAT      O25954   0.264   8.020   5.059
 8571WAT     H125955   0.170   8.054   5.053
 8571WAT     H225956   0.310   8.065   5.136
 8572WAT      O25957   4.041   6.332   4.192
 8572WAT     H125958   3.963   6.392   4.210
 8572WAT     H225959   4.124   6.374   4.226
 8573WAT      O25960   6.195   7.747   5.264
 8573WAT     H125961   6.208   7.838   5.225
 8573WAT     H225962   6.280   7.694   5.256
 8574WAT      O25963   0.125   1.688   9.803
 8574WAT     H125964   0.222   1.666   9.790
 8574WAT     H225965   0.069   1.617   9.760
 8575WAT      O25966   0.547   3.219   9.679
 8575WAT     H125967   0.607   3.143   9.702
 8575WAT     H225968   0.576   3.260   9.593
 8576WAT      O25969   4.751   8.968   1.193
 8576WAT     H125970   4.811   8.957   1.272
 8576WAT     H225971   4.705   9.057   1.198
 8577WAT      O25972   8.103   2.047   7.572
 8577WAT     H125973   8.120   2.142   7.597
 8577WAT     H225974   8.081   1.994   7.654
 8578WAT      O25975   1.256   3.376   5.200
 8578WAT     H125976   1.215   3.445   5.139
 8578WAT     H225977   1.195   3.297   5.205
 8579WAT      O25978   1.337   2.521   6.581
 8579WAT     H125979   1.396   2.569   6.647
 8579WAT     H225980   1.243   2.520   6.615
 8580WAT      O25981   6.033   5.231   1.839
 8580WAT     H125982   5.969   5.294   1.883
 8580WAT     H225983   6.042   5.149   1.895
 8581WAT      O25984   2.783   8.132   2.791
 8581WAT     H125985   2.710   8.182   2.838
 8581WAT     H225986   2.807   8.051   2.844
 8582WAT      O25987   4.834   5.550   0.441
 8582WAT     H125988   4.776   5.468   0.450
 8582WAT     H225989   4.883   5.565   0.527
 8583WAT      O25990   4.231   4.936   8.823
 8583WAT     H125991   4.245   5.031   8.852
 8583WAT     H225992   4.304   4.878   8.860
 8584WAT      O25993   7.601   2.381   3.101
 8584WAT     H125994   7.574   2.399   3.196
 8584WAT     H225995   7.699   2.363   3.097
 8585WAT      O25996   7.450   7.894   6.852
 8585WAT     H125997   7.495   7.874   6.765
 8585WAT     H225998   7.369   7.950   6.836
 8586WAT      O25999   6.667   2.118   6.514
 8586WAT     H126000   6.747   2.061   6.536
 8586WAT     H226001   6.638   2.167   6.596
 8587WAT      O26002   5.979   0.303   0.343
 8587WAT     H126003   5.970   0.360   0.425
 8587WAT     H226004   5.888   0.290   0.302
 8588WAT      O26005   3.090   0.762   6.170
 8588WAT     H126006   3.037   0.780   6.088
 8588WAT     H226007   3.188   0.762   6.148
 8589WAT      O26008   5.551   0.551   2.726
 8589WAT     H126009   5.651   0.555   2.736
 8589WAT     H226010   5.508   0.583   2.810
 8590WAT      O26011   6.958   3.311   2.471
 8590WAT     H126012   6.965   3.218   2.505
 8590WAT     H226013   6.865   3.329   2.440
 8591WAT      O26014   6.397   5.521   7.374
 8591WAT     H126015   6.402   5.619   7.352
 8591WAT     H226016   6.452   5.502   7.455
 8592WAT      O26017   3.285   5.460   6.653
 8592WAT     H126018   3.264   5.455   6.751
 8592WAT     H226019   3.313   5.370   6.620
 8593WAT      O26020   7.524   9.621   6.539
 8593WAT     H126021   7.597   9.608   6.606
 8593WAT     H226022   7.504   9.535   6.493
 8594WAT      O26023   0.601   6.620   0.109
 8594WAT     H126024   0.573   6.659   0.022
 8594WAT     H226025   0.587   6.687   0.182
 8595WAT      O26026   8.510   0.141   9.620
 8595WAT     H126027   8.427   0.144   9.676
 8595WAT     H226028   8.507   0.213   9.551
 8596WAT      O26029   1.851   2.472   7.519
 8596WAT     H126030   1.844   2.551   7.580
 8596WAT     H226031   1.887   2.501   7.430
 8597WAT      O26032   8.961   4.358   9.237
 8597WAT     H126033   9.022   4.400   9.305
 8597WAT     H226034   8.915   4.279   9.278
 8598WAT      O26035   7.639   2.077   5.867
 8598WAT     H126036   7.719   2.025   5.837
 8598WAT     H226037   7.641   2.169   5.826
 8599WAT      O26038   1.004   2.189   2.349
 8599WAT     H126039   1.041   2.246   2.276
 8599WAT     H226040   0.904   2.191   2.346
 8600WAT      O26041   6.438   5.232   3.357
 8600WAT     H126042   6.350   5.224   3.404
 8600WAT     H226043   6.504   5.275   3.419
 8601WAT      O26044   0.972   8.167   5.323
 8601WAT     H126045   0.982   8.241   5.391
 8601WAT     H226046   0.900   8.104   5.354
 8602WAT      O26047   3.392   2.395   9.000
 8602WAT     H126048   3.359   2.311   8.958
 8602WAT     H226049   3.354   2.403   9.092
 8603WAT      O26050   6.187   2.510   6.874
 8603WAT     H126051   6.241   2.492   6.956
 8603WAT     H226052   6.125   2.587   6.890
 8604WAT      O26053   8.983   9.670   0.517
 8604WAT     H126054   8.908   9.604   0.525
 8604WAT     H226055   8.989   9.724   0.601
 8605WAT      O26056   2.710   9.346   0.963
 8605WAT     H126057   2.776   9.329   0.890
 8605WAT     H226058   2.751   9.323   1.051
 8606WAT      O26059   5.451   3.967   0.900
 8606WAT     H126060   5.479   3.871   0.901
 8606WAT     H226061   5.364   3.976   0.851
 8607WAT      O26062   4.177   5.413   5.364
 8607WAT     H126063   4.241   5.363   5.422
 8607WAT     H226064   4.143   5.493   5.412
 8608WAT      O26065   6.610   0.039   9.856
 8608WAT     H126066   6.547   0.049   9.932
 8608WAT     H226067   6.673  -0.037   9.875
 8609WAT      O26068   0.038   2.689   4.532
 8609WAT     H126069   0.026   2.672   4.434
 8609WAT     H226070  -0.033   2.752   4.563
 8610WAT      O26071   3.428   7.963   6.950
 8610WAT     H126072   3.409   8.004   7.040
 8610WAT     H226073   3.503   7.898   6.959
 8611WAT      O26074   8.062   6.779   0.758
 8611WAT     H126075   8.056   6.868   0.714
 8611WAT     H226076   7.970   6.743   0.773
 8612WAT      O26077   2.331   7.802   5.013
 8612WAT     H126078   2.361   7.707   5.000
 8612WAT     H226079   2.396   7.863   4.967
 8613WAT      O26080   9.025   9.678   6.831
 8613WAT     H126081   9.119   9.681   6.867
 8613WAT     H226082   8.996   9.770   6.805
 8614WAT      O26083   7.502   0.917   3.298
 8614WAT     H126084   7.420   0.957   3.338
 8614WAT     H226085   7.559   0.878   3.371
 8615WAT      O26086   4.349   2.853   7.459
 8615WAT     H126087   4.388   2.767   7.493
 8615WAT     H226088   4.250   2.849   7.462
 8616WAT      O26089   3.166   1.559   4.965
 8616WAT     H126090   3.251   1.581   5.013
 8616WAT     H226091   3.090   1.610   5.006
 8617WAT      O26092   5.896   2.488   7.989
 8617WAT     H126093   5.836   2.412   8.012
 8617WAT     H226094   5.912   2.490   7.891
 8618WAT      O26095   2.481   4.788   9.654
 8618WAT     H126096   2.482   4.833   9.564
 8618WAT     H226097   2.468   4.857   9.725
 8619WAT      O26098   3.030   1.515   8.714
 8619WAT     H126099   3.096   1.577   8.673
 8619WAT     H226100   3.037   1.425   8.672
 8620WAT      O26101   5.167   8.853   4.092
 8620WAT     H126102   5.234   8.780   4.105
 8620WAT     H226103   5.145   8.894   4.180
 8621WAT      O26104   0.531   6.585   6.178
 8621WAT     H126105   0.597   6.639   6.126
 8621WAT     H226106   0.461   6.549   6.116
 8622WAT      O26107   6.732   0.346   4.522
 8622WAT     H126108   6.722   0.338   4.422
 8622WAT     H226109   6.648   0.386   4.560
 8623WAT      O26110   1.765   8.374   0.068
 8623WAT     H126111   1.825   8.446   0.034
 8623WAT     H226112   1.760   8.378   0.167
 8624WAT      O26113   8.252   0.417   6.337
 8624WAT     H126114   8.276   0.445   6.430
 8624WAT     H226115   8.154   0.400   6.332
 8625WAT      O26116   1.841   9.413   4.013
 8625WAT     H126117   1.765   9.472   3.987
 8625WAT     H226118   1.849   9.411   4.113
 8626WAT      O26119   7.847   2.648   2.004
 8626WAT     H126120   7.836   2.658   2.103
 8626WAT     H226121   7.785   2.578   1.969
 8627WAT      O26122   2.830   7.670   8.759
 8627WAT     H126123   2.869   7.648   8.670
 8627WAT     H226124   2.782   7.757   8.755
 8628WAT      O26125   4.418   6.187   4.016
 8628WAT     H126126   4.512   6.218   3.998
 8628WAT     H226127   4.403   6.182   4.115
 8629WAT      O26128   2.239   3.025   4.302
 8629WAT     H126129   2.240   3.084   4.383
 8629WAT     H226130   2.173   2.951   4.316
 8630WAT      O26131   1.262   2.530   8.157
 8630WAT     H126132   1.245   2.608   8.097
 8630WAT     H226133   1.305   2.562   8.241
 8631WAT      O26134   7.573   2.760   9.579
 8631WAT     H126135   7.672   2.762   9.589
 8631WAT     H226136   7.531   2.827   9.641
 8632WAT      O26137   0.172   3.516   3.936
 8632WAT     H126138   0.162   3.472   3.847
 8632WAT     H226139   0.252   3.478   3.983
 8633WAT      O26140   1.734   2.178   4.281
 8633WAT     H126141   1.760   2.274   4.275
 8633WAT     H226142   1.709   2.144   4.191
 8634WAT      O26143   8.253   8.246   6.264
 8634WAT     H126144   8.185   8.318   6.277
 8634WAT     H226145   8.246   8.180   6.339
 8635WAT      O26146   4.180   7.574   3.755
 8635WAT     H126147   4.248   7.623   3.808
 8635WAT     H226148   4.215   7.557   3.663
 8636WAT      O26149   0.121   1.929   5.916
 8636WAT     H126150   0.130   1.983   6.000
 8636WAT     H226151   0.207   1.881   5.898
 8637WAT      O26152   1.462   7.712   4.447
 8637WAT     H126153   1.414   7.648   4.507
 8637WAT     H226154   1.561   7.703   4.461
 8638WAT      O26155   4.294   1.270   8.701
 8638WAT     H126156   4.219   1.269   8.635
 8638WAT     H226157   4.366   1.330   8.670
 8639WAT      O26158   2.588   2.711   6.462
 8639WAT     H126159   2.595   2.769   6.381
 8639WAT     H226160   2.497   2.668   6.465
 8640WAT      O26161   8.153   0.308   4.360
 8640WAT     H126162   8.128   0.236   4.295
 8640WAT     H226163   8.251   0.326   4.355
 8641WAT      O26164   1.473   5.900   8.677
 8641WAT     H126165   1.417   5.881   8.596
 8641WAT     H226166   1.521   5.817   8.704
 8642WAT      O26167   9.869   2.606   0.229
 8642WAT     H126168   9.916   2.656   0.302
 8642WAT     H226169   9.934   2.545   0.183
 8643WAT      O26170   8.676   2.737   3.243
 8643WAT     H126171   8.737   2.771   3.315
 8643WAT     H226172   8.581   2.758   3.268
 8644WAT      O26173   4.773   0.878   6.843
 8644WAT     H126174   4.691   0.827   6.816
 8644WAT     H226175   4.835   0.818   6.893
 8645WAT      O26176   9.314   1.113   5.210
 8645WAT     H126177   9.345   1.161   5.292
 8645WAT     H226178   9.308   1.178   5.133
 8646WAT      O26179   8.574   3.411   6.120
 8646WAT     H126180   8.652   3.444   6.173
 8646WAT     H226181   8.602   3.331   6.067
 8647WAT      O26182   6.107   8.021   5.586
 8647WAT     H126183   6.190   8.001   5.533
 8647WAT     H226184   6.089   8.119   5.584
 8648WAT      O26185   6.780   6.632   8.503
 8648WAT     H126186   6.787   6.555   8.566
 8648WAT     H226187   6.854   6.697   8.521
 8649WAT      O26188   9.383   7.960   8.369
 8649WAT     H126189   9.369   7.912   8.283
 8649WAT     H226190   9.390   7.894   8.444
 8650WAT      O26191   2.295   3.460   9.214
 8650WAT     H126192   2.317   3.429   9.121
 8650WAT     H226193   2.243   3.389   9.261
 8651WAT      O26194   0.995   0.989   4.680
 8651WAT     H126195   0.983   0.913   4.616
 8651WAT     H226196   0.978   0.957   4.773
 8652WAT      O26197   0.972   0.018   2.930
 8652WAT     H126198   1.060   0.064   2.920
 8652WAT     H226199   0.899   0.086   2.937
 8653WAT      O26200   7.517   2.469   2.860
 8653WAT     H126201   7.551   2.417   2.938
 8653WAT     H226202   7.592   2.521   2.819
 8654WAT      O26203   9.046   0.790   3.736
 8654WAT     H126204   9.046   0.726   3.659
 8654WAT     H226205   9.138   0.792   3.777
 8655WAT      O26206   1.777   8.548   4.976
 8655WAT     H126207   1.858   8.514   4.927
 8655WAT     H226208   1.724   8.607   4.915
 8656WAT      O26209   5.534   3.838   9.258
 8656WAT     H126210   5.440   3.808   9.242
 8656WAT     H226211   5.550   3.845   9.357
 8657WAT      O26212   7.121   8.659   5.843
 8657WAT     H126213   7.047   8.684   5.907
 8657WAT     H226214   7.127   8.728   5.771
 8658WAT      O26215   0.158   4.836   1.328
 8658WAT     H126216   0.129   4.900   1.399
 8658WAT     H226217   0.248   4.864   1.293
 8659WAT      O26218   8.300   9.387   1.581
 8659WAT     H126219   8.201   9.372   1.582
 8659WAT     H226220   8.326   9.448   1.656
 8660WAT      O26221   0.330   5.967   5.090
 8660WAT     H126222   0.289   5.911   5.163
 8660WAT     H226223   0.261   6.031   5.055
 8661WAT      O26224   4.307   9.449   1.308
 8661WAT     H126225   4.266   9.441   1.399
 8661WAT     H226226   4.358   9.535   1.302
 8662WAT      O26227   0.872   0.261   1.803
 8662WAT     H126228   0.966   0.229   1.787
 8662WAT     H226229   0.857   0.272   1.901
 8663WAT      O26230   2.945   8.904   8.286
 8663WAT     H126231   3.004   8.884   8.364
 8663WAT     H226232   3.000   8.907   8.203
 8664WAT      O26233   8.285   0.941   1.583
 8664WAT     H126234   8.247   0.880   1.514
 8664WAT     H226235   8.368   0.900   1.622
 8665WAT      O26236   8.298   6.664   4.309
 8665WAT     H126237   8.330   6.619   4.393
 8665WAT     H226238   8.220   6.723   4.331
 8666WAT      O26239   7.921   0.921   7.661
 8666WAT     H126240   7.952   1.005   7.705
 8666WAT     H226241   7.888   0.942   7.568
 8667WAT      O26242   8.168   7.196   4.187
 8667WAT     H126243   8.262   7.182   4.156
 8667WAT     H226244   8.155   7.292   4.211
 8668WAT      O26245   1.879   6.156   4.602
 8668WAT     H126246   1.811   6.101   4.650
 8668WAT     H226247   1.883   6.248   4.643
 8669WAT      O26248   0.144   0.348   2.991
 8669WAT     H126249   0.079   0.293   2.938
 8669WAT     H226250   0.096   0.427   3.030
 8670WAT      O26251   9.015   4.943   7.287
 8670WAT     H126252   9.048   5.038   7.283
 8670WAT     H226253   8.915   4.943   7.281
 8671WAT      O26254   7.115   3.108   0.626
 8671WAT     H126255   7.126   3.114   0.725
 8671WAT     H226256   7.205   3.109   0.582
 8672WAT      O26257   3.021   0.810   3.779
 8672WAT     H126258   3.072   0.883   3.733
 8672WAT     H226259   3.037   0.724   3.731
 8673WAT      O26260   7.140   9.464   5.016
 8673WAT     H126261   7.134   9.497   4.922
 8673WAT     H226262   7.196   9.381   5.019
 8674WAT      O26263   4.681   0.486   2.359
 8674WAT     H126264   4.672   0.482   2.459
 8674WAT     H226265   4.743   0.560   2.334
 8675WAT      O26266   4.489   8.114   6.895
 8675WAT     H126267   4.567   8.072   6.850
 8675WAT     H226268   4.404   8.076   6.858
 8676WAT      O26269   7.217   0.275   4.867
 8676WAT     H126270   7.249   0.214   4.940
 8676WAT     H226271   7.244   0.238   4.778
 8677WAT      O26272   7.385   2.060   5.741
 8677WAT     H126273   7.472   2.069   5.790
 8677WAT     H226274   7.401   2.010   5.656
 8678WAT      O26275   5.499   3.319   9.018
 8678WAT     H126276   5.596   3.297   9.017
 8678WAT     H226277   5.470   3.337   9.112
 8679WAT      O26278   2.367   5.338   4.086
 8679WAT     H126279   2.459   5.367   4.059
 8679WAT     H226280   2.322   5.294   4.008
 8680WAT      O26281   8.938   1.654   7.516
 8680WAT     H126282   8.863   1.599   7.553
 8680WAT     H226283   9.022   1.633   7.566
 8681WAT      O26284   5.978   3.528   4.451
 8681WAT     H126285   5.950   3.489   4.539
 8681WAT     H226286   5.897   3.553   4.398
 8682WAT      O26287   9.675   2.097   8.401
 8682WAT     H126288   9.603   2.037   8.366
 8682WAT     H226289   9.707   2.062   8.489
 8683WAT      O26290   3.614   0.142   0.338
 8683WAT     H126291   3.600   0.047   0.368
 8683WAT     H226292   3.712   0.159   0.330
 8684WAT      O26293   6.558   4.026   8.932
 8684WAT     H126294   6.514   3.998   9.018
 8684WAT     H226295   6.491   4.025   8.858
 8685WAT      O26296   7.653   5.526   0.921
 8685WAT     H126297   7.635   5.489   1.012
 8685WAT     H226298   7.751   5.540   0.910
 8686WAT      O26299   7.764   2.087   3.393
 8686WAT     H126300   7.705   2.021   3.440
 8686WAT     H226301   7.846   2.103   3.447
 8687WAT      O26302   9.268   1.310   5.948
 8687WAT     H126303   9.247   1.282   5.854
 8687WAT     H226304   9.263   1.231   6.009
 8688WAT      O26305   2.164   9.013   4.490
 8688WAT     H126306   2.141   9.110   4.493
 8688WAT     H226307   2.081   8.960   4.472
 8689WAT      O26308   4.482   3.010   0.215
 8689WAT     H126309   4.533   3.085   0.173
 8689WAT     H226310   4.417   3.048   0.281
 8690WAT      O26311   2.899   3.452   3.129
 8690WAT     H126312   2.841   3.462   3.210
 8690WAT     H226313   2.922   3.355   3.117
 8691WAT      O26314   2.143   4.398   2.655
 8691WAT     H126315   2.079   4.475   2.643
 8691WAT     H226316   2.208   4.420   2.727
 8692WAT      O26317   9.755   9.622   6.516
 8692WAT     H126318   9.772   9.573   6.601
 8692WAT     H226319   9.796   9.714   6.522
 8693WAT      O26320   5.474   0.840   4.814
 8693WAT     H126321   5.552   0.899   4.839
 8693WAT     H226322   5.436   0.799   4.897
 8694WAT      O26323   1.841   9.309   4.638
 8694WAT     H126324   1.786   9.289   4.556
 8694WAT     H226325   1.804   9.257   4.715
 8695WAT      O26326   6.289   6.283   3.767
 8695WAT     H126327   6.212   6.250   3.712
 8695WAT     H226328   6.263   6.284   3.864
 8696WAT      O26329   8.265   9.808   6.370
 8696WAT     H126330   8.337   9.869   6.338
 8696WAT     H226331   8.177   9.855   6.364
 8697WAT      O26332   0.609   8.026   8.654
 8697WAT     H126333   0.562   8.113   8.640
 8697WAT     H226334   0.641   7.991   8.566
 8698WAT      O26335   0.219   3.924   2.200
 8698WAT     H126336   0.172   3.850   2.248
 8698WAT     H226337   0.318   3.915   2.215
 8699WAT      O26338   7.675   6.428   0.022
 8699WAT     H126339   7.587   6.381   0.033
 8699WAT     H226340   7.667   6.521   0.058
 8700WAT      O26341   7.169   7.243   7.308
 8700WAT     H126342   7.201   7.200   7.392
 8700WAT     H226343   7.108   7.181   7.259
 8701WAT      O26344   7.577   3.370   6.388
 8701WAT     H126345   7.535   3.297   6.443
 8701WAT     H226346   7.673   3.378   6.413
 8702WAT      O26347   0.744   9.158   6.053
 8702WAT     H126348   0.687   9.084   6.090
 8702WAT     H226349   0.820   9.175   6.116
 8703WAT      O26350   7.191   2.901   5.090
 8703WAT     H126351   7.201   2.986   5.142
 8703WAT     H226352   7.158   2.922   4.998
 8704WAT      O26353   5.320   6.547   1.576
 8704WAT     H126354   5.265   6.474   1.618
 8704WAT     H226355   5.259   6.619   1.542
 8705WAT      O26356   3.424   7.173   9.284
 8705WAT     H126357   3.452   7.086   9.324
 8705WAT     H226358   3.326   7.187   9.300
 8706WAT      O26359   3.430   2.364   3.647
 8706WAT     H126360   3.380   2.451   3.650
 8706WAT     H226361   3.370   2.289   3.673
 8707WAT      O26362   6.508   2.519   7.267
 8707WAT     H126363   6.569   2.458   7.319
 8707WAT     H226364   6.524   2.613   7.295
 8708WAT      O26365   2.463   4.348   4.187
 8708WAT     H126366   2.516   4.313   4.109
 8708WAT     H226367   2.388   4.405   4.153
 8709WAT      O26368   7.316   1.195   5.117
 8709WAT     H126369   7.310   1.174   5.019
 8709WAT     H226370   7.226   1.186   5.159
 8710WAT      O26371   2.292   6.351   1.033
 8710WAT     H126372   2.234   6.318   1.108
 8710WAT     H226373   2.336   6.274   0.988
 8711WAT      O26374   4.463   2.736   6.372
 8711WAT     H126375   4.498   2.808   6.432
 8711WAT     H226376   4.494   2.753   6.279
 8712WAT      O26377   8.538   7.638   9.400
 8712WAT     H126378   8.529   7.669   9.306
 8712WAT     H226379   8.611   7.689   9.445
 8713WAT      O26380   5.052   7.516   7.271
 8713WAT     H126381   5.088   7.590   7.214
 8713WAT     H226382   5.084   7.428   7.235
 8714WAT      O26383   3.826   9.087   4.562
 8714WAT     H126384   3.854   9.158   4.497
 8714WAT     H226385   3.738   9.049   4.535
 8715WAT      O26386   1.264   2.255   8.469
 8715WAT     H126387   1.234   2.343   8.504
 8715WAT     H226388   1.187   2.208   8.426
 8716WAT      O26389   9.858   9.422   5.952
 8716WAT     H126390   9.950   9.385   5.959
 8716WAT     H226391   9.856   9.514   5.993
 8717WAT      O26392   4.182   5.469   5.692
 8717WAT     H126393   4.099   5.469   5.637
 8717WAT     H226394   4.158   5.482   5.788
 8718WAT      O26395   9.789   2.089   4.246
 8718WAT     H126396   9.858   2.062   4.178
 8718WAT     H226397   9.790   2.024   4.322
 8719WAT      O26398   1.723   0.895   2.094
 8719WAT     H126399   1.697   0.942   2.010
 8719WAT     H226400   1.677   0.938   2.172
 8720WAT      O26401   3.061   2.017   4.922
 8720WAT     H126402   3.111   1.958   4.859
 8720WAT     H226403   3.123   2.087   4.959
 8721WAT      O26404   0.591   6.779   4.154
 8721WAT     H126405   0.670   6.738   4.199
 8721WAT     H226406   0.509   6.725   4.174
 8722WAT      O26407   2.222   7.900   9.477
 8722WAT     H126408   2.290   7.840   9.436
 8722WAT     H226409   2.130   7.864   9.458
 8723WAT      O26410   8.945   8.022   2.284
 8723WAT     H126411   8.947   7.955   2.210
 8723WAT     H226412   8.978   7.979   2.369
 8724WAT      O26413   1.719   9.446   1.917
 8724WAT     H126414   1.685   9.444   2.011
 8724WAT     H226415   1.641   9.452   1.854
 8725WAT      O26416   0.716   9.566   6.807
 8725WAT     H126417   0.670   9.479   6.824
 8725WAT     H226418   0.798   9.550   6.752
 8726WAT      O26419   7.119   0.519   4.947
 8726WAT     H126420   7.175   0.443   4.916
 8726WAT     H226421   7.080   0.497   5.037
 8727WAT      O26422   1.105   7.917   6.107
 8727WAT     H126423   1.129   8.012   6.091
 8727WAT     H226424   1.184   7.859   6.088
 8728WAT      O26425   5.795   2.007   9.128
 8728WAT     H126426   5.832   2.096   9.102
 8728WAT     H226427   5.696   2.008   9.120
 8729WAT      O26428   1.034   9.325   4.822
 8729WAT     H126429   1.115   9.344   4.767
 8729WAT     H226430   1.059   9.327   4.919
 8730WAT      O26431   3.735   3.081   6.494
 8730WAT     H126432   3.666   3.146   6.526
 8730WAT     H226433   3.822   3.128   6.482
 8731WAT      O26434   0.255   1.544   6.134
 8731WAT     H126435   0.252   1.444   6.137
 8731WAT     H226436   0.351   1.574   6.132
 8732WAT      O26437   1.713   5.158   5.505
 8732WAT     H126438   1.716   5.164   5.406
 8732WAT     H226439   1.806   5.161   5.542
 8733WAT      O26440   6.382   2.255   5.243
 8733WAT     H126441   6.307   2.310   5.280
 8733WAT     H226442   6.452   2.242   5.313
 8734WAT      O26443   9.504   5.873   9.229
 8734WAT     H126444   9.580   5.936   9.217
 8734WAT     H226445   9.484   5.827   9.142
 8735WAT      O26446   2.464   5.815   7.897
 8735WAT     H126447   2.549   5.766   7.881
 8735WAT     H226448   2.473   5.874   7.977
 8736WAT      O26449   2.565   6.224   7.630
 8736WAT     H126450   2.535   6.259   7.541
 8736WAT     H226451   2.499   6.157   7.663
 8737WAT      O26452   0.080   6.222   7.727
 8737WAT     H126453   0.049   6.304   7.774
 8737WAT     H226454   0.036   6.217   7.637
 8738WAT      O26455   8.748   5.186   4.146
 8738WAT     H126456   8.693   5.196   4.229
 8738WAT     H226457   8.806   5.267   4.135
 8739WAT      O26458   9.279   5.385   4.370
 8739WAT     H126459   9.341   5.430   4.433
 8739WAT     H226460   9.325   5.373   4.282
 8740WAT      O26461   3.712   3.205   4.702
 8740WAT     H126462   3.751   3.284   4.749
 8740WAT     H226463   3.614   3.201   4.720
 8741WAT      O26464   6.444   6.591   2.669
 8741WAT     H126465   6.427   6.682   2.631
 8741WAT     H226466   6.532   6.557   2.636
 8742WAT      O26467   0.584   3.354   4.760
 8742WAT     H126468   0.614   3.278   4.703
 8742WAT     H226469   0.663   3.411   4.784
 8743WAT      O26470   6.358   1.325   7.298
 8743WAT     H126471   6.370   1.226   7.290
 8743WAT     H226472   6.262   1.348   7.280
 8744WAT      O26473   8.968   8.702   2.682
 8744WAT     H126474   8.926   8.619   2.720
 8744WAT     H226475   8.902   8.746   2.621
 8745WAT      O26476   7.383   9.245   3.341
 8745WAT     H126477   7.399   9.301   3.422
 8745WAT     H226478   7.396   9.149   3.364
 8746WAT      O26479   3.963   4.704   3.570
 8746WAT     H126480   4.018   4.702   3.653
 8746WAT     H226481   4.004   4.767   3.504
 8747WAT      O26482   1.343   2.235   9.550
 8747WAT     H126483   1.301   2.204   9.635
 8747WAT     H226484   1.273   2.244   9.480
 8748WAT      O26485   4.298   9.146   6.444
 8748WAT     H126486   4.357   9.065   6.439
 8748WAT     H226487   4.351   9.223   6.479
 8749WAT      O26488   3.797   2.316   4.675
 8749WAT     H126489   3.729   2.365   4.729
 8749WAT     H226490   3.768   2.222   4.661
 8750WAT      O26491   9.794   2.902   5.015
 8750WAT     H126492   9.699   2.929   5.000
 8750WAT     H226493   9.853   2.948   4.949
 8751WAT      O26494   7.043   1.748   1.028
 8751WAT     H126495   6.978   1.799   0.971
 8751WAT     H226496   7.088   1.811   1.091
 8752WAT      O26497   6.668   6.512   4.560
 8752WAT     H126498   6.594   6.489   4.622
 8752WAT     H226499   6.649   6.475   4.469
 8753WAT      O26500   1.358   0.747   4.846
 8753WAT     H126501   1.408   0.769   4.762
 8753WAT     H226502   1.349   0.830   4.902
 8754WAT      O26503   0.948   4.653   6.624
 8754WAT     H126504   0.875   4.586   6.612
 8754WAT     H226505   1.034   4.606   6.643
 8755WAT      O26506   7.060   6.322   8.601
 8755WAT     H126507   7.045   6.259   8.524
 8755WAT     H226508   7.108   6.273   8.674
 8756WAT      O26509   5.003   4.732   5.598
 8756WAT     H126510   5.052   4.770   5.519
 8756WAT     H226511   5.067   4.722   5.674
 8757WAT      O26512   8.012   3.616   7.783
 8757WAT     H126513   8.091   3.661   7.825
 8757WAT     H226514   8.007   3.522   7.815
 8758WAT      O26515   1.336   9.817   3.994
 8758WAT     H126516   1.379   9.824   4.084
 8758WAT     H226517   1.260   9.883   3.989
 8759WAT      O26518   4.494   3.736   0.930
 8759WAT     H126519   4.442   3.793   0.867
 8759WAT     H226520   4.475   3.639   0.911
 8760WAT      O26521   5.473   2.924   2.305
 8760WAT     H126522   5.449   2.850   2.241
 8760WAT     H226523   5.472   2.888   2.398
 8761WAT      O26524   9.728   4.484   7.572
 8761WAT     H126525   9.745   4.399   7.622
 8761WAT     H226526   9.639   4.521   7.599
 8762WAT      O26527   2.844   2.218   3.677
 8762WAT     H126528   2.848   2.242   3.580
 8762WAT     H226529   2.923   2.161   3.700
 8763WAT      O26530   1.418   4.278   0.312
 8763WAT     H126531   1.461   4.261   0.223
 8763WAT     H226532   1.467   4.229   0.383
 8764WAT      O26533   8.685   1.274   7.050
 8764WAT     H126534   8.728   1.194   7.006
 8764WAT     H226535   8.734   1.357   7.022
 8765WAT      O26536   4.627   7.825   9.128
 8765WAT     H126537   4.540   7.790   9.163
 8765WAT     H226538   4.695   7.824   9.201
 8766WAT      O26539   4.272   9.831   5.378
 8766WAT     H126540   4.224   9.879   5.451
 8766WAT     H226541   4.328   9.896   5.326
 8767WAT      O26542   2.321   5.701   0.660
 8767WAT     H126543   2.300   5.798   0.660
 8767WAT     H226544   2.240   5.649   0.634
 8768WAT      O26545   2.455   6.595   0.387
 8768WAT     H126546   2.487   6.501   0.377
 8768WAT     H226547   2.532   6.658   0.382
 8769WAT      O26548   4.614   6.190   9.069
 8769WAT     H126549   4.625   6.284   9.104
 8769WAT     H226550   4.555   6.191   8.988
 8770WAT      O26551   6.358   5.908   2.024
 8770WAT     H126552   6.356   6.008   2.031
 8770WAT     H226553   6.406   5.870   2.102
 8771WAT      O26554   2.234   0.587   4.158
 8771WAT     H126555   2.306   0.579   4.228
 8771WAT     H226556   2.151   0.542   4.191
 8772WAT      O26557   2.575   0.372   5.115
 8772WAT     H126558   2.660   0.322   5.134
 8772WAT     H226559   2.594   0.470   5.109
 8773WAT      O26560   9.647   1.989   5.010
 8773WAT     H126561   9.745   2.007   5.002
 8773WAT     H226562   9.629   1.938   5.093
 8774WAT      O26563   0.062   0.512   9.105
 8774WAT     H126564   0.011   0.458   9.038
 8774WAT     H226565  -0.001   0.545   9.176
 8775WAT      O26566   1.228   5.818   1.202
 8775WAT     H126567   1.322   5.813   1.168
 8775WAT     H226568   1.228   5.808   1.301
 8776WAT      O26569   3.600   0.535   0.514
 8776WAT     H126570   3.676   0.541   0.449
 8776WAT     H226571   3.527   0.479   0.476
 8777WAT      O26572   2.834   9.461   3.571
 8777WAT     H126573   2.806   9.391   3.636
 8777WAT     H226574   2.882   9.534   3.619
 8778WAT      O26575   0.887   2.798   1.467
 8778WAT     H126576   0.799   2.845   1.454
 8778WAT     H226577   0.885   2.747   1.553
 8779WAT      O26578   0.395   5.687   6.437
 8779WAT     H126579   0.494   5.702   6.431
 8779WAT     H226580   0.367   5.626   6.363
 8780WAT      O26581   7.133   9.255   8.369
 8780WAT     H126582   7.124   9.234   8.271
 8780WAT     H226583   7.199   9.330   8.380
 8781WAT      O26584   2.886   4.279   0.449
 8781WAT     H126585   2.975   4.242   0.424
 8781WAT     H226586   2.816   4.208   0.439
 8782WAT      O26587   4.296   1.968   6.935
 8782WAT     H126588   4.365   2.039   6.944
 8782WAT     H226589   4.258   1.970   6.842
 8783WAT      O26590   0.314   4.944   6.187
 8783WAT     H126591   0.265   5.029   6.206
 8783WAT     H226592   0.382   4.929   6.259
 8784WAT      O26593   7.806   3.668   8.898
 8784WAT     H126594   7.822   3.587   8.843
 8784WAT     H226595   7.875   3.737   8.878
 8785WAT      O26596   2.115   7.209   4.067
 8785WAT     H126597   2.049   7.134   4.058
 8785WAT     H226598   2.203   7.181   4.027
 8786WAT      O26599   2.480   3.055   1.588
 8786WAT     H126600   2.446   3.084   1.499
 8786WAT     H226601   2.560   2.995   1.576
 8787WAT      O26602   8.497   5.395   7.326
 8787WAT     H126603   8.430   5.405   7.399
 8787WAT     H226604   8.473   5.316   7.269
 8788WAT      O26605   3.370   6.784   4.769
 8788WAT     H126606   3.464   6.756   4.792
 8788WAT     H226607   3.371   6.838   4.685
 8789WAT      O26608   7.247   2.621   7.186
 8789WAT     H126609   7.194   2.703   7.166
 8789WAT     H226610   7.344   2.643   7.185
 8790WAT      O26611   6.140   1.868   3.413
 8790WAT     H126612   6.155   1.825   3.325
 8790WAT     H226613   6.187   1.815   3.484
 8791WAT      O26614   3.294   8.328   1.644
 8791WAT     H126615   3.321   8.326   1.548
 8791WAT     H226616   3.202   8.365   1.653
 8792WAT      O26617   9.349   1.799   1.750
 8792WAT     H126618   9.307   1.768   1.836
 8792WAT     H226619   9.313   1.889   1.726
 8793WAT      O26620   9.423   7.704   0.132
 8793WAT     H126621   9.430   7.605   0.143
 8793WAT     H226622   9.476   7.733   0.052
 8794WAT      O26623   4.067   2.406   6.788
 8794WAT     H126624   4.018   2.320   6.801
 8794WAT     H226625   4.090   2.418   6.691
 8795WAT      O26626   3.033   8.719   3.529
 8795WAT     H126627   3.123   8.749   3.561
 8795WAT     H226628   3.044   8.645   3.463
 8796WAT      O26629   8.049   1.457   4.018
 8796WAT     H126630   7.975   1.407   3.972
 8796WAT     H226631   8.015   1.545   4.050
 8797WAT      O26632   9.393   2.650   1.738
 8797WAT     H126633   9.443   2.732   1.711
 8797WAT     H226634   9.295   2.670   1.740
 8798WAT      O26635   3.786   5.721   0.241
 8798WAT     H126636   3.841   5.653   0.193
 8798WAT     H226637   3.829   5.811   0.230
 8799WAT      O26638   9.392   0.497   5.370
 8799WAT     H126639   9.399   0.410   5.322
 8799WAT     H226640   9.483   0.535   5.387
 8800WAT      O26641   1.203   5.052   9.382
 8800WAT     H126642   1.266   5.096   9.446
 8800WAT     H226643   1.229   5.076   9.288
 8801WAT      O26644   3.215   4.140   7.208
 8801WAT     H126645   3.248   4.086   7.285
 8801WAT     H226646   3.135   4.194   7.237
 8802WAT      O26647   3.929   9.649   7.106
 8802WAT     H126648   3.989   9.719   7.145
 8802WAT     H226649   3.984   9.580   7.060
 8803WAT      O26650   4.167   1.848   4.301
 8803WAT     H126651   4.224   1.877   4.377
 8803WAT     H226652   4.220   1.791   4.239
 8804WAT      O26653   7.553   9.357   4.997
 8804WAT     H126654   7.623   9.386   4.932
 8804WAT     H226655   7.581   9.382   5.090
 8805WAT      O26656   1.634   2.095   7.878
 8805WAT     H126657   1.734   2.096   7.873
 8805WAT     H226658   1.605   2.091   7.973
 8806WAT      O26659   4.273   0.937   8.767
 8806WAT     H126660   4.355   0.897   8.808
 8806WAT     H226661   4.244   1.016   8.822
 8807WAT      O26662   6.251   0.324   2.832
 8807WAT     H126663   6.319   0.293   2.898
 8807WAT     H226664   6.160   0.290   2.859
 8808WAT      O26665   0.023   4.894   4.838
 8808WAT     H126666   0.034   4.795   4.826
 8808WAT     H226667   0.061   4.942   4.759
 8809WAT      O26668   2.984   8.234   8.658
 8809WAT     H126669   3.020   8.144   8.681
 8809WAT     H226670   2.941   8.231   8.568
 8810WAT      O26671   9.221   8.873   8.354
 8810WAT     H126672   9.320   8.873   8.370
 8810WAT     H226673   9.176   8.925   8.426
 8811WAT      O26674   5.383   2.046   1.790
 8811WAT     H126675   5.310   2.040   1.721
 8811WAT     H226676   5.366   1.978   1.862
 8812WAT      O26677   6.320   0.431   6.087
 8812WAT     H126678   6.259   0.506   6.110
 8812WAT     H226679   6.381   0.413   6.164
 8813WAT      O26680   9.837   7.597   8.169
 8813WAT     H126681   9.810   7.501   8.172
 8813WAT     H226682   9.761   7.655   8.198
 8814WAT      O26683   9.807   8.456   0.654
 8814WAT     H126684   9.890   8.467   0.708
 8814WAT     H226685   9.756   8.377   0.688
 8815WAT      O26686   6.360   4.677   5.394
 8815WAT     H126687   6.273   4.724   5.381
 8815WAT     H226688   6.435   4.742   5.380
 8816WAT      O26689   3.674   8.550   9.033
 8816WAT     H126690   3.668   8.495   9.116
 8816WAT     H226691   3.663   8.647   9.056
 8817WAT      O26692   3.960   6.985   9.058
 8817WAT     H126693   4.057   7.008   9.047
 8817WAT     H226694   3.951   6.899   9.109
 8818WAT      O26695   9.325   3.541   6.803
 8818WAT     H126696   9.246   3.490   6.770
 8818WAT     H226697   9.330   3.629   6.754
 8819WAT      O26698   7.471   1.079   4.098
 8819WAT     H126699   7.532   1.123   4.164
 8819WAT     H226700   7.523   1.013   4.043
 8820WAT      O26701   6.799   2.436   9.274
 8820WAT     H126702   6.834   2.519   9.316
 8820WAT     H226703   6.776   2.369   9.345
 8821WAT      O26704   3.069   2.338   9.855
 8821WAT     H126705   3.112   2.381   9.776
 8821WAT     H226706   2.984   2.294   9.828
 8822WAT      O26707   3.845   6.607   5.099
 8822WAT     H126708   3.751   6.638   5.109
 8822WAT     H226709   3.890   6.660   5.027
 8823WAT      O26710   4.120   4.617   6.914
 8823WAT     H126711   4.069   4.703   6.916
 8823WAT     H226712   4.218   4.637   6.908
 8824WAT      O26713   2.374   4.723   5.480
 8824WAT     H126714   2.369   4.708   5.579
 8824WAT     H226715   2.466   4.753   5.455
 8825WAT      O26716   5.294   1.393   9.687
 8825WAT     H126717   5.388   1.358   9.684
 8825WAT     H226718   5.296   1.493   9.677
 8826WAT      O26719   6.651   5.994   3.587
 8826WAT     H126720   6.687   5.901   3.575
 8826WAT     H226721   6.551   5.991   3.587
 8827WAT      O26722   1.128   2.908   3.017
 8827WAT     H126723   1.138   2.878   3.111
 8827WAT     H226724   1.152   3.005   3.010
 8828WAT      O26725   4.328   6.414   1.864
 8828WAT     H126726   4.334   6.325   1.909
 8828WAT     H226727   4.327   6.486   1.933
 8829WAT      O26728   3.567   6.963   5.852
 8829WAT     H126729   3.517   6.948   5.938
 8829WAT     H226730   3.645   7.023   5.869
 8830WAT      O26731   3.047   4.806   7.949
 8830WAT     H126732   3.045   4.806   7.849
 8830WAT     H226733   3.016   4.894   7.983
 8831WAT      O26734   4.257   5.453   8.289
 8831WAT     H126735   4.235   5.419   8.197
 8831WAT     H226736   4.331   5.398   8.328
 8832WAT      O26737   3.407   4.311   6.424
 8832WAT     H126738   3.326   4.350   6.468
 8832WAT     H226739   3.382   4.270   6.337
 8833WAT      O26740   7.431   8.149   2.978
 8833WAT     H126741   7.495   8.114   3.046
 8833WAT     H226742   7.437   8.095   2.895
 8834WAT      O26743   9.241   8.100   0.700
 8834WAT     H126744   9.183   8.095   0.782
 8834WAT     H226745   9.283   8.190   0.696
 8835WAT      O26746   7.770   2.342   6.103
 8835WAT     H126747   7.717   2.336   6.018
 8835WAT     H226748   7.867   2.353   6.081
 8836WAT      O26749   2.691   0.240   7.587
 8836WAT     H126750   2.706   0.161   7.646
 8836WAT     H226751   2.730   0.222   7.497
 8837WAT      O26752   9.414   2.587   6.736
 8837WAT     H126753   9.509   2.589   6.768
 8837WAT     H226754   9.413   2.587   6.636
 8838WAT      O26755   6.486   5.282   6.276
 8838WAT     H126756   6.518   5.368   6.236
 8838WAT     H226757   6.505   5.281   6.375
 8839WAT      O26758   7.268   6.086   8.673
 8839WAT     H126759   7.242   6.024   8.599
 8839WAT     H226760   7.340   6.044   8.728
 8840WAT      O26761   3.906   8.253   7.628
 8840WAT     H126762   4.001   8.225   7.643
 8840WAT     H226763   3.851   8.228   7.708
 8841WAT      O26764   5.067   6.490   5.232
 8841WAT     H126765   4.970   6.499   5.255
 8841WAT     H226766   5.076   6.441   5.146
 8842WAT      O26767   9.240   9.595   0.956
 8842WAT     H126768   9.252   9.653   1.036
 8842WAT     H226769   9.303   9.624   0.884
 8843WAT      O26770   4.324   7.538   7.950
 8843WAT     H126771   4.362   7.612   7.895
 8843WAT     H226772   4.317   7.568   8.046
 8844WAT      O26773   7.005   0.817   6.671
 8844WAT     H126774   6.913   0.814   6.710
 8844WAT     H226775   7.046   0.907   6.688
 8845WAT      O26776   6.002   7.391   0.075
 8845WAT     H126777   5.956   7.473   0.042
 8845WAT     H226778   6.100   7.409   0.086
 8846WAT      O26779   9.409   6.565   7.458
 8846WAT     H126780   9.309   6.564   7.464
 8846WAT     H226781   9.445   6.639   7.514
 8847WAT      O26782   8.299   3.199   3.452
 8847WAT     H126783   8.386   3.163   3.418
 8847WAT     H226784   8.224   3.157   3.402
 8848WAT      O26785   1.562   5.006   0.698
 8848WAT     H126786   1.481   5.050   0.659
 8848WAT     H226787   1.534   4.946   0.773
 8849WAT      O26788   6.013   7.050   7.123
 8849WAT     H126789   5.936   7.046   7.059
 8849WAT     H226790   6.089   6.995   7.087
 8850WAT      O26791   2.772   6.438   0.966
 8850WAT     H126792   2.688   6.447   1.020
 8850WAT     H226793   2.812   6.529   0.951
 8851WAT      O26794   1.741   5.064   3.096
 8851WAT     H126795   1.694   5.146   3.064
 8851WAT     H226796   1.818   5.043   3.035
 8852WAT      O26797   6.163   6.507   0.168
 8852WAT     H126798   6.133   6.433   0.228
 8852WAT     H226799   6.260   6.524   0.181
 8853WAT      O26800   5.935   8.961   5.483
 8853WAT     H126801   5.924   9.049   5.437
 8853WAT     H226802   5.845   8.927   5.510
 8854WAT      O26803   8.034   2.296   0.072
 8854WAT     H126804   7.999   2.370   0.014
 8854WAT     H226805   8.041   2.327   0.166
 8855WAT      O26806   8.179   8.977   9.019
 8855WAT     H126807   8.080   8.972   9.003
 8855WAT     H226808   8.217   9.051   8.964
 8856WAT      O26809   7.635   2.274   6.495
 8856WAT     H126810   7.682   2.187   6.484
 8856WAT     H226811   7.642   2.304   6.590
 8857WAT      O26812   8.904   4.081   9.499
 8857WAT     H126813   8.990   4.109   9.542
 8857WAT     H226814   8.850   4.026   9.563
 8858WAT      O26815   4.952   0.998   2.788
 8858WAT     H126816   4.872   1.058   2.786
 8858WAT     H226817   4.924   0.904   2.770
 8859WAT      O26818   4.178   8.878   8.534
 8859WAT     H126819   4.125   8.793   8.537
 8859WAT     H226820   4.153   8.936   8.612
 8860WAT      O26821   0.485   7.832   9.380
 8860WAT     H126822   0.516   7.766   9.312
 8860WAT     H226823   0.431   7.784   9.450
 8861WAT      O26824   3.907   8.074   5.773
 8861WAT     H126825   3.978   8.107   5.835
 8861WAT     H226826   3.949   8.027   5.695
 8862WAT      O26827   7.384   9.073   4.246
 8862WAT     H126828   7.470   9.104   4.288
 8862WAT     H226829   7.398   9.061   4.148
 8863WAT      O26830   0.250   9.780   2.181
 8863WAT     H126831   0.163   9.731   2.191
 8863WAT     H226832   0.317   9.719   2.139
 8864WAT      O26833   1.126   2.350   7.285
 8864WAT     H126834   1.169   2.327   7.197
 8864WAT     H226835   1.191   2.402   7.341
 8865WAT      O26836   8.401   6.464   3.582
 8865WAT     H126837   8.471   6.395   3.567
 8865WAT     H226838   8.429   6.551   3.541
 8866WAT      O26839   1.822   8.017   1.477
 8866WAT     H126840   1.736   7.966   1.478
 8866WAT     H226841   1.819   8.088   1.548
 8867WAT      O26842   9.333   3.893   1.921
 8867WAT     H126843   9.256   3.886   1.985
 8867WAT     H226844   9.377   3.983   1.932
 8868WAT      O26845   1.534   3.160   7.354
 8868WAT     H126846   1.463   3.099   7.320
 8868WAT     H226847   1.609   3.164   7.288
 8869WAT      O26848   9.286   4.555   8.203
 8869WAT     H126849   9.277   4.645   8.160
 8869WAT     H226850   9.379   4.545   8.239
 8870WAT      O26851   7.885   1.153   8.215
 8870WAT     H126852   7.863   1.059   8.242
 8870WAT     H226853   7.974   1.179   8.254
 8871WAT      O26854   3.648   0.541   2.795
 8871WAT     H126855   3.692   0.470   2.741
 8871WAT     H226856   3.642   0.510   2.890
 8872WAT      O26857   5.369   4.583   2.670
 8872WAT     H126858   5.342   4.674   2.701
 8872WAT     H226859   5.335   4.515   2.735
 8873WAT      O26860   6.195   8.149   3.702
 8873WAT     H126861   6.248   8.202   3.636
 8873WAT     H226862   6.152   8.071   3.655
 8874WAT      O26863   2.886   7.477   7.294
 8874WAT     H126864   2.794   7.472   7.254
 8874WAT     H226865   2.942   7.403   7.258
 8875WAT      O26866   7.861   2.288   3.037
 8875WAT     H126867   7.928   2.361   3.056
 8875WAT     H226868   7.840   2.287   2.939
 8876WAT      O26869   5.723   3.932   1.071
 8876WAT     H126870   5.703   4.030   1.071
 8876WAT     H226871   5.733   3.900   0.977
 8877WAT      O26872   0.991   2.264   5.901
 8877WAT     H126873   1.002   2.359   5.932
 8877WAT     H226874   0.970   2.206   5.980
 8878WAT      O26875   0.896   9.695   0.552
 8878WAT     H126876   0.822   9.660   0.495
 8878WAT     H226877   0.898   9.644   0.638
 8879WAT      O26878   0.576   1.259   6.587
 8879WAT     H126879   0.562   1.163   6.607
 8879WAT     H226880   0.628   1.269   6.502
 8880WAT      O26881   7.894   6.777   5.137
 8880WAT     H126882   7.814   6.740   5.089
 8880WAT     H226883   7.868   6.861   5.184
 8881WAT      O26884   3.835   7.580   7.955
 8881WAT     H126885   3.814   7.518   7.879
 8881WAT     H226886   3.895   7.533   8.020
 8882WAT      O26887   5.412   7.551   0.834
 8882WAT     H126888   5.480   7.498   0.884
 8882WAT     H226889   5.376   7.624   0.893
 8883WAT      O26890   3.273   9.028   0.443
 8883WAT     H126891   3.294   9.104   0.381
 8883WAT     H226892   3.269   9.062   0.537
 8884WAT      O26893   0.221   7.711   8.184
 8884WAT     H126894   0.218   7.810   8.168
 8884WAT     H226895   0.131   7.672   8.161
 8885WAT      O26896   0.242   6.767   8.090
 8885WAT     H126897   0.259   6.698   8.020
 8885WAT     H226898   0.175   6.833   8.056
 8886WAT      O26899   8.350   4.959   5.848
 8886WAT     H126900   8.253   4.980   5.859
 8886WAT     H226901   8.369   4.939   5.751
 8887WAT      O26902   7.664   7.728   8.821
 8887WAT     H126903   7.688   7.709   8.726
 8887WAT     H226904   7.587   7.791   8.824
 8888WAT      O26905   7.052   8.399   0.220
 8888WAT     H126906   6.963   8.382   0.179
 8888WAT     H226907   7.063   8.340   0.300
 8889WAT      O26908   9.516   0.096   1.272
 8889WAT     H126909   9.609   0.068   1.296
 8889WAT     H226910   9.462   0.016   1.248
 8890WAT      O26911   3.181   2.595   7.268
 8890WAT     H126912   3.154   2.509   7.312
 8890WAT     H226913   3.138   2.672   7.315
 8891WAT      O26914   1.677   2.083   6.883
 8891WAT     H126915   1.738   2.004   6.889
 8891WAT     H226916   1.600   2.061   6.822
 8892WAT      O26917   4.950   8.351   2.372
 8892WAT     H126918   4.932   8.264   2.417
 8892WAT     H226919   4.961   8.422   2.441
 8893WAT      O26920   7.400   7.080   7.821
 8893WAT     H126921   7.350   7.116   7.900
 8893WAT     H226922   7.397   6.980   7.823
 8894WAT      O26923   2.836   1.402   7.232
 8894WAT     H126924   2.921   1.370   7.273
 8894WAT     H226925   2.764   1.406   7.302
 8895WAT      O26926   5.064   8.031   5.497
 8895WAT     H126927   5.116   8.018   5.413
 8895WAT     H226928   4.998   7.956   5.507
 8896WAT      O26929   8.207   7.786   0.308
 8896WAT     H126930   8.180   7.785   0.212
 8896WAT     H226931   8.304   7.761   0.316
 8897WAT      O26932   9.587   2.555   4.346
 8897WAT     H126933   9.506   2.501   4.365
 8897WAT     H226934   9.659   2.531   4.412
 8898WAT      O26935   5.071   0.634   3.207
 8898WAT     H126936   5.083   0.720   3.156
 8898WAT     H226937   4.975   0.607   3.203
 8899WAT      O26938   7.197   6.845   1.627
 8899WAT     H126939   7.124   6.800   1.678
 8899WAT     H226940   7.214   6.795   1.542
 8900WAT      O26941   9.824   6.704   9.865
 8900WAT     H126942   9.829   6.803   9.883
 8900WAT     H226943   9.912   6.671   9.833
 8901WAT      O26944   7.557   3.962   0.688
 8901WAT     H126945   7.577   4.055   0.658
 8901WAT     H226946   7.628   3.930   0.750
 8902WAT      O26947   0.024   3.770   1.269
 8902WAT     H126948  -0.050   3.812   1.216
 8902WAT     H226949   0.008   3.672   1.277
 8903WAT      O26950   4.473   9.161   5.555
 8903WAT     H126951   4.501   9.253   5.585
 8903WAT     H226952   4.500   9.094   5.624
 8904WAT      O26953   0.834   8.107   4.216
 8904WAT     H126954   0.904   8.063   4.273
 8904WAT     H226955   0.743   8.076   4.245
 8905WAT      O26956   3.064   8.156   9.522
 8905WAT     H126957   3.079   8.108   9.608
 8905WAT     H226958   3.151   8.187   9.485
 8906WAT      O26959   6.717   3.282   7.190
 8906WAT     H126960   6.802   3.324   7.223
 8906WAT     H226961   6.650   3.353   7.171
 8907WAT      O26962   9.807   4.477   8.631
 8907WAT     H126963   9.763   4.406   8.576
 8907WAT     H226964   9.864   4.534   8.572
 8908WAT      O26965   4.913   5.908   7.992
 8908WAT     H126966   4.977   5.949   8.058
 8908WAT     H226967   4.822   5.905   8.032
 8909WAT      O26968   5.482   4.415   2.238
 8909WAT     H126969   5.487   4.460   2.149
 8909WAT     H226970   5.434   4.474   2.303
 8910WAT      O26971   1.876   3.072   5.843
 8910WAT     H126972   1.902   2.977   5.854
 8910WAT     H226973   1.876   3.096   5.746
 8911WAT      O26974   6.465   8.141   7.641
 8911WAT     H126975   6.481   8.102   7.550
 8911WAT     H226976   6.382   8.101   7.680
 8912WAT      O26977   7.546   1.957   2.573
 8912WAT     H126978   7.491   1.957   2.490
 8912WAT     H226979   7.643   1.955   2.549
 8913WAT      O26980   5.252   3.961   0.147
 8913WAT     H126981   5.249   4.024   0.225
 8913WAT     H226982   5.306   4.001   0.074
 8914WAT      O26983   8.146   6.961   1.767
 8914WAT     H126984   8.117   7.032   1.703
 8914WAT     H226985   8.204   6.895   1.719
 8915WAT      O26986   9.842   6.446   5.482
 8915WAT     H126987   9.791   6.526   5.449
 8915WAT     H226988   9.931   6.475   5.517
 8916WAT      O26989   3.924   7.939   1.720
 8916WAT     H126990   3.953   7.912   1.628
 8916WAT     H226991   3.982   8.013   1.753
 8917WAT      O26992   6.907   0.267   8.921
 8917WAT     H126993   6.916   0.169   8.940
 8917WAT     H226994   6.833   0.281   8.856
 8918WAT      O26995   3.331   4.740   3.635
 8918WAT     H126996   3.418   4.735   3.684
 8918WAT     H226997   3.263   4.684   3.682
 8919WAT      O26998   2.179   8.355   7.978
 8919WAT     H126999   2.208   8.372   7.885
 8919WAT     H227000   2.165   8.442   8.026
 8920WAT      O27001   2.785   4.865   0.287
 8920WAT     H127002   2.724   4.928   0.335
 8920WAT     H227003   2.792   4.892   0.191
 8921WAT      O27004   2.518   4.913   3.309
 8921WAT     H127005   2.492   4.817   3.307
 8921WAT     H227006   2.597   4.928   3.249
 8922WAT      O27007   0.352   6.744   5.443
 8922WAT     H127008   0.392   6.818   5.498
 8922WAT     H227009   0.309   6.783   5.362
 8923WAT      O27010   8.016   0.956   5.628
 8923WAT     H127011   7.976   1.047   5.622
 8923WAT     H227012   8.070   0.937   5.546
 8924WAT      O27013   2.871   0.447   0.074
 8924WAT     H127014   2.912   0.462  -0.015
 8924WAT     H227015   2.939   0.406   0.136
 8925WAT      O27016   4.710   4.077   3.273
 8925WAT     H127017   4.734   4.012   3.345
 8925WAT     H227018   4.614   4.103   3.281
 8926WAT      O27019   8.036   1.375   3.683
 8926WAT     H127020   8.103   1.360   3.610
 8926WAT     H227021   7.956   1.423   3.646
 8927WAT      O27022   2.613   6.649   2.326
 8927WAT     H127023   2.522   6.687   2.341
 8927WAT     H227024   2.606   6.549   2.318
 8928WAT      O27025   1.855   4.282   3.198
 8928WAT     H127026   1.921   4.209   3.181
 8928WAT     H227027   1.800   4.297   3.115
 8929WAT      O27028   0.332   8.504   4.630
 8929WAT     H127029   0.411   8.500   4.569
 8929WAT     H227030   0.335   8.589   4.683
 8930WAT      O27031   8.483   5.468   0.205
 8930WAT     H127032   8.512   5.456   0.300
 8930WAT     H227033   8.401   5.525   0.203
 8931WAT      O27034   7.164   3.163   8.006
 8931WAT     H127035   7.135   3.136   8.097
 8931WAT     H227036   7.234   3.099   7.973
 8932WAT      O27037   1.404   2.467   2.554
 8932WAT     H127038   1.343   2.429   2.624
 8932WAT     H227039   1.499   2.452   2.581
 8933WAT      O27040   7.379   4.910   9.886
 8933WAT     H127041   7.378   4.850   9.806
 8933WAT     H227042   7.293   4.901   9.935
 8934WAT      O27043   4.464   8.775   5.598
 8934WAT     H127044   4.476   8.704   5.529
 8934WAT     H227045   4.389   8.751   5.659
 8935WAT      O27046   8.195   1.591   2.209
 8935WAT     H127047   8.284   1.605   2.253
 8935WAT     H227048   8.149   1.512   2.251
 8936WAT      O27049   1.622   3.841   1.885
 8936WAT     H127050   1.600   3.745   1.905
 8936WAT     H227051   1.659   3.847   1.793
 8937WAT      O27052   5.763   6.608   5.129
 8937WAT     H127053   5.740   6.515   5.099
 8937WAT     H227054   5.854   6.632   5.095
 8938WAT      O27055   3.604   3.949   2.000
 8938WAT     H127056   3.584   4.044   2.025
 8938WAT     H227057   3.649   3.946   1.911
 8939WAT      O27058   6.046   9.594   9.211
 8939WAT     H127059   6.086   9.686   9.209
 8939WAT     H227060   5.997   9.578   9.125
 8940WAT      O27061   3.222   9.627   6.672
 8940WAT     H127062   3.195   9.615   6.767
 8940WAT     H227063   3.178   9.709   6.634
 8941WAT      O27064   5.589   7.337   4.553
 8941WAT     H127065   5.612   7.266   4.620
 8941WAT     H227066   5.581   7.295   4.462
 8942WAT      O27067   0.976   3.031   0.488
 8942WAT     H127068   0.918   2.959   0.448
 8942WAT     H227069   1.020   3.082   0.415
 8943WAT      O27070   3.242   1.034   6.824
 8943WAT     H127071   3.336   1.040   6.791
 8943WAT     H227072   3.188   0.977   6.761
 8944WAT      O27073   3.822   4.036   1.288
 8944WAT     H127074   3.838   4.105   1.218
 8944WAT     H227075   3.800   4.080   1.374
 8945WAT      O27076   5.043   6.752   1.146
 8945WAT     H127077   4.959   6.806   1.140
 8945WAT     H227078   5.107   6.782   1.075
 8946WAT      O27079   3.158   5.654   1.614
 8946WAT     H127080   3.095   5.576   1.609
 8946WAT     H227081   3.112   5.735   1.577
 8947WAT      O27082   0.131   9.428   7.014
 8947WAT     H127083   0.160   9.521   6.991
 8947WAT     H227084   0.090   9.428   7.105
 8948WAT      O27085   5.485   1.076   6.848
 8948WAT     H127086   5.518   1.036   6.762
 8948WAT     H227087   5.525   1.026   6.925
 8949WAT      O27088   3.681   5.229   7.539
 8949WAT     H127089   3.582   5.238   7.543
 8949WAT     H227090   3.712   5.158   7.602
 8950WAT      O27091   6.070   8.357   9.030
 8950WAT     H127092   6.071   8.278   8.968
 8950WAT     H227093   6.143   8.420   9.005
 8951WAT      O27094   1.706   3.108   4.900
 8951WAT     H127095   1.801   3.111   4.929
 8951WAT     H227096   1.698   3.051   4.817
 8952WAT      O27097   8.342   9.462   2.553
 8952WAT     H127098   8.408   9.394   2.519
 8952WAT     H227099   8.381   9.508   2.633
 8953WAT      O27100   3.032   5.788   3.462
 8953WAT     H127101   3.128   5.770   3.442
 8953WAT     H227102   2.992   5.840   3.386
 8954WAT      O27103   1.516   4.211   2.323
 8954WAT     H127104   1.417   4.201   2.331
 8954WAT     H227105   1.559   4.182   2.409
 8955WAT      O27106   1.739   9.271   9.429
 8955WAT     H127107   1.741   9.173   9.448
 8955WAT     H227108   1.745   9.322   9.516
 8956WAT      O27109   7.024   3.864   0.327
 8956WAT     H127110   7.090   3.929   0.366
 8956WAT     H227111   7.061   3.771   0.334
 8957WAT      O27112   5.371   4.777   6.995
 8957WAT     H127113   5.423   4.853   7.034
 8957WAT     H227114   5.323   4.728   7.068
 8958WAT      O27115   8.131   1.296   0.117
 8958WAT     H127116   8.226   1.327   0.121
 8958WAT     H227117   8.071   1.374   0.101
 8959WAT      O27118   2.093   0.851   7.819
 8959WAT     H127119   2.082   0.777   7.753
 8959WAT     H227120   2.187   0.852   7.853
 8960WAT      O27121   7.995   6.292   7.923
 8960WAT     H127122   8.023   6.360   7.856
 8960WAT     H227123   8.061   6.289   7.998
 8961WAT      O27124   9.556   9.527   5.552
 8961WAT     H127125   9.640   9.498   5.598
 8961WAT     H227126   9.571   9.616   5.509
 8962WAT      O27127   9.436   3.463   2.767
 8962WAT     H127128   9.490   3.386   2.733
 8962WAT     H227129   9.386   3.505   2.691
 8963WAT      O27130   5.178   8.823   1.618
 8963WAT     H127131   5.235   8.905   1.605
 8963WAT     H227132   5.139   8.825   1.710
 8964WAT      O27133   2.815   5.516   5.578
 8964WAT     H127134   2.883   5.531   5.649
 8964WAT     H227135   2.860   5.487   5.494
 8965WAT      O27136   9.882   2.958   8.201
 8965WAT     H127137   9.796   2.931   8.244
 8965WAT     H227138   9.873   2.951   8.101
 8966WAT      O27139   6.572   4.283   2.504
 8966WAT     H127140   6.511   4.225   2.560
 8966WAT     H227141   6.553   4.379   2.524
 8967WAT      O27142   8.572   1.135   9.186
 8967WAT     H127143   8.534   1.223   9.158
 8967WAT     H227144   8.576   1.074   9.107
 8968WAT      O27145   2.153   8.611   9.761
 8968WAT     H127146   2.183   8.555   9.684
 8968WAT     H227147   2.232   8.653   9.805
 8969WAT      O27148   7.118   3.776   7.383
 8969WAT     H127149   7.069   3.711   7.325
 8969WAT     H227150   7.082   3.868   7.367
 8970WAT      O27151   7.738   3.869   4.086
 8970WAT     H127152   7.644   3.839   4.072
 8970WAT     H227153   7.757   3.948   4.027
 8971WAT      O27154   1.210   2.085   9.797
 8971WAT     H127155   1.211   1.987   9.818
 8971WAT     H227156   1.116   2.120   9.807
 8972WAT      O27157   3.363   1.083   3.897
 8972WAT     H127158   3.453   1.079   3.853
 8972WAT     H227159   3.375   1.091   3.996
 8973WAT      O27160   1.208   0.660   5.584
 8973WAT     H127161   1.122   0.609   5.594
 8973WAT     H227162   1.225   0.677   5.487
 8974WAT      O27163   8.783   8.070   4.016
 8974WAT     H127164   8.806   8.149   4.072
 8974WAT     H227165   8.762   7.992   4.075
 8975WAT      O27166   1.242   2.573   1.529
 8975WAT     H127167   1.301   2.510   1.580
 8975WAT     H227168   1.147   2.543   1.536
 8976WAT      O27169   6.220   0.600   6.675
 8976WAT     H127170   6.172   0.676   6.718
 8976WAT     H227171   6.315   0.627   6.658
 8977WAT      O27172   1.073   8.886   2.179
 8977WAT     H127173   1.051   8.852   2.271
 8977WAT     H227174   1.020   8.836   2.111
 8978WAT      O27175   2.238   8.533   6.557
 8978WAT     H127176   2.305   8.518   6.485
 8978WAT     H227177   2.227   8.449   6.610
 8979WAT      O27178   9.470   9.283   8.583
 8979WAT     H127179   9.529   9.348   8.630
 8979WAT     H227180   9.466   9.307   8.485
 8980WAT      O27181   2.366   4.062   8.416
 8980WAT     H127182   2.440   4.017   8.366
 8980WAT     H227183   2.279   4.019   8.392
 8981WAT      O27184   5.625   1.051   2.740
 8981WAT     H127185   5.574   1.135   2.726
 8981WAT     H227186   5.578   0.975   2.695
 8982WAT      O27187   5.738   3.223   9.034
 8982WAT     H127188   5.782   3.198   8.947
 8982WAT     H227189   5.801   3.279   9.088
 8983WAT      O27190   0.497   4.410   5.713
 8983WAT     H127191   0.491   4.319   5.753
 8983WAT     H227192   0.407   4.438   5.680
 8984WAT      O27193   4.188   3.653   3.370
 8984WAT     H127194   4.226   3.562   3.383
 8984WAT     H227195   4.174   3.697   3.459
 8985WAT      O27196   9.371   8.347   5.585
 8985WAT     H127197   9.320   8.287   5.523
 8985WAT     H227198   9.433   8.292   5.641
 8986WAT      O27199   8.172   6.900   4.559
 8986WAT     H127200   8.237   6.950   4.616
 8986WAT     H227201   8.144   6.816   4.607
 8987WAT      O27202   7.092   0.050   1.154
 8987WAT     H127203   7.048   0.123   1.206
 8987WAT     H227204   7.169   0.013   1.206
 8988WAT      O27205   4.931   1.990   3.029
 8988WAT     H127206   4.908   2.083   3.002
 8988WAT     H227207   4.857   1.951   3.084
 8989WAT      O27208   5.512   8.174   5.022
 8989WAT     H127209   5.457   8.138   4.946
 8989WAT     H227210   5.584   8.108   5.045
 8990WAT      O27211   0.264   9.357   5.706
 8990WAT     H127212   0.288   9.425   5.638
 8990WAT     H227213   0.344   9.335   5.761
 8991WAT      O27214   5.700   0.670   7.718
 8991WAT     H127215   5.731   0.625   7.634
 8991WAT     H227216   5.667   0.600   7.782
 8992WAT      O27217   5.206   7.199   3.556
 8992WAT     H127218   5.175   7.134   3.486
 8992WAT     H227219   5.128   7.229   3.610
 8993WAT      O27220   6.067   1.799   1.925
 8993WAT     H127221   6.035   1.891   1.948
 8993WAT     H227222   6.042   1.736   1.999
 8994WAT      O27223   5.906   3.424   3.581
 8994WAT     H127224   5.838   3.496   3.564
 8994WAT     H227225   5.974   3.425   3.508
 8995WAT      O27226   8.761   0.113   5.627
 8995WAT     H127227   8.672   0.088   5.588
 8995WAT     H227228   8.779   0.058   5.708
 8996WAT      O27229   3.545   1.246   4.504
 8996WAT     H127230   3.497   1.297   4.575
 8996WAT     H227231   3.523   1.148   4.514
 8997WAT      O27232   6.185   2.591   0.889
 8997WAT     H127233   6.086   2.576   0.893
 8997WAT     H227234   6.220   2.601   0.982
 8998WAT      O27235   4.363   7.907   2.659
 8998WAT     H127236   4.378   8.001   2.689
 8998WAT     H227237   4.438   7.879   2.599
 8999WAT      O27238   7.880   3.609   4.185
 8999WAT     H127239   7.813   3.683   4.182
 8999WAT     H227240   7.874   3.562   4.273
 9000WAT      O27241   1.888   3.214   5.604
 9000WAT     H127242   1.945   3.273   5.547
 9000WAT     H227243   1.849   3.141   5.549
 9001WAT      O27244   8.419   4.002   4.407
 9001WAT     H127245   8.437   3.924   4.466
 9001WAT     H227246   8.506   4.045   4.381
 9002WAT      O27247   4.601   2.698   3.964
 9002WAT     H127248   4.586   2.780   3.908
 9002WAT     H227249   4.533   2.628   3.939
 9003WAT      O27250   8.294   0.831   9.527
 9003WAT     H127251   8.351   0.913   9.529
 9003WAT     H227252   8.209   0.852   9.478
 9004WAT      O27253   3.872   6.441   8.650
 9004WAT     H127254   3.902   6.482   8.736
 9004WAT     H227255   3.772   6.445   8.643
 9005WAT      O27256   4.396   4.026   8.092
 9005WAT     H127257   4.462   4.002   8.022
 9005WAT     H227258   4.359   4.117   8.074
 9006WAT      O27259   4.315   8.052   6.539
 9006WAT     H127260   4.266   8.016   6.459
 9006WAT     H227261   4.272   8.018   6.622
 9007WAT      O27262   1.164   9.835   1.998
 9007WAT     H127263   1.247   9.796   1.960
 9007WAT     H227264   1.133   9.781   2.076
 9008WAT      O27265   9.441   1.300   2.740
 9008WAT     H127266   9.530   1.342   2.725
 9008WAT     H227267   9.402   1.333   2.826
 9009WAT      O27268   0.395   2.191   7.721
 9009WAT     H127269   0.406   2.196   7.821
 9009WAT     H227270   0.301   2.214   7.697
 9010WAT      O27271   4.271   7.884   9.663
 9010WAT     H127272   4.231   7.882   9.754
 9010WAT     H227273   4.204   7.920   9.598
 9011WAT      O27274   3.638   8.858   4.665
 9011WAT     H127275   3.721   8.908   4.690
 9011WAT     H227276   3.575   8.857   4.743
 9012WAT      O27277   7.089   5.305   1.837
 9012WAT     H127278   7.130   5.393   1.864
 9012WAT     H227279   7.109   5.237   1.907
 9013WAT      O27280   4.412   3.203   9.257
 9013WAT     H127281   4.343   3.149   9.305
 9013WAT     H227282   4.426   3.289   9.305
 9014WAT      O27283   0.554   0.133   7.357
 9014WAT     H127284   0.610   0.050   7.354
 9014WAT     H227285   0.464   0.111   7.395
 9015WAT      O27286   5.388   0.871   8.713
 9015WAT     H127287   5.442   0.803   8.762
 9015WAT     H227288   5.290   0.852   8.727
 9016WAT      O27289   4.780   8.228   0.052
 9016WAT     H127290   4.715   8.286   0.100
 9016WAT     H227291   4.873   8.254   0.078
 9017WAT      O27292   8.956   4.734   3.042
 9017WAT     H127293   8.966   4.680   2.958
 9017WAT     H227294   9.008   4.819   3.033
 9018WAT      O27295   2.780   9.747   7.571
 9018WAT     H127296   2.711   9.731   7.641
 9018WAT     H227297   2.742   9.727   7.481
 9019WAT      O27298   7.501   4.801   1.571
 9019WAT     H127299   7.503   4.780   1.668
 9019WAT     H227300   7.422   4.860   1.552
 9020WAT      O27301   9.238   3.767   6.978
 9020WAT     H127302   9.152   3.717   6.965
 9020WAT     H227303   9.310   3.725   6.923
 9021WAT      O27304   3.551   0.957   9.262
 9021WAT     H127305   3.615   0.886   9.290
 9021WAT     H227306   3.484   0.973   9.334
 9022WAT      O27307   9.852   0.168   8.200
 9022WAT     H127308   9.847   0.078   8.243
 9022WAT     H227309   9.802   0.234   8.256
 9023WAT      O27310   5.164   6.967   0.254
 9023WAT     H127311   5.132   7.004   0.167
 9023WAT     H227312   5.172   7.042   0.321
 9024WAT      O27313   5.402   6.453   4.615
 9024WAT     H127314   5.362   6.362   4.617
 9024WAT     H227315   5.456   6.464   4.531
 9025WAT      O27316   1.853   8.297   9.369
 9025WAT     H127317   1.869   8.389   9.406
 9025WAT     H227318   1.806   8.241   9.438
 9026WAT      O27319   0.972   4.366   5.850
 9026WAT     H127320   0.890   4.333   5.803
 9026WAT     H227321   0.955   4.458   5.886
 9027WAT      O27322   3.775   4.955   3.750
 9027WAT     H127323   3.714   5.013   3.696
 9027WAT     H227324   3.866   4.952   3.707
 9028WAT      O27325   9.250   5.664   0.626
 9028WAT     H127326   9.265   5.742   0.566
 9028WAT     H227327   9.246   5.580   0.571
 9029WAT      O27328   7.312   4.905   6.664
 9029WAT     H127329   7.399   4.876   6.705
 9029WAT     H227330   7.262   4.962   6.729
 9030WAT      O27331   0.136   5.204   0.279
 9030WAT     H127332   0.176   5.293   0.298
 9030WAT     H227333   0.208   5.135   0.274
 9031WAT      O27334   3.568   3.482   9.528
 9031WAT     H127335   3.491   3.469   9.466
 9031WAT     H227336   3.540   3.462   9.621
 9032WAT      O27337   1.894   7.585   3.143
 9032WAT     H127338   1.875   7.553   3.050
 9032WAT     H227339   1.889   7.685   3.145
 9033WAT      O27340   1.933   5.241   4.187
 9033WAT     H127341   1.946   5.144   4.166
 9033WAT     H227342   1.923   5.293   4.102
 9034WAT      O27343   1.556   2.698   5.902
 9034WAT     H127344   1.573   2.787   5.945
 9034WAT     H227345   1.580   2.703   5.805
 9035WAT      O27346   0.667   0.337   7.588
 9035WAT     H127347   0.636   0.276   7.661
 9035WAT     H227348   0.657   0.291   7.500
 9036WAT      O27349   6.113   9.635   3.023
 9036WAT     H127350   6.204   9.619   2.984
 9036WAT     H227351   6.093   9.565   3.092
 9037WAT      O27352   3.521   3.693   6.247
 9037WAT     H127353   3.524   3.639   6.164
 9037WAT     H227354   3.446   3.661   6.305
 9038WAT      O27355   1.267   7.488   8.176
 9038WAT     H127356   1.210   7.541   8.239
 9038WAT     H227357   1.210   7.450   8.103
 9039WAT      O27358   4.777   6.421   0.287
 9039WAT     H127359   4.706   6.470   0.237
 9039WAT     H227360   4.853   6.401   0.226
 9040WAT      O27361   2.029   6.485   2.903
 9040WAT     H127362   1.992   6.464   2.993
 9040WAT     H227363   1.959   6.531   2.848
 9041WAT      O27364   2.943   4.314   2.555
 9041WAT     H127365   2.941   4.405   2.514
 9041WAT     H227366   2.857   4.296   2.601
 9042WAT      O27367   4.024   6.357   8.968
 9042WAT     H127368   4.009   6.454   8.952
 9042WAT     H227369   3.938   6.307   8.955
 9043WAT      O27370   0.273   6.650   9.311
 9043WAT     H127371   0.322   6.658   9.224
 9043WAT     H227372   0.268   6.740   9.354
 9044WAT      O27373   2.365   2.891   2.357
 9044WAT     H127374   2.391   2.973   2.408
 9044WAT     H227375   2.447   2.842   2.328
 9045WAT      O27376   5.971   2.014   6.726
 9045WAT     H127377   5.945   1.920   6.705
 9045WAT     H227378   5.894   2.075   6.709
 9046WAT      O27379   3.160   6.391   2.748
 9046WAT     H127380   3.172   6.392   2.648
 9046WAT     H227381   3.111   6.473   2.776
 9047WAT      O27382   0.207   0.032   3.564
 9047WAT     H127383   0.281   0.050   3.629
 9047WAT     H227384   0.178   0.119   3.523
 9048WAT      O27385   1.977   3.104   4.882
 9048WAT     H127386   1.979   3.203   4.868
 9048WAT     H227387   2.020   3.058   4.804
 9049WAT      O27388   2.829   3.614   4.174
 9049WAT     H127389   2.923   3.604   4.206
 9049WAT     H227390   2.829   3.651   4.081
 9050WAT      O27391   2.661   1.219   5.424
 9050WAT     H127392   2.573   1.258   5.397
 9050WAT     H227393   2.733   1.257   5.367
 9051WAT      O27394   9.457   1.499   7.560
 9051WAT     H127395   9.483   1.557   7.638
 9051WAT     H227396   9.501   1.410   7.569
 9052WAT      O27397   6.977   5.615   9.371
 9052WAT     H127398   6.954   5.531   9.321
 9052WAT     H227399   6.893   5.667   9.388
 9053WAT      O27400   8.842   0.890   6.914
 9053WAT     H127401   8.882   0.799   6.899
 9053WAT     H227402   8.757   0.898   6.863
 9054WAT      O27403   3.851   4.672   6.148
 9054WAT     H127404   3.783   4.599   6.159
 9054WAT     H227405   3.813   4.759   6.179
 9055WAT      O27406   2.621   5.839   3.953
 9055WAT     H127407   2.609   5.888   3.867
 9055WAT     H227408   2.548   5.772   3.964
 9056WAT      O27409   0.085   2.372   7.988
 9056WAT     H127410   0.175   2.413   7.972
 9056WAT     H227411   0.042   2.417   8.066
 9057WAT      O27412   8.959   4.202   1.059
 9057WAT     H127413   9.018   4.158   1.128
 9057WAT     H227414   9.012   4.268   1.007
 9058WAT      O27415   1.150   8.037   1.252
 9058WAT     H127416   1.132   7.951   1.205
 9058WAT     H227417   1.244   8.038   1.286
 9059WAT      O27418   2.817   5.666   3.940
 9059WAT     H127419   2.752   5.742   3.945
 9059WAT     H227420   2.848   5.656   3.845
 9060WAT      O27421   6.178   8.683   1.958
 9060WAT     H127422   6.247   8.614   1.980
 9060WAT     H227423   6.144   8.723   2.043
 9061WAT      O27424   2.853   0.604   4.063
 9061WAT     H127425   2.839   0.700   4.038
 9061WAT     H227426   2.768   0.553   4.047
 9062WAT      O27427   4.787   5.028   1.263
 9062WAT     H127428   4.721   4.986   1.200
 9062WAT     H227429   4.741   5.053   1.348
 9063WAT      O27430   5.970   3.834   2.137
 9063WAT     H127431   5.909   3.805   2.211
 9063WAT     H227432   5.984   3.933   2.142
 9064WAT      O27433   9.820   2.698   4.295
 9064WAT     H127434   9.774   2.614   4.267
 9064WAT     H227435   9.757   2.754   4.349
 9065WAT      O27436   8.412   8.479   8.056
 9065WAT     H127437   8.476   8.404   8.040
 9065WAT     H227438   8.361   8.461   8.140
 9066WAT      O27439   3.805   5.957   7.277
 9066WAT     H127440   3.868   5.910   7.215
 9066WAT     H227441   3.849   5.967   7.367
 9067WAT      O27442   8.927   7.326   6.190
 9067WAT     H127443   9.027   7.331   6.183
 9067WAT     H227444   8.892   7.265   6.119
 9068WAT      O27445   7.486   2.030   7.018
 9068WAT     H127446   7.549   2.055   7.092
 9068WAT     H227447   7.422   1.961   7.050
 9069WAT      O27448   7.593   2.796   7.255
 9069WAT     H127449   7.574   2.707   7.214
 9069WAT     H227450   7.561   2.869   7.194
 9070WAT      O27451   6.089   3.530   0.660
 9070WAT     H127452   6.074   3.487   0.571
 9070WAT     H227453   6.019   3.498   0.724
 9071WAT      O27454   1.040   3.667   5.650
 9071WAT     H127455   1.109   3.625   5.709
 9071WAT     H227456   0.992   3.738   5.700
 9072WAT      O27457   0.079   3.145   1.351
 9072WAT     H127458   0.158   3.089   1.330
 9072WAT     H227459   0.039   3.181   1.266
 9073WAT      O27460   0.107   2.325   1.888
 9073WAT     H127461   0.115   2.247   1.826
 9073WAT     H227462   0.194   2.374   1.891
 9074WAT      O27463   4.974   4.691   1.257
 9074WAT     H127464   4.982   4.599   1.295
 9074WAT     H227465   5.054   4.710   1.199
 9075WAT      O27466   7.259   3.160   3.370
 9075WAT     H127467   7.259   3.115   3.281
 9075WAT     H227468   7.308   3.246   3.365
 9076WAT      O27469   4.138   9.382   6.697
 9076WAT     H127470   4.145   9.468   6.647
 9076WAT     H227471   4.230   9.343   6.709
 9077WAT      O27472   9.607   2.763   4.065
 9077WAT     H127473   9.694   2.752   4.018
 9077WAT     H227474   9.532   2.754   4.000
 9078WAT      O27475   1.552   9.143   7.264
 9078WAT     H127476   1.538   9.096   7.351
 9078WAT     H227477   1.517   9.087   7.189
 9079WAT      O27478   3.045   7.933   3.656
 9079WAT     H127479   2.986   7.987   3.715
 9079WAT     H227480   3.071   7.849   3.703
 9080WAT      O27481   1.422   8.052   1.298
 9080WAT     H127482   1.467   8.039   1.210
 9080WAT     H227483   1.466   7.994   1.367
 9081WAT      O27484   3.176   5.428   3.758
 9081WAT     H127485   3.222   5.403   3.843
 9081WAT     H227486   3.142   5.522   3.764
 9082WAT      O27487   2.002   8.816   2.172
 9082WAT     H127488   1.994   8.716   2.170
 9082WAT     H227489   1.917   8.857   2.140
 9083WAT      O27490   2.926   4.593   1.441
 9083WAT     H127491   2.857   4.665   1.447
 9083WAT     H227492   2.881   4.503   1.447
 9084WAT      O27493   0.647   6.664   3.889
 9084WAT     H127494   0.582   6.700   3.823
 9084WAT     H227495   0.648   6.722   3.970
 9085WAT      O27496   8.527   2.095   7.166
 9085WAT     H127497   8.603   2.037   7.194
 9085WAT     H227498   8.446   2.071   7.219
 9086WAT      O27499   8.652   0.275   7.520
 9086WAT     H127500   8.617   0.267   7.427
 9086WAT     H227501   8.609   0.353   7.566
 9087WAT      O27502   5.358   1.352   5.495
 9087WAT     H127503   5.379   1.390   5.585
 9087WAT     H227504   5.418   1.274   5.477
 9088WAT      O27505   5.797   8.787   0.487
 9088WAT     H127506   5.877   8.839   0.455
 9088WAT     H227507   5.808   8.691   0.461
 9089WAT      O27508   6.873   2.455   7.848
 9089WAT     H127509   6.862   2.515   7.769
 9089WAT     H227510   6.797   2.389   7.851
 9090WAT      O27511   6.211   8.152   3.975
 9090WAT     H127512   6.293   8.189   4.019
 9090WAT     H227513   6.219   8.161   3.876
 9091WAT      O27514   5.629   6.428   9.244
 9091WAT     H127515   5.673   6.396   9.160
 9091WAT     H227516   5.552   6.487   9.222
 9092WAT      O27517   8.386   1.871   1.576
 9092WAT     H127518   8.332   1.876   1.492
 9092WAT     H227519   8.478   1.840   1.555
 9093WAT      O27520   0.284   3.358   3.029
 9093WAT     H127521   0.337   3.291   2.977
 9093WAT     H227522   0.347   3.418   3.079
 9094WAT      O27523   2.772   0.602   8.538
 9094WAT     H127524   2.700   0.578   8.473
 9094WAT     H227525   2.732   0.627   8.626
 9095WAT      O27526   1.011   8.430   5.426
 9095WAT     H127527   0.970   8.501   5.369
 9095WAT     H227528   0.963   8.426   5.514
 9096WAT      O27529   6.698   1.877   3.660
 9096WAT     H127530   6.777   1.866   3.720
 9096WAT     H227531   6.664   1.971   3.667
 9097WAT      O27532   5.427   8.053   4.764
 9097WAT     H127533   5.520   8.025   4.739
 9097WAT     H227534   5.392   7.994   4.836
 9098WAT      O27535   8.397   6.812   8.234
 9098WAT     H127536   8.375   6.909   8.233
 9098WAT     H227537   8.481   6.796   8.183
 9099WAT      O27538   7.388   5.794   5.397
 9099WAT     H127539   7.487   5.785   5.387
 9099WAT     H227540   7.342   5.746   5.322
 9100WAT      O27541   9.772   6.060   5.706
 9100WAT     H127542   9.678   6.081   5.733
 9100WAT     H227543   9.771   5.988   5.637
 9101WAT      O27544   5.448   9.008   7.799
 9101WAT     H127545   5.388   8.962   7.734
 9101WAT     H227546   5.396   9.082   7.844
 9102WAT      O27547   6.009   3.653   6.751
 9102WAT     H127548   5.994   3.742   6.708
 9102WAT     H227549   6.033   3.665   6.847
 9103WAT      O27550   7.838   4.221   4.428
 9103WAT     H127551   7.809   4.133   4.391
 9103WAT     H227552   7.758   4.274   4.456
 9104WAT      O27553   4.571   7.769   8.584
 9104WAT     H127554   4.650   7.709   8.572
 9104WAT     H227555   4.528   7.786   8.495
 9105WAT      O27556   0.973   7.998   0.260
 9105WAT     H127557   0.928   7.927   0.314
 9105WAT     H227558   0.904   8.058   0.219
 9106WAT      O27559   1.754   0.374   4.196
 9106WAT     H127560   1.762   0.305   4.123
 9106WAT     H227561   1.669   0.425   4.184
 9107WAT      O27562   0.646   4.417   4.676
 9107WAT     H127563   0.678   4.500   4.630
 9107WAT     H227564   0.557   4.391   4.640
 9108WAT      O27565   5.497   0.253   7.650
 9108WAT     H127566   5.577   0.193   7.647
 9108WAT     H227567   5.506   0.316   7.727
 9109WAT      O27568   2.139   5.694   5.675
 9109WAT     H127569   2.172   5.763   5.739
 9109WAT     H227570   2.204   5.684   5.599
 9110WAT      O27571   1.142   2.803   6.409
 9110WAT     H127572   1.097   2.715   6.394
 9110WAT     H227573   1.084   2.861   6.467
 9111WAT      O27574   1.745   4.785   9.608
 9111WAT     H127575   1.739   4.688   9.629
 9111WAT     H227576   1.719   4.838   9.689
 9112WAT      O27577   3.819   0.537   1.329
 9112WAT     H127578   3.746   0.518   1.264
 9112WAT     H227579   3.806   0.627   1.369
 9113WAT      O27580   1.622   8.335   8.082
 9113WAT     H127581   1.694   8.403   8.095
 9113WAT     H227582   1.564   8.362   8.005
 9114WAT      O27583   0.271   9.587   5.485
 9114WAT     H127584   0.293   9.622   5.393
 9114WAT     H227585   0.272   9.662   5.550
 9115WAT      O27586   5.740   4.238   1.243
 9115WAT     H127587   5.674   4.223   1.170
 9115WAT     H227588   5.692   4.271   1.325
 9116WAT      O27589   1.931   2.101   0.441
 9116WAT     H127590   1.960   2.007   0.458
 9116WAT     H227591   1.964   2.130   0.351
 9117WAT      O27592   9.346   5.294   1.558
 9117WAT     H127593   9.309   5.374   1.605
 9117WAT     H227594   9.334   5.304   1.459
 9118WAT      O27595   3.187   9.159   1.505
 9118WAT     H127596   3.232   9.158   1.594
 9118WAT     H227597   3.254   9.180   1.434
 9119WAT      O27598   2.867   4.219   1.883
 9119WAT     H127599   2.897   4.137   1.931
 9119WAT     H227600   2.924   4.233   1.802
 9120WAT      O27601   5.496   7.366   6.064
 9120WAT     H127602   5.492   7.284   6.006
 9120WAT     H227603   5.465   7.445   6.013
 9121WAT      O27604   8.470   7.471   8.606
 9121WAT     H127605   8.470   7.375   8.633
 9121WAT     H227606   8.493   7.478   8.509
 9122WAT      O27607   8.455   7.789   7.943
 9122WAT     H127608   8.380   7.732   7.976
 9122WAT     H227609   8.440   7.884   7.972
 9123WAT      O27610   9.513   1.000   4.765
 9123WAT     H127611   9.452   1.078   4.754
 9123WAT     H227612   9.590   1.009   4.701
 9124WAT      O27613   9.301   5.693   6.374
 9124WAT     H127614   9.281   5.616   6.313
 9124WAT     H227615   9.397   5.719   6.363
 9125WAT      O27616   2.982   4.048   2.372
 9125WAT     H127617   3.030   3.962   2.390
 9125WAT     H227618   3.003   4.113   2.444
 9126WAT      O27619   8.809   5.383   0.971
 9126WAT     H127620   8.890   5.441   0.971
 9126WAT     H227621   8.782   5.363   1.066
 9127WAT      O27622   2.601   0.412   4.009
 9127WAT     H127623   2.581   0.465   4.091
 9127WAT     H227624   2.571   0.317   4.022
 9128WAT      O27625   5.225   1.342   6.102
 9128WAT     H127626   5.237   1.333   6.004
 9128WAT     H227627   5.313   1.361   6.146
 9129WAT      O27628   7.775   9.001   3.461
 9129WAT     H127629   7.742   9.092   3.485
 9129WAT     H227630   7.723   8.933   3.513
 9130WAT      O27631   4.132   2.681   7.909
 9130WAT     H127632   4.213   2.623   7.903
 9130WAT     H227633   4.091   2.671   8.000
 9131WAT      O27634   4.166   4.980   5.107
 9131WAT     H127635   4.117   5.031   5.177
 9131WAT     H227636   4.211   4.901   5.148
 9132WAT      O27637   8.326   3.997   9.666
 9132WAT     H127638   8.384   4.027   9.590
 9132WAT     H227639   8.320   3.897   9.667
 9133WAT      O27640   0.660   9.333   1.989
 9133WAT     H127641   0.685   9.402   2.058
 9133WAT     H227642   0.629   9.379   1.906
 9134WAT      O27643   7.083   4.518   7.121
 9134WAT     H127644   7.033   4.593   7.078
 9134WAT     H227645   7.026   4.436   7.122
 9135WAT      O27646   6.302   3.296   6.007
 9135WAT     H127647   6.324   3.205   6.042
 9135WAT     H227648   6.301   3.361   6.083
 9136WAT      O27649   9.005   1.361   5.056
 9136WAT     H127650   8.999   1.461   5.064
 9136WAT     H227651   9.099   1.335   5.036
 9137WAT      O27652   8.043   0.174   3.523
 9137WAT     H127653   8.133   0.219   3.519
 9137WAT     H227654   8.012   0.171   3.618
 9138WAT      O27655   5.774   8.719   3.456
 9138WAT     H127656   5.822   8.706   3.542
 9138WAT     H227657   5.724   8.635   3.433
 9139WAT      O27658   7.807   6.159   8.214
 9139WAT     H127659   7.731   6.129   8.273
 9139WAT     H227660   7.773   6.170   8.121
 9140WAT      O27661   1.455   5.312   5.130
 9140WAT     H127662   1.525   5.283   5.065
 9140WAT     H227663   1.409   5.232   5.168
 9141WAT      O27664   3.037   3.555   8.213
 9141WAT     H127665   3.098   3.513   8.279
 9141WAT     H227666   2.946   3.564   8.253
 9142WAT      O27667   1.355   1.929   1.108
 9142WAT     H127668   1.387   1.836   1.126
 9142WAT     H227669   1.399   1.992   1.172
 9143WAT      O27670   8.292   6.900   6.528
 9143WAT     H127671   8.283   6.985   6.477
 9143WAT     H227672   8.313   6.825   6.464
 9144WAT      O27673   8.021   2.838   3.930
 9144WAT     H127674   7.963   2.771   3.884
 9144WAT     H227675   8.080   2.792   3.995
 9145WAT      O27676   7.788   8.643   1.150
 9145WAT     H127677   7.865   8.607   1.203
 9145WAT     H227678   7.816   8.728   1.104
 9146WAT      O27679   7.507   5.878   9.521
 9146WAT     H127680   7.509   5.961   9.577
 9146WAT     H227681   7.589   5.874   9.464
 9147WAT      O27682   2.108   7.841   5.148
 9147WAT     H127683   2.123   7.915   5.213
 9147WAT     H227684   2.193   7.823   5.098
 9148WAT      O27685   1.456   0.827   1.258
 9148WAT     H127686   1.533   0.765   1.266
 9148WAT     H227687   1.438   0.870   1.346
 9149WAT      O27688   3.887   2.975   5.570
 9149WAT     H127689   3.981   2.958   5.540
 9149WAT     H227690   3.865   2.915   5.647
 9150WAT      O27691   3.999   6.126   5.990
 9150WAT     H127692   4.012   6.097   6.085
 9150WAT     H227693   3.906   6.102   5.960
 9151WAT      O27694   4.330   3.919   2.073
 9151WAT     H127695   4.333   3.839   2.014
 9151WAT     H227696   4.419   3.930   2.118
 9152WAT      O27697   1.254   9.581   1.030
 9152WAT     H127698   1.346   9.542   1.040
 9152WAT     H227699   1.259   9.680   1.042
 9153WAT      O27700   2.505   7.580   2.139
 9153WAT     H127701   2.492   7.538   2.229
 9153WAT     H227702   2.571   7.526   2.086
 9154WAT      O27703   6.853   7.569   7.939
 9154WAT     H127704   6.783   7.611   7.996
 9154WAT     H227705   6.812   7.500   7.880
 9155WAT      O27706   4.074   0.534   0.543
 9155WAT     H127707   4.138   0.582   0.483
 9155WAT     H227708   4.080   0.436   0.528
 9156WAT      O27709   9.641   0.913   7.994
 9156WAT     H127710   9.687   0.831   7.960
 9156WAT     H227711   9.550   0.889   8.026
 9157WAT      O27712   2.100   1.564   6.336
 9157WAT     H127713   2.039   1.540   6.261
 9157WAT     H227714   2.151   1.484   6.365
 9158WAT      O27715   6.422   3.541   4.866
 9158WAT     H127716   6.323   3.546   4.858
 9158WAT     H227717   6.447   3.491   4.949
 9159WAT      O27718   7.128   3.808   1.169
 9159WAT     H127719   7.203   3.841   1.112
 9159WAT     H227720   7.153   3.818   1.266
 9160WAT      O27721   2.171   2.778   2.195
 9160WAT     H127722   2.195   2.686   2.226
 9160WAT     H227723   2.215   2.845   2.254
 9161WAT      O27724   1.213   4.168   9.363
 9161WAT     H127725   1.210   4.232   9.441
 9161WAT     H227726   1.289   4.104   9.376
 9162WAT      O27727   0.967   9.424   1.911
 9162WAT     H127728   0.956   9.383   2.001
 9162WAT     H227729   0.975   9.351   1.842
 9163WAT      O27730   8.279   1.964   9.590
 9163WAT     H127731   8.280   2.021   9.508
 9163WAT     H227732   8.325   1.877   9.571
 9164WAT      O27733   6.136   0.255   9.507
 9164WAT     H127734   6.149   0.157   9.519
 9164WAT     H227735   6.058   0.271   9.446
 9165WAT      O27736   3.797   7.058   7.312
 9165WAT     H127737   3.877   6.999   7.316
 9165WAT     H227738   3.789   7.109   7.398
 9166WAT      O27739   5.482   9.650   3.222
 9166WAT     H127740   5.550   9.722   3.208
 9166WAT     H227741   5.505   9.599   3.305
 9167WAT      O27742   2.666   7.628   5.048
 9167WAT     H127743   2.743   7.629   4.983
 9167WAT     H227744   2.588   7.581   5.007
 9168WAT      O27745   8.710   5.929   0.308
 9168WAT     H127746   8.723   5.844   0.257
 9168WAT     H227747   8.796   5.954   0.354
 9169WAT      O27748   4.802   6.645   0.773
 9169WAT     H127749   4.867   6.716   0.748
 9169WAT     H227750   4.849   6.558   0.784
 9170WAT      O27751   3.327   7.085   3.311
 9170WAT     H127752   3.300   7.130   3.226
 9170WAT     H227753   3.413   7.124   3.343
 9171WAT      O27754   7.785   7.557   1.329
 9171WAT     H127755   7.738   7.578   1.243
 9171WAT     H227756   7.818   7.642   1.370
 9172WAT      O27757   6.677   6.799   5.125
 9172WAT     H127758   6.613   6.785   5.050
 9172WAT     H227759   6.769   6.769   5.098
 9173WAT      O27760   7.828   7.644   3.565
 9173WAT     H127761   7.882   7.634   3.481
 9173WAT     H227762   7.884   7.688   3.635
 9174WAT      O27763   7.747   0.021   7.782
 9174WAT     H127764   7.655   0.061   7.788
 9174WAT     H227765   7.743  -0.076   7.807
 9175WAT      O27766   9.568   7.500   1.472
 9175WAT     H127767   9.644   7.509   1.537
 9175WAT     H227768   9.594   7.541   1.384
 9176WAT      O27769   0.396   5.659   5.434
 9176WAT     H127770   0.333   5.598   5.482
 9176WAT     H227771   0.344   5.729   5.386
 9177WAT      O27772   0.105   9.330   1.863
 9177WAT     H127773   0.177   9.339   1.932
 9177WAT     H227774   0.021   9.298   1.907
 9178WAT      O27775   8.916   1.336   2.734
 9178WAT     H127776   8.889   1.246   2.769
 9178WAT     H227777   8.995   1.369   2.785
 9179WAT      O27778   9.623   4.932   1.186
 9179WAT     H127779   9.612   4.954   1.088
 9179WAT     H227780   9.655   4.838   1.196
 9180WAT      O27781   2.150   3.715   1.517
 9180WAT     H127782   2.070   3.694   1.573
 9180WAT     H227783   2.226   3.655   1.543
 9181WAT      O27784   4.012   4.028   7.431
 9181WAT     H127785   4.039   4.098   7.365
 9181WAT     H227786   3.987   3.945   7.382
 9182WAT      O27787   2.307   9.536   1.780
 9182WAT     H127788   2.293   9.511   1.876
 9182WAT     H227789   2.367   9.616   1.774
 9183WAT      O27790   2.962   5.927   9.456
 9183WAT     H127791   2.864   5.938   9.439
 9183WAT     H227792   2.990   5.990   9.529
 9184WAT      O27793   0.638   3.350   5.435
 9184WAT     H127794   0.560   3.390   5.386
 9184WAT     H227795   0.710   3.418   5.445
 9185WAT      O27796   7.760   7.323   6.650
 9185WAT     H127797   7.691   7.396   6.647
 9185WAT     H227798   7.770   7.284   6.559
 9186WAT      O27799   4.636   5.342   1.130
 9186WAT     H127800   4.575   5.267   1.154
 9186WAT     H227801   4.710   5.348   1.197
 9187WAT      O27802   3.850   2.331   2.514
 9187WAT     H127803   3.751   2.325   2.507
 9187WAT     H227804   3.888   2.366   2.428
 9188WAT      O27805   9.214   6.832   7.372
 9188WAT     H127806   9.165   6.751   7.340
 9188WAT     H227807   9.191   6.849   7.468
 9189WAT      O27808   0.083   5.700   7.692
 9189WAT     H127809   0.069   5.602   7.709
 9189WAT     H227810   0.013   5.752   7.741
 9190WAT      O27811   7.251   5.872   6.177
 9190WAT     H127812   7.210   5.808   6.112
 9190WAT     H227813   7.192   5.881   6.257
 9191WAT      O27814   1.938   8.114   9.723
 9191WAT     H127815   1.989   8.197   9.702
 9191WAT     H227816   1.851   8.115   9.674
 9192WAT      O27817   7.530   5.161   2.536
 9192WAT     H127818   7.628   5.147   2.549
 9192WAT     H227819   7.479   5.089   2.584
 9193WAT      O27820   8.627   1.709   9.639
 9193WAT     H127821   8.634   1.625   9.586
 9193WAT     H227822   8.695   1.709   9.712
 9194WAT      O27823   0.778   2.049   1.482
 9194WAT     H127824   0.822   2.130   1.519
 9194WAT     H227825   0.763   1.983   1.555
 9195WAT      O27826   0.630   6.917   7.880
 9195WAT     H127827   0.556   6.984   7.877
 9195WAT     H227828   0.651   6.896   7.976
 9196WAT      O27829   3.111   1.818   8.379
 9196WAT     H127830   3.048   1.740   8.378
 9196WAT     H227831   3.063   1.899   8.412
 9197WAT      O27832   0.814   1.939   7.941
 9197WAT     H127833   0.847   1.860   7.993
 9197WAT     H227834   0.717   1.925   7.920
 9198WAT      O27835   5.732   8.251   9.697
 9198WAT     H127836   5.649   8.258   9.753
 9198WAT     H227837   5.712   8.285   9.605
 9199WAT      O27838   8.529   7.157   1.975
 9199WAT     H127839   8.465   7.081   1.989
 9199WAT     H227840   8.589   7.136   1.898
 9200WAT      O27841   0.113   0.643   9.410
 9200WAT     H127842   0.194   0.584   9.412
 9200WAT     H227843   0.046   0.606   9.345
 9201WAT      O27844   4.268   4.860   8.349
 9201WAT     H127845   4.191   4.802   8.322
 9201WAT     H227846   4.292   4.841   8.444
 9202WAT      O27847   9.110   8.510   8.368
 9202WAT     H127848   9.102   8.553   8.458
 9202WAT     H227849   9.020   8.504   8.325
 9203WAT      O27850   6.267   2.731   3.525
 9203WAT     H127851   6.344   2.687   3.570
 9203WAT     H227852   6.201   2.762   3.594
 9204WAT      O27853   5.082   9.015   4.295
 9204WAT     H127854   5.112   9.108   4.276
 9204WAT     H227855   4.983   9.014   4.310
 9205WAT      O27856   2.751   2.441   5.346
 9205WAT     H127857   2.758   2.351   5.304
 9205WAT     H227858   2.826   2.499   5.315
 9206WAT      O27859   9.345   7.055   1.380
 9206WAT     H127860   9.310   7.002   1.303
 9206WAT     H227861   9.412   7.121   1.347
 9207WAT      O27862   5.466   8.941   7.277
 9207WAT     H127863   5.565   8.937   7.290
 9207WAT     H227864   5.434   9.035   7.288
 9208WAT      O27865   6.360   4.556   2.551
 9208WAT     H127866   6.355   4.562   2.451
 9208WAT     H227867   6.455   4.569   2.580
 9209WAT      O27868   1.998   6.372   2.613
 9209WAT     H127869   1.948   6.306   2.557
 9209WAT     H227870   1.997   6.341   2.709
 9210WAT      O27871   7.205   5.914   8.486
 9210WAT     H127872   7.164   5.885   8.400
 9210WAT     H227873   7.286   5.859   8.504
 9211WAT      O27874   6.953   3.966   7.888
 9211WAT     H127875   6.959   3.875   7.931
 9211WAT     H227876   6.940   4.035   7.960
 9212WAT      O27877   0.367   9.796   8.096
 9212WAT     H127878   0.461   9.827   8.089
 9212WAT     H227879   0.358   9.735   8.174
 9213WAT      O27880   8.768   2.083   1.090
 9213WAT     H127881   8.778   2.074   1.189
 9213WAT     H227882   8.772   2.180   1.064
 9214WAT      O27883   3.824   5.411   1.203
 9214WAT     H127884   3.906   5.467   1.221
 9214WAT     H227885   3.791   5.430   1.110
 9215WAT      O27886   5.503   3.832   4.172
 9215WAT     H127887   5.561   3.867   4.099
 9215WAT     H227888   5.434   3.771   4.134
 9216WAT      O27889   4.155   1.197   2.008
 9216WAT     H127890   4.238   1.248   2.030
 9216WAT     H227891   4.078   1.234   2.060
 9217WAT      O27892   4.683   4.938   8.738
 9217WAT     H127893   4.777   4.960   8.767
 9217WAT     H227894   4.618   4.989   8.794
 9218WAT      O27895   1.042   1.303   9.773
 9218WAT     H127896   1.071   1.230   9.711
 9218WAT     H227897   1.049   1.391   9.726
 9219WAT      O27898   8.913   5.270   5.192
 9219WAT     H127899   8.989   5.322   5.153
 9219WAT     H227900   8.861   5.328   5.255
 9220WAT      O27901   2.107   4.913   4.767
 9220WAT     H127902   2.114   4.899   4.866
 9220WAT     H227903   2.092   5.010   4.749
 9221WAT      O27904   7.677   0.276   8.516
 9221WAT     H127905   7.736   0.230   8.583
 9221WAT     H227906   7.627   0.350   8.561
 9222WAT      O27907   8.360   8.061   4.844
 9222WAT     H127908   8.320   7.995   4.780
 9222WAT     H227909   8.444   8.022   4.883
 9223WAT      O27910   7.635   8.076   3.164
 9223WAT     H127911   7.612   8.137   3.240
 9223WAT     H227912   7.663   7.987   3.200
 9224WAT      O27913   5.086   2.334   3.257
 9224WAT     H127914   5.097   2.235   3.252
 9224WAT     H227915   5.030   2.365   3.180
 9225WAT      O27916   8.723   0.486   4.313
 9225WAT     H127917   8.633   0.461   4.277
 9225WAT     H227918   8.786   0.503   4.238
 9226WAT      O27919   4.332   3.572   1.193
 9226WAT     H127920   4.360   3.665   1.216
 9226WAT     H227921   4.406   3.525   1.146
 9227WAT      O27922   1.921   3.396   1.390
 9227WAT     H127923   1.972   3.400   1.305
 9227WAT     H227924   1.971   3.341   1.457
 9228WAT      O27925   9.680   3.616   4.315
 9228WAT     H127926   9.775   3.647   4.323
 9228WAT     H227927   9.636   3.620   4.405
 9229WAT      O27928   8.479   8.853   4.955
 9229WAT     H127929   8.416   8.799   4.899
 9229WAT     H227930   8.454   8.949   4.950
 9230WAT      O27931   8.262   0.099   0.583
 9230WAT     H127932   8.295   0.097   0.488
 9230WAT     H227933   8.208   0.182   0.597
 9231WAT      O27934   8.339   7.699   8.616
 9231WAT     H127935   8.285   7.717   8.698
 9231WAT     H227936   8.395   7.618   8.631
 9232WAT      O27937   3.674   9.719   7.169
 9232WAT     H127938   3.760   9.671   7.148
 9232WAT     H227939   3.603   9.652   7.189
 9233WAT      O27940   8.430   2.152   3.633
 9233WAT     H127941   8.448   2.071   3.577
 9233WAT     H227942   8.371   2.128   3.709
 9234WAT      O27943   1.561   0.996   6.311
 9234WAT     H127944   1.545   1.095   6.318
 9234WAT     H227945   1.474   0.950   6.292
 9235WAT      O27946   9.680   2.559   1.467
 9235WAT     H127947   9.672   2.658   1.478
 9235WAT     H227948   9.767   2.528   1.506
 9236WAT      O27949   2.934   1.658   7.213
 9236WAT     H127950   2.885   1.574   7.236
 9236WAT     H227951   2.998   1.639   7.139
 9237WAT      O27952   7.929   4.058   0.613
 9237WAT     H127953   7.903   4.010   0.697
 9237WAT     H227954   7.929   3.993   0.536
 9238WAT      O27955   1.754   0.343   1.515
 9238WAT     H127956   1.789   0.431   1.545
 9238WAT     H227957   1.738   0.284   1.594
 9239WAT      O27958   0.338   9.410   3.490
 9239WAT     H127959   0.328   9.495   3.438
 9239WAT     H227960   0.431   9.376   3.482
 9240WAT      O27961   1.698   4.021   9.586
 9240WAT     H127962   1.761   4.043   9.660
 9240WAT     H227963   1.745   4.031   9.498
 9241WAT      O27964   9.848   3.689   2.710
 9241WAT     H127965   9.784   3.671   2.784
 9241WAT     H227966   9.895   3.604   2.685
 9242WAT      O27967   3.590   3.262   2.180
 9242WAT     H127968   3.499   3.254   2.138
 9242WAT     H227969   3.582   3.306   2.269
 9243WAT      O27970   2.486   3.997   5.487
 9243WAT     H127971   2.497   4.035   5.396
 9243WAT     H227972   2.503   4.068   5.555
 9244WAT      O27973   1.707   7.407   6.595
 9244WAT     H127974   1.624   7.375   6.641
 9244WAT     H227975   1.727   7.348   6.518
 9245WAT      O27976   0.715   5.671   4.423
 9245WAT     H127977   0.801   5.621   4.421
 9245WAT     H227978   0.640   5.610   4.398
 9246WAT      O27979   5.404   3.031   3.039
 9246WAT     H127980   5.353   3.072   3.114
 9246WAT     H227981   5.398   2.931   3.045
 9247WAT      O27982   5.423   3.858   6.551
 9247WAT     H127983   5.394   3.891   6.461
 9247WAT     H227984   5.479   3.928   6.596
 9248WAT      O27985   3.455   3.934   8.529
 9248WAT     H127986   3.509   3.858   8.492
 9248WAT     H227987   3.359   3.922   8.504
 9249WAT      O27988   7.333   3.159   8.325
 9249WAT     H127989   7.428   3.143   8.300
 9249WAT     H227990   7.276   3.082   8.295
 9250WAT      O27991   7.499   3.294   3.245
 9250WAT     H127992   7.443   3.359   3.296
 9250WAT     H227993   7.577   3.265   3.301
 9251WAT      O27994   5.163   1.682   7.963
 9251WAT     H127995   5.127   1.774   7.951
 9251WAT     H227996   5.153   1.654   8.059
 9252WAT      O27997   5.094   3.780   0.961
 9252WAT     H127998   5.128   3.862   0.915
 9252WAT     H227999   5.170   3.732   1.005
 9253WAT      O28000   4.497   0.050   3.959
 9253WAT     H128001   4.513  -0.049   3.951
 9253WAT     H228002   4.409   0.065   4.003
 9254WAT      O28003   3.630   4.957   8.359
 9254WAT     H128004   3.681   5.025   8.306
 9254WAT     H228005   3.614   4.992   8.451
 9255WAT      O28006   4.095   1.409   1.126
 9255WAT     H128007   4.032   1.343   1.167
 9255WAT     H228008   4.157   1.360   1.064
 9256WAT      O28009   8.526   6.396   9.693
 9256WAT     H128010   8.537   6.467   9.763
 9256WAT     H228011   8.531   6.306   9.735
 9257WAT      O28012   6.770   5.713   8.022
 9257WAT     H128013   6.711   5.780   7.977
 9257WAT     H228014   6.866   5.738   8.008
 9258WAT      O28015   3.380   1.166   7.578
 9258WAT     H128016   3.306   1.106   7.608
 9258WAT     H228017   3.364   1.258   7.612
 9259WAT      O28018   8.176   0.234   7.819
 9259WAT     H128019   8.242   0.284   7.875
 9259WAT     H228020   8.173   0.275   7.728
 9260WAT      O28021   7.303   6.075   9.250
 9260WAT     H128022   7.310   6.170   9.279
 9260WAT     H228023   7.331   6.067   9.155
 9261WAT      O28024   3.881   2.427   7.286
 9261WAT     H128025   3.796   2.376   7.297
 9261WAT     H228026   3.908   2.466   7.375
 9262WAT      O28027   4.344   4.211   5.060
 9262WAT     H128028   4.373   4.145   5.129
 9262WAT     H228029   4.292   4.285   5.103
 9263WAT      O28030   8.230   5.213   4.520
 9263WAT     H128031   8.145   5.264   4.528
 9263WAT     H228032   8.293   5.240   4.593
 9264WAT      O28033   3.467   9.670   5.894
 9264WAT     H128034   3.480   9.679   5.796
 9264WAT     H228035   3.556   9.654   5.938
 9265WAT      O28036   2.052   3.630   5.541
 9265WAT     H128037   2.103   3.634   5.627
 9265WAT     H228038   1.957   3.607   5.561
 9266WAT      O28039   8.960   3.251   0.159
 9266WAT     H128040   9.022   3.173   0.166
 9266WAT     H228041   8.925   3.275   0.250
 9267WAT      O28042   7.299   2.975   1.579
 9267WAT     H128043   7.365   2.922   1.525
 9267WAT     H228044   7.216   2.921   1.590
 9268WAT      O28045   2.483   3.701   6.576
 9268WAT     H128046   2.393   3.740   6.558
 9268WAT     H228047   2.554   3.769   6.559
 9269WAT      O28048   9.411   2.792   9.746
 9269WAT     H128049   9.444   2.747   9.663
 9269WAT     H228050   9.422   2.891   9.737
 9270WAT      O28051   8.719   8.051   8.063
 9270WAT     H128052   8.816   8.059   8.082
 9270WAT     H228053   8.680   8.142   8.047
 9271WAT      O28054   5.416   5.419   4.259
 9271WAT     H128055   5.401   5.483   4.334
 9271WAT     H228056   5.479   5.460   4.193
 9272WAT      O28057   6.513   6.429   7.816
 9272WAT     H128058   6.594   6.460   7.865
 9272WAT     H228059   6.460   6.508   7.785
 9273WAT      O28060   6.576   9.209   4.087
 9273WAT     H128061   6.603   9.130   4.033
 9273WAT     H228062   6.504   9.182   4.152
 9274WAT      O28063   8.184   9.418   4.227
 9274WAT     H128064   8.093   9.459   4.226
 9274WAT     H228065   8.176   9.319   4.211
 9275WAT      O28066   2.506   0.849   5.847
 9275WAT     H128067   2.498   0.762   5.896
 9275WAT     H228068   2.445   0.916   5.888
 9276WAT      O28069   2.193   0.029   4.076
 9276WAT     H128070   2.248  -0.046   4.113
 9276WAT     H228071   2.207   0.035   3.977
 9277WAT      O28072   2.746   9.058   7.128
 9277WAT     H128073   2.747   9.136   7.065
 9277WAT     H228074   2.821   9.068   7.194
 9278WAT      O28075   9.336   8.749   6.615
 9278WAT     H128076   9.276   8.795   6.680
 9278WAT     H228077   9.310   8.775   6.522
 9279WAT      O28078   9.009   0.059   0.688
 9279WAT     H128079   9.030   0.140   0.633
 9279WAT     H228080   8.940   0.082   0.757
 9280WAT      O28081   1.706   2.195   9.362
 9280WAT     H128082   1.662   2.281   9.388
 9280WAT     H228083   1.745   2.205   9.270
 9281WAT      O28084   7.506   3.029   7.136
 9281WAT     H128085   7.497   3.062   7.042
 9281WAT     H228086   7.572   3.085   7.185
 9282WAT      O28087   4.351   3.631   4.654
 9282WAT     H128088   4.409   3.701   4.611
 9282WAT     H228089   4.321   3.566   4.584
 9283WAT      O28090   4.759   9.072   9.656
 9283WAT     H128091   4.773   9.044   9.561
 9283WAT     H228092   4.811   9.013   9.716
 9284WAT      O28093   9.108   9.169   6.449
 9284WAT     H128094   9.152   9.118   6.524
 9284WAT     H228095   9.167   9.244   6.420
 9285WAT      O28096   3.895   6.960   2.046
 9285WAT     H128097   3.857   6.910   1.969
 9285WAT     H228098   3.949   6.899   2.103
 9286WAT      O28099   9.832   8.145   4.476
 9286WAT     H128100   9.829   8.046   4.495
 9286WAT     H228101   9.762   8.191   4.529
 9287WAT      O28102   4.197   9.035   6.893
 9287WAT     H128103   4.111   9.055   6.940
 9287WAT     H228104   4.180   9.023   6.795
 9288WAT      O28105   8.130   0.465   0.198
 9288WAT     H128106   8.058   0.530   0.221
 9288WAT     H228107   8.190   0.452   0.277
 9289WAT      O28108   6.280   6.610   3.191
 9289WAT     H128109   6.318   6.701   3.180
 9289WAT     H228110   6.354   6.544   3.202
 9290WAT      O28111   1.636   8.665   9.670
 9290WAT     H128112   1.650   8.735   9.740
 9290WAT     H228113   1.593   8.585   9.711
 9291WAT      O28114   2.294   1.482   0.066
 9291WAT     H128115   2.378   1.536   0.067
 9291WAT     H228116   2.276   1.449  -0.026
 9292WAT      O28117   7.567   5.806   7.488
 9292WAT     H128118   7.600   5.712   7.476
 9292WAT     H228119   7.564   5.828   7.585
 9293WAT      O28120   9.454   0.412   1.834
 9293WAT     H128121   9.355   0.420   1.837
 9293WAT     H228122   9.492   0.492   1.786
 9294WAT      O28123   4.039   9.820   8.785
 9294WAT     H128124   4.067   9.889   8.719
 9294WAT     H228125   4.067   9.730   8.754
 9295WAT      O28126   8.652   2.544   0.943
 9295WAT     H128127   8.728   2.606   0.924
 9295WAT     H228128   8.673   2.489   1.024
 9296WAT      O28129   2.550   1.159   8.159
 9296WAT     H128130   2.640   1.151   8.202
 9296WAT     H228131   2.496   1.228   8.209
 9297WAT      O28132   0.083   4.865   7.774
 9297WAT     H128133   0.149   4.940   7.773
 9297WAT     H228134   0.129   4.782   7.806
 9298WAT      O28135   6.207   6.245   5.674
 9298WAT     H128136   6.278   6.224   5.741
 9298WAT     H228137   6.248   6.249   5.583
 9299WAT      O28138   0.456   8.312   6.782
 9299WAT     H128139   0.358   8.309   6.759
 9299WAT     H228140   0.467   8.339   6.877
 9300WAT      O28141   3.877   2.261   0.514
 9300WAT     H128142   3.842   2.354   0.512
 9300WAT     H228143   3.800   2.196   0.512
 9301WAT      O28144   0.692   7.783   0.705
 9301WAT     H128145   0.760   7.798   0.777
 9301WAT     H228146   0.631   7.862   0.698
 9302WAT      O28147   2.970   0.695   6.804
 9302WAT     H128148   2.972   0.618   6.868
 9302WAT     H228149   2.953   0.779   6.855
 9303WAT      O28150   6.831   7.626   8.306
 9303WAT     H128151   6.795   7.718   8.320
 9303WAT     H228152   6.768   7.574   8.248
 9304WAT      O28153   1.795   9.788   8.679
 9304WAT     H128154   1.826   9.759   8.588
 9304WAT     H228155   1.823   9.720   8.747
 9305WAT      O28156   8.737   8.316   0.266
 9305WAT     H128157   8.653   8.270   0.236
 9305WAT     H228158   8.798   8.330   0.188
 9306WAT      O28159   1.600   9.132   1.660
 9306WAT     H128160   1.547   9.050   1.637
 9306WAT     H228161   1.667   9.150   1.587
 9307WAT      O28162   4.446   2.376   2.437
 9307WAT     H128163   4.525   2.327   2.398
 9307WAT     H228164   4.362   2.334   2.403
 9308WAT      O28165   1.285   2.119   4.062
 9308WAT     H128166   1.330   2.193   4.013
 9308WAT     H228167   1.205   2.088   4.011
 9309WAT      O28168   0.906   4.614   3.935
 9309WAT     H128169   0.931   4.520   3.957
 9309WAT     H228170   0.900   4.625   3.836
 9310WAT      O28171   0.602   8.302   3.342
 9310WAT     H128172   0.556   8.264   3.262
 9310WAT     H228173   0.673   8.239   3.372
 9311WAT      O28174   7.593   8.825   7.000
 9311WAT     H128175   7.513   8.869   6.960
 9311WAT     H228176   7.573   8.797   7.094
 9312WAT      O28177   4.387   9.344   3.956
 9312WAT     H128178   4.380   9.352   4.055
 9312WAT     H228179   4.382   9.247   3.930
 9313WAT      O28180   1.765   0.983   2.834
 9313WAT     H128181   1.814   0.926   2.899
 9313WAT     H228182   1.674   1.003   2.869
 9314WAT      O28183   8.339   3.627   6.993
 9314WAT     H128184   8.268   3.570   7.034
 9314WAT     H228185   8.341   3.613   6.894
 9315WAT      O28186   3.611   0.583   9.851
 9315WAT     H128187   3.543   0.653   9.828
 9315WAT     H228188   3.651   0.603   9.940
 9316WAT      O28189   1.105   4.025   2.070
 9316WAT     H128190   1.195   3.990   2.043
 9316WAT     H228191   1.102   4.123   2.055
 9317WAT      O28192   1.163   0.974   6.222
 9317WAT     H128193   1.186   0.880   6.245
 9317WAT     H228194   1.068   0.992   6.247
 9318WAT      O28195   0.419   3.681   6.357
 9318WAT     H128196   0.501   3.626   6.373
 9318WAT     H228197   0.345   3.648   6.417
 9319WAT      O28198   8.748   2.426   4.255
 9319WAT     H128199   8.796   2.499   4.207
 9319WAT     H228200   8.786   2.416   4.347
 9320WAT      O28201   1.212   1.863   5.466
 9320WAT     H128202   1.170   1.839   5.379
 9320WAT     H228203   1.145   1.911   5.523
 9321WAT      O28204   5.967   1.152   7.589
 9321WAT     H128205   5.978   1.246   7.556
 9321WAT     H228206   6.050   1.100   7.568
 9322WAT      O28207   5.107   8.503   9.836
 9322WAT     H128208   5.077   8.595   9.811
 9322WAT     H228209   5.173   8.510   9.911
 9323WAT      O28210   4.871   5.936   6.189
 9323WAT     H128211   4.898   5.875   6.264
 9323WAT     H228212   4.881   5.888   6.102
 9324WAT      O28213   3.905   8.119   3.995
 9324WAT     H128214   3.854   8.203   3.979
 9324WAT     H228215   3.846   8.040   3.976
 9325WAT      O28216   7.650   6.197   9.421
 9325WAT     H128217   7.727   6.257   9.444
 9325WAT     H228218   7.683   6.104   9.407
 9326WAT      O28219   4.701   4.418   2.807
 9326WAT     H128220   4.790   4.462   2.822
 9326WAT     H228221   4.697   4.333   2.859
 9327WAT      O28222   9.106   4.448   5.117
 9327WAT     H128223   9.092   4.353   5.089
 9327WAT     H228224   9.017   4.492   5.129
 9328WAT      O28225   2.806   7.438   2.647
 9328WAT     H128226   2.897   7.401   2.628
 9328WAT     H228227   2.737   7.380   2.604
 9329WAT      O28228   5.662   5.992   2.171
 9329WAT     H128229   5.739   6.034   2.219
 9329WAT     H228230   5.576   6.020   2.214
 9330WAT      O28231   5.952   5.126   8.562
 9330WAT     H128232   5.868   5.134   8.616
 9330WAT     H228233   5.970   5.214   8.517
 9331WAT      O28234   1.920   4.859   0.780
 9331WAT     H128235   1.841   4.807   0.811
 9331WAT     H228236   1.897   4.956   0.773
 9332WAT      O28237   2.998   2.158   6.957
 9332WAT     H128238   3.090   2.148   6.994
 9332WAT     H228239   3.000   2.216   6.876
 9333WAT      O28240   2.205   8.364   6.773
 9333WAT     H128241   2.120   8.323   6.805
 9333WAT     H228242   2.252   8.408   6.850
 9334WAT      O28243   8.956   7.179   9.117
 9334WAT     H128244   8.918   7.270   9.128
 9334WAT     H228245   9.040   7.184   9.063
 9335WAT      O28246   8.405   4.515   8.651
 9335WAT     H128247   8.460   4.595   8.629
 9335WAT     H228248   8.370   4.522   8.745
 9336WAT      O28249   6.444   3.367   5.773
 9336WAT     H128250   6.405   3.349   5.683
 9336WAT     H228251   6.383   3.330   5.844
 9337WAT      O28252   6.572   9.357   0.864
 9337WAT     H128253   6.622   9.413   0.930
 9337WAT     H228254   6.498   9.411   0.825
 9338WAT      O28255   2.344   8.282   3.423
 9338WAT     H128256   2.247   8.260   3.437
 9338WAT     H228257   2.400   8.214   3.470
 9339WAT      O28258   3.813   0.306   8.378
 9339WAT     H128259   3.853   0.263   8.296
 9339WAT     H228260   3.850   0.398   8.388
 9340WAT      O28261   5.830   2.484   2.790
 9340WAT     H128262   5.785   2.423   2.855
 9340WAT     H228263   5.836   2.438   2.701
 9341WAT      O28264   7.526   1.760   5.447
 9341WAT     H128265   7.464   1.693   5.407
 9341WAT     H228266   7.499   1.778   5.542
 9342WAT      O28267   2.565   2.572   6.086
 9342WAT     H128268   2.557   2.663   6.126
 9342WAT     H228269   2.656   2.561   6.045
 9343WAT      O28270   3.043   0.938   1.047
 9343WAT     H128271   3.092   0.881   1.113
 9343WAT     H228272   3.108   0.988   0.990
 9344WAT      O28273   6.401   6.976   8.300
 9344WAT     H128274   6.339   6.938   8.231
 9344WAT     H228275   6.456   6.902   8.339
 9345WAT      O28276   8.348   2.268   5.924
 9345WAT     H128277   8.367   2.366   5.927
 9345WAT     H228278   8.305   2.240   6.010
 9346WAT      O28279   1.017   5.153   1.177
 9346WAT     H128280   1.039   5.244   1.142
 9346WAT     H228281   0.925   5.153   1.216
 9347WAT      O28282   3.037   0.851   5.051
 9347WAT     H128283   3.114   0.883   5.107
 9347WAT     H228284   3.071   0.788   4.981
 9348WAT      O28285   8.531   5.225   0.490
 9348WAT     H128286   8.479   5.197   0.571
 9348WAT     H228287   8.537   5.325   0.488
 9349WAT      O28288   1.810   4.525   0.626
 9349WAT     H128289   1.905   4.510   0.599
 9349WAT     H228290   1.807   4.596   0.697
 9350WAT      O28291   5.897   1.267   3.499
 9350WAT     H128292   5.842   1.247   3.580
 9350WAT     H228293   5.959   1.343   3.519
 9351WAT      O28294   4.823   5.219   3.682
 9351WAT     H128295   4.823   5.151   3.755
 9351WAT     H228296   4.918   5.242   3.658
 9352WAT      O28297   2.023   9.319   2.518
 9352WAT     H128298   2.059   9.412   2.512
 9352WAT     H228299   1.940   9.318   2.573
 9353WAT      O28300   2.153   3.718   3.654
 9353WAT     H128301   2.107   3.799   3.689
 9353WAT     H228302   2.097   3.637   3.672
 9354WAT      O28303   8.099   8.288   7.435
 9354WAT     H128304   8.045   8.338   7.367
 9354WAT     H228305   8.037   8.251   7.504
 9355WAT      O28306   3.316   6.791   3.908
 9355WAT     H128307   3.362   6.855   3.846
 9355WAT     H228308   3.382   6.724   3.941
 9356WAT      O28309   3.475   1.506   5.694
 9356WAT     H128310   3.510   1.553   5.612
 9356WAT     H228311   3.389   1.461   5.671
 9357WAT      O28312   3.245   2.149   7.101
 9357WAT     H128313   3.337   2.186   7.090
 9357WAT     H228314   3.250   2.056   7.138
 9358WAT      O28315   9.425   9.670   1.186
 9358WAT     H128316   9.385   9.669   1.278
 9358WAT     H228317   9.440   9.576   1.156
 9359WAT      O28318   0.446   1.610   7.256
 9359WAT     H128319   0.360   1.643   7.294
 9359WAT     H228320   0.520   1.627   7.322
 9360WAT      O28321   2.971   1.405   6.036
 9360WAT     H128322   2.930   1.359   6.115
 9360WAT     H228323   2.988   1.501   6.058
 9361WAT      O28324   8.406   0.785   3.134
 9361WAT     H128325   8.443   0.692   3.142
 9361WAT     H228326   8.433   0.838   3.215
 9362WAT      O28327   6.414   3.702   5.426
 9362WAT     H128328   6.363   3.787   5.410
 9362WAT     H228329   6.384   3.632   5.360
 9363WAT      O28330   2.153   4.397   3.013
 9363WAT     H128331   2.109   4.323   2.961
 9363WAT     H228332   2.213   4.449   2.952
 9364WAT      O28333   0.442   8.027   0.494
 9364WAT     H128334   0.473   7.990   0.407
 9364WAT     H228335   0.373   8.098   0.477
 9365WAT      O28336   2.967   0.316   7.100
 9365WAT     H128337   2.961   0.384   7.173
 9365WAT     H228338   2.880   0.267   7.092
 9366WAT      O28339   1.664   4.613   8.139
 9366WAT     H128340   1.633   4.611   8.044
 9366WAT     H228341   1.742   4.553   8.150
 9367WAT      O28342   5.459   3.827   7.154
 9367WAT     H128343   5.553   3.847   7.126
 9367WAT     H228344   5.449   3.843   7.252
 9368WAT      O28345   9.119   9.318   7.304
 9368WAT     H128346   9.080   9.410   7.312
 9368WAT     H228347   9.063   9.264   7.241
 9369WAT      O28348   6.925   3.388   5.933
 9369WAT     H128349   6.978   3.305   5.914
 9369WAT     H228350   6.830   3.363   5.950
 9370WAT      O28351   0.952   4.917   0.501
 9370WAT     H128352   0.878   4.984   0.506
 9370WAT     H228353   1.000   4.913   0.589
 9371WAT      O28354   2.312   1.131   6.631
 9371WAT     H128355   2.319   1.054   6.694
 9371WAT     H228356   2.389   1.130   6.568
 9372WAT      O28357   8.124   5.160   9.627
 9372WAT     H128358   8.042   5.106   9.643
 9372WAT     H228359   8.103   5.257   9.641
 9373WAT      O28360   4.927   5.225   9.139
 9373WAT     H128361   4.849   5.248   9.196
 9373WAT     H228362   4.996   5.177   9.193
 9374WAT      O28363   9.334   0.047   1.781
 9374WAT     H128364   9.286  -0.039   1.764
 9374WAT     H228365   9.400   0.035   1.855
 9375WAT      O28366   7.869   0.405   2.707
 9375WAT     H128367   7.919   0.480   2.749
 9375WAT     H228368   7.790   0.381   2.764
 9376WAT      O28369   5.395   3.450   5.459
 9376WAT     H128370   5.414   3.354   5.481
 9376WAT     H228371   5.296   3.466   5.460
 9377WAT      O28372   6.588   1.958   2.364
 9377WAT     H128373   6.662   1.901   2.329
 9377WAT     H228374   6.501   1.909   2.357
 9378WAT      O28375   0.747   3.357   1.725
 9378WAT     H128376   0.735   3.367   1.626
 9378WAT     H228377   0.807   3.429   1.759
 9379WAT      O28378   1.350   5.717   9.063
 9379WAT     H128379   1.286   5.678   9.130
 9379WAT     H228380   1.444   5.698   9.092
 9380WAT      O28381   7.107   8.469   1.198
 9380WAT     H128382   7.017   8.431   1.218
 9380WAT     H228383   7.097   8.548   1.137
 9381WAT      O28384   0.849   1.975   6.129
 9381WAT     H128385   0.837   1.923   6.044
 9381WAT     H228386   0.795   2.059   6.124
 9382WAT      O28387   4.345   1.367   3.277
 9382WAT     H128388   4.436   1.332   3.299
 9382WAT     H228389   4.299   1.397   3.361
 9383WAT      O28390   3.653   3.476   6.451
 9383WAT     H128391   3.671   3.570   6.480
 9383WAT     H228392   3.556   3.457   6.460
 9384WAT      O28393   0.247   7.917   4.701
 9384WAT     H128394   0.201   7.954   4.782
 9384WAT     H228395   0.232   7.976   4.623
 9385WAT      O28396   7.398   0.180   2.132
 9385WAT     H128397   7.430   0.228   2.051
 9385WAT     H228398   7.304   0.208   2.153
 9386WAT      O28399   6.171   8.448   6.638
 9386WAT     H128400   6.203   8.358   6.607
 9386WAT     H228401   6.120   8.492   6.564
 9387WAT      O28402   8.014   0.918   2.762
 9387WAT     H128403   7.938   0.982   2.753
 9387WAT     H228404   8.059   0.932   2.851
 9388WAT      O28405   8.916   2.194   0.499
 9388WAT     H128406   8.943   2.117   0.556
 9388WAT     H228407   8.826   2.227   0.528
 9389WAT      O28408   5.361   5.776   7.742
 9389WAT     H128409   5.437   5.759   7.680
 9389WAT     H228410   5.362   5.871   7.771
 9390WAT      O28411   6.794   8.244   3.752
 9390WAT     H128412   6.714   8.238   3.693
 9390WAT     H228413   6.766   8.264   3.846
 9391WAT      O28414   1.524   9.377   4.785
 9391WAT     H128415   1.499   9.296   4.732
 9391WAT     H228416   1.556   9.349   4.876
 9392WAT      O28417   5.547   9.823   9.570
 9392WAT     H128418   5.468   9.817   9.632
 9392WAT     H228419   5.618   9.879   9.611
 9393WAT      O28420   3.935   1.520   7.496
 9393WAT     H128421   3.972   1.449   7.436
 9393WAT     H228422   4.001   1.541   7.568
 9394WAT      O28423   2.400   3.598   3.630
 9394WAT     H128424   2.483   3.653   3.624
 9394WAT     H228425   2.322   3.657   3.648
 9395WAT      O28426   6.482   3.902   1.303
 9395WAT     H128427   6.421   3.894   1.381
 9395WAT     H228428   6.543   3.823   1.298
 9396WAT      O28429   9.102   3.447   6.063
 9396WAT     H128430   9.032   3.418   5.998
 9396WAT     H228431   9.144   3.532   6.030
 9397WAT      O28432   3.714   3.239   5.884
 9397WAT     H128433   3.807   3.204   5.897
 9397WAT     H228434   3.648   3.173   5.921
 9398WAT      O28435   3.201   2.228   2.881
 9398WAT     H128436   3.126   2.256   2.941
 9398WAT     H228437   3.288   2.249   2.925
 9399WAT      O28438   3.414   5.236   1.116
 9399WAT     H128439   3.376   5.328   1.116
 9399WAT     H228440   3.399   5.193   1.205
 9400WAT      O28441   4.713   9.758   0.977
 9400WAT     H128442   4.700   9.714   1.066
 9400WAT     H228443   4.678   9.698   0.905
 9401WAT      O28444   0.128   5.008   2.339
 9401WAT     H128445   0.046   5.065   2.339
 9401WAT     H228446   0.121   4.940   2.266
 9402WAT      O28447   1.173   5.517   7.192
 9402WAT     H128448   1.084   5.519   7.238
 9402WAT     H228449   1.198   5.611   7.166
 9403WAT      O28450   2.979   1.169   4.662
 9403WAT     H128451   3.009   1.074   4.657
 9403WAT     H228452   2.952   1.200   4.571
 9404WAT      O28453   9.064   1.573   2.219
 9404WAT     H128454   8.977   1.622   2.210
 9404WAT     H228455   9.054   1.500   2.286
 9405WAT      O28456   9.845   6.467   8.110
 9405WAT     H128457   9.943   6.466   8.128
 9405WAT     H228458   9.823   6.398   8.042
 9406WAT      O28459   1.316   0.253   1.396
 9406WAT     H128460   1.392   0.256   1.331
 9406WAT     H228461   1.257   0.176   1.375
 9407WAT      O28462   5.901   7.331   5.425
 9407WAT     H128463   5.853   7.379   5.499
 9407WAT     H228464   5.945   7.397   5.365
 9408WAT      O28465   2.348   8.695   0.058
 9408WAT     H128466   2.447   8.681   0.053
 9408WAT     H228467   2.328   8.766   0.125
 9409WAT      O28468   0.843   2.105   1.959
 9409WAT     H128469   0.756   2.075   1.920
 9409WAT     H228470   0.835   2.201   1.988
 9410WAT      O28471   0.324   0.600   9.060
 9410WAT     H128472   0.350   0.563   8.970
 9410WAT     H228473   0.227   0.581   9.076
 9411WAT      O28474   2.821   6.079   5.716
 9411WAT     H128475   2.768   5.994   5.705
 9411WAT     H228476   2.760   6.152   5.745
 9412WAT      O28477   9.610   5.792   3.564
 9412WAT     H128478   9.608   5.698   3.596
 9412WAT     H228479   9.695   5.809   3.514
 9413WAT      O28480   1.901   6.583   4.406
 9413WAT     H128481   1.992   6.548   4.388
 9413WAT     H228482   1.904   6.650   4.481
 9414WAT      O28483   7.362   4.715   5.064
 9414WAT     H128484   7.358   4.772   4.982
 9414WAT     H228485   7.414   4.631   5.044
 9415WAT      O28486   7.417   4.270   5.684
 9415WAT     H128487   7.493   4.331   5.705
 9415WAT     H228488   7.422   4.242   5.588
 9416WAT      O28489   2.919   9.509   7.692
 9416WAT     H128490   2.876   9.457   7.617
 9416WAT     H228491   2.941   9.601   7.660
 9417WAT      O28492   3.334   4.940   0.411
 9417WAT     H128493   3.282   5.018   0.375
 9417WAT     H228494   3.307   4.857   0.363
 9418WAT      O28495   9.279   1.459   6.277
 9418WAT     H128496   9.280   1.510   6.192
 9418WAT     H228497   9.340   1.380   6.270
 9419WAT      O28498   6.627   7.527   2.213
 9419WAT     H128499   6.539   7.551   2.253
 9419WAT     H228500   6.697   7.523   2.284
 9420WAT      O28501   0.306   5.547   4.217
 9420WAT     H128502   0.322   5.451   4.194
 9420WAT     H228503   0.219   5.576   4.180
 9421WAT      O28504   5.324   4.759   0.436
 9421WAT     H128505   5.237   4.781   0.479
 9421WAT     H228506   5.328   4.799   0.345
 9422WAT      O28507   2.599   8.876   8.999
 9422WAT     H128508   2.661   8.797   9.001
 9422WAT     H228509   2.615   8.933   9.080
 9423WAT      O28510   0.684   5.973   1.689
 9423WAT     H128511   0.693   5.935   1.597
 9423WAT     H228512   0.768   6.022   1.714
 9424WAT      O28513   9.255   9.555   8.592
 9424WAT     H128514   9.215   9.605   8.515
 9424WAT     H228515   9.264   9.615   8.671
 9425WAT      O28516   0.047   2.355   0.609
 9425WAT     H128517  -0.007   2.278   0.575
 9425WAT     H228518   0.092   2.329   0.695
 9426WAT      O28519   6.943   4.307   8.639
 9426WAT     H128520   6.891   4.241   8.584
 9426WAT     H228521   7.039   4.280   8.640
 9427WAT      O28522   7.619   8.803   7.626
 9427WAT     H128523   7.571   8.716   7.629
 9427WAT     H228524   7.577   8.867   7.691
 9428WAT      O28525   3.694   5.092   0.770
 9428WAT     H128526   3.723   5.074   0.864
 9428WAT     H228527   3.774   5.096   0.710
 9429WAT      O28528   7.417   5.056   1.822
 9429WAT     H128529   7.467   4.979   1.862
 9429WAT     H228530   7.371   5.025   1.739
 9430WAT      O28531   3.457   6.940   6.085
 9430WAT     H128532   3.498   6.859   6.127
 9430WAT     H228533   3.377   6.968   6.138
 9431WAT      O28534   9.646   5.960   4.051
 9431WAT     H128535   9.730   5.909   4.071
 9431WAT     H228536   9.659   6.056   4.078
 9432WAT      O28537   3.129   8.661   6.782
 9432WAT     H128538   3.217   8.709   6.775
 9432WAT     H228539   3.058   8.727   6.808
 9433WAT      O28540   5.231   8.980   4.516
 9433WAT     H128541   5.280   9.068   4.518
 9433WAT     H228542   5.164   8.981   4.443
 9434WAT      O28543   3.508   7.081   7.206
 9434WAT     H128544   3.567   7.056   7.283
 9434WAT     H228545   3.486   6.999   7.153
 9435WAT      O28546   1.593   4.134   7.149
 9435WAT     H128547   1.534   4.213   7.128
 9435WAT     H228548   1.594   4.073   7.070
 9436WAT      O28549   4.177   7.099   7.078
 9436WAT     H128550   4.210   7.181   7.124
 9436WAT     H228551   4.104   7.122   7.014
 9437WAT      O28552   7.423   3.356   8.832
 9437WAT     H128553   7.447   3.339   8.927
 9437WAT     H228554   7.469   3.440   8.800
 9438WAT      O28555   4.233   1.490   6.817
 9438WAT     H128556   4.275   1.494   6.727
 9438WAT     H228557   4.279   1.420   6.872
 9439WAT      O28558   6.766   5.421   9.573
 9439WAT     H128559   6.760   5.503   9.631
 9439WAT     H228560   6.844   5.430   9.511
 9440WAT      O28561   5.664   9.841   3.722
 9440WAT     H128562   5.671   9.759   3.664
 9440WAT     H228563   5.750   9.891   3.719
 9441WAT      O28564   4.609   7.136   1.962
 9441WAT     H128565   4.585   7.052   1.913
 9441WAT     H228566   4.638   7.206   1.896
 9442WAT      O28567   8.300   3.369   9.388
 9442WAT     H128568   8.381   3.395   9.335
 9442WAT     H228569   8.221   3.361   9.328
 9443WAT      O28570   7.548   2.388   9.669
 9443WAT     H128571   7.597   2.398   9.582
 9443WAT     H228572   7.611   2.356   9.739
 9444WAT      O28573   3.862   2.193   8.605
 9444WAT     H128574   3.915   2.112   8.579
 9444WAT     H228575   3.845   2.192   8.703
 9445WAT      O28576   9.027   0.616   4.707
 9445WAT     H128577   8.994   0.672   4.630
 9445WAT     H228578   9.005   0.520   4.690
 9446WAT      O28579   5.310   9.148   3.601
 9446WAT     H128580   5.379   9.158   3.529
 9446WAT     H228581   5.222   9.182   3.567
 9447WAT      O28582   2.302   0.423   1.947
 9447WAT     H128583   2.269   0.402   2.039
 9447WAT     H228584   2.392   0.466   1.953
 9448WAT      O28585   2.949   6.323   3.208
 9448WAT     H128586   2.852   6.343   3.216
 9448WAT     H228587   3.001   6.409   3.209
 9449WAT      O28588   4.074   3.666   9.224
 9449WAT     H128589   4.049   3.691   9.130
 9449WAT     H228590   4.025   3.583   9.250
 9450WAT      O28591   0.951   2.668   8.326
 9450WAT     H128592   0.886   2.639   8.397
 9450WAT     H228593   0.905   2.671   8.238
 9451WAT      O28594   0.963   3.677   8.935
 9451WAT     H128595   0.873   3.635   8.918
 9451WAT     H228596   1.035   3.610   8.913
 9452WAT      O28597   2.042   2.318   7.801
 9452WAT     H128598   1.984   2.280   7.729
 9452WAT     H228599   2.138   2.298   7.780
 9453WAT      O28600   2.526   4.120   4.763
 9453WAT     H128601   2.574   4.141   4.848
 9453WAT     H228602   2.592   4.093   4.693
 9454WAT      O28603   8.793   9.653   8.092
 9454WAT     H128604   8.695   9.654   8.073
 9454WAT     H228605   8.810   9.615   8.183
 9455WAT      O28606   7.923   2.542   4.162
 9455WAT     H128607   7.887   2.462   4.115
 9455WAT     H228608   7.849   2.608   4.177
 9456WAT      O28609   8.984   5.946   6.615
 9456WAT     H128610   9.042   5.989   6.546
 9456WAT     H228611   9.028   5.863   6.648
 9457WAT      O28612   4.053   1.242   3.617
 9457WAT     H128613   4.119   1.222   3.689
 9457WAT     H228614   4.025   1.158   3.572
 9458WAT      O28615   7.962   6.420   1.741
 9458WAT     H128616   8.005   6.409   1.831
 9458WAT     H228617   7.864   6.403   1.749
 9459WAT      O28618   5.856   8.796   1.559
 9459WAT     H128619   5.924   8.816   1.488
 9459WAT     H228620   5.897   8.812   1.649
 9460WAT      O28621   2.190   5.270   3.079
 9460WAT     H128622   2.252   5.234   3.148
 9460WAT     H228623   2.239   5.283   2.992
 9461WAT      O28624   1.539   6.864   7.782
 9461WAT     H128625   1.501   6.791   7.725
 9461WAT     H228626   1.489   6.867   7.868
 9462WAT      O28627   8.302   5.492   5.913
 9462WAT     H128628   8.395   5.519   5.890
 9462WAT     H228629   8.303   5.436   5.996
 9463WAT      O28630   4.763   4.032   4.269
 9463WAT     H128631   4.849   4.053   4.221
 9463WAT     H228632   4.707   4.114   4.274
 9464WAT      O28633   0.460   9.653   1.746
 9464WAT     H128634   0.486   9.749   1.755
 9464WAT     H228635   0.463   9.627   1.649
 9465WAT      O28636   5.710   6.179   2.535
 9465WAT     H128637   5.675   6.254   2.478
 9465WAT     H228638   5.634   6.121   2.563
 9466WAT      O28639   7.057   8.701   0.287
 9466WAT     H128640   7.039   8.605   0.266
 9466WAT     H228641   7.156   8.717   0.286
 9467WAT      O28642   7.253   2.458   2.946
 9467WAT     H128643   7.246   2.358   2.938
 9467WAT     H228644   7.344   2.487   2.916
 9468WAT      O28645   6.143   1.524   6.087
 9468WAT     H128646   6.203   1.447   6.107
 9468WAT     H228647   6.062   1.521   6.146
 9469WAT      O28648   9.069   7.134   9.665
 9469WAT     H128649   9.090   7.230   9.683
 9469WAT     H228650   9.009   7.128   9.585
 9470WAT      O28651   5.182   1.458   1.233
 9470WAT     H128652   5.231   1.419   1.312
 9470WAT     H228653   5.190   1.558   1.236
 9471WAT      O28654   2.733   1.310   4.240
 9471WAT     H128655   2.782   1.276   4.160
 9471WAT     H228656   2.714   1.408   4.228
 9472WAT      O28657   2.139   7.237   2.312
 9472WAT     H128658   2.123   7.177   2.390
 9472WAT     H228659   2.237   7.237   2.289
 9473WAT      O28660   2.907   9.458   0.562
 9473WAT     H128661   2.877   9.410   0.480
 9473WAT     H228662   2.871   9.551   0.562
 9474WAT      O28663   0.079   4.080   5.150
 9474WAT     H128664   0.143   4.157   5.152
 9474WAT     H228665  -0.014   4.114   5.169
 9475WAT      O28666   8.638   8.295   7.961
 9475WAT     H128667   8.606   8.279   7.867
 9475WAT     H228668   8.674   8.388   7.968
 9476WAT      O28669   3.810   1.083   4.379
 9476WAT     H128670   3.888   1.049   4.326
 9476WAT     H228671   3.836   1.088   4.476
 9477WAT      O28672   1.340   3.831   8.146
 9477WAT     H128673   1.373   3.826   8.240
 9477WAT     H228674   1.240   3.831   8.147
 9478WAT      O28675   0.468   7.313   1.469
 9478WAT     H128676   0.520   7.275   1.393
 9478WAT     H228677   0.486   7.411   1.476
 9479WAT      O28678   3.963   4.226   3.667
 9479WAT     H128679   3.957   4.221   3.767
 9479WAT     H228680   4.027   4.298   3.641
 9480WAT      O28681   2.023   2.242   3.369
 9480WAT     H128682   1.925   2.241   3.351
 9480WAT     H228683   2.060   2.150   3.360
 9481WAT      O28684   3.475   2.094   5.422
 9481WAT     H128685   3.505   2.008   5.463
 9481WAT     H228686   3.548   2.162   5.431
 9482WAT      O28687   6.365   7.233   8.650
 9482WAT     H128688   6.446   7.286   8.625
 9482WAT     H228689   6.305   7.223   8.570
 9483WAT      O28690   2.492   9.322   3.230
 9483WAT     H128691   2.581   9.278   3.223
 9483WAT     H228692   2.469   9.366   3.143
 9484WAT      O28693   0.930   4.481   7.703
 9484WAT     H128694   0.920   4.550   7.775
 9484WAT     H228695   0.877   4.508   7.623
 9485WAT      O28696   8.706   4.236   9.819
 9485WAT     H128697   8.681   4.162   9.757
 9485WAT     H228698   8.708   4.201   9.913
 9486WAT      O28699   4.734   9.778   7.251
 9486WAT     H128700   4.662   9.814   7.311
 9486WAT     H228701   4.821   9.778   7.299
 9487WAT      O28702   0.640   0.113   0.443
 9487WAT     H128703   0.564   0.168   0.409
 9487WAT     H228704   0.622   0.085   0.537
 9488WAT      O28705   1.382   3.306   0.052
 9488WAT     H128706   1.384   3.273  -0.042
 9488WAT     H228707   1.289   3.333   0.076
 9489WAT      O28708   5.304   9.459   8.033
 9489WAT     H128709   5.263   9.459   8.124
 9489WAT     H228710   5.301   9.551   7.994
 9490WAT      O28711   3.263   4.696   0.805
 9490WAT     H128712   3.240   4.688   0.902
 9490WAT     H228713   3.182   4.680   0.749
 9491WAT      O28714   6.153   1.335   3.838
 9491WAT     H128715   6.059   1.346   3.806
 9491WAT     H228716   6.169   1.397   3.916
 9492WAT      O28717   4.367   4.084   7.131
 9492WAT     H128718   4.391   4.154   7.064
 9492WAT     H228719   4.316   4.125   7.207
 9493WAT      O28720   0.931   0.493   8.304
 9493WAT     H128721   0.868   0.568   8.282
 9493WAT     H228722   1.024   0.529   8.312
 9494WAT      O28723   9.094   5.832   3.499
 9494WAT     H128724   9.042   5.756   3.458
 9494WAT     H228725   9.157   5.796   3.567
 9495WAT      O28726   2.782   6.849   9.188
 9495WAT     H128727   2.814   6.801   9.106
 9495WAT     H228728   2.685   6.870   9.179
 9496WAT      O28729   7.447   5.862   0.981
 9496WAT     H128730   7.363   5.835   1.028
 9496WAT     H228731   7.466   5.798   0.906
 9497WAT      O28732   0.597   3.016   6.812
 9497WAT     H128733   0.566   2.945   6.749
 9497WAT     H228734   0.519   3.054   6.861
 9498WAT      O28735   5.422   6.243   1.056
 9498WAT     H128736   5.346   6.213   1.114
 9498WAT     H228737   5.389   6.313   0.993
 9499WAT      O28738   4.094   8.411   9.399
 9499WAT     H128739   4.024   8.356   9.444
 9499WAT     H228740   4.138   8.471   9.465
 9500WAT      O28741   8.706   4.137   7.296
 9500WAT     H128742   8.791   4.154   7.246
 9500WAT     H228743   8.631   4.184   7.249
 9501WAT      O28744   4.494   9.035   2.643
 9501WAT     H128745   4.433   9.103   2.602
 9501WAT     H228746   4.568   9.081   2.692
 9502WAT      O28747   6.001   6.721   0.140
 9502WAT     H128748   5.902   6.717   0.125
 9502WAT     H228749   6.032   6.634   0.179
 9503WAT      O28750   8.619   8.920   9.377
 9503WAT     H128751   8.706   8.908   9.330
 9503WAT     H228752   8.548   8.943   9.310
 9504WAT      O28753   4.266   1.337   9.702
 9504WAT     H128754   4.321   1.395   9.641
 9504WAT     H228755   4.325   1.270   9.746
 9505WAT      O28756   6.915   7.983   8.541
 9505WAT     H128757   6.854   7.933   8.478
 9505WAT     H228758   7.000   8.005   8.494
 9506WAT      O28759   4.537   1.506   1.499
 9506WAT     H128760   4.441   1.485   1.519
 9506WAT     H228761   4.585   1.527   1.584
 9507WAT      O28762   6.910   7.425   1.539
 9507WAT     H128763   6.937   7.444   1.444
 9507WAT     H228764   6.871   7.507   1.579
 9508WAT      O28765   1.961   6.062   1.603
 9508WAT     H128766   1.992   5.986   1.660
 9508WAT     H228767   2.022   6.070   1.524
 9509WAT      O28768   5.755   5.129   7.719
 9509WAT     H128769   5.748   5.134   7.620
 9509WAT     H228770   5.849   5.148   7.747
 9510WAT      O28771   6.965   7.402   9.887
 9510WAT     H128772   6.982   7.313   9.929
 9510WAT     H228773   6.967   7.393   9.787
 9511WAT      O28774   4.321   3.842   0.368
 9511WAT     H128775   4.291   3.770   0.431
 9511WAT     H228776   4.241   3.876   0.318
 9512WAT      O28777   2.726   1.122   7.555
 9512WAT     H128778   2.685   1.199   7.507
 9512WAT     H228779   2.817   1.103   7.517
 9513WAT      O28780   2.508   1.402   5.266
 9513WAT     H128781   2.437   1.472   5.253
 9513WAT     H228782   2.508   1.341   5.187
 9514WAT      O28783   0.590   1.715   2.921
 9514WAT     H128784   0.592   1.811   2.950
 9514WAT     H228785   0.624   1.707   2.828
 9515WAT      O28786   0.109   8.199   1.408
 9515WAT     H128787   0.097   8.256   1.489
 9515WAT     H228788   0.188   8.139   1.421
 9516WAT      O28789   1.809   8.976   9.508
 9516WAT     H128790   1.881   8.935   9.564
 9516WAT     H228791   1.828   8.959   9.411
 9517WAT      O28792   1.762   2.913   5.618
 9517WAT     H128793   1.672   2.945   5.646
 9517WAT     H228794   1.791   2.961   5.536
 9518WAT      O28795   7.191   2.515   0.222
 9518WAT     H128796   7.263   2.449   0.205
 9518WAT     H228797   7.105   2.482   0.183
 9519WAT      O28798   3.476   9.180   7.567
 9519WAT     H128799   3.505   9.258   7.623
 9519WAT     H228800   3.557   9.133   7.531
 9520WAT      O28801   3.237   8.504   7.178
 9520WAT     H128802   3.292   8.487   7.097
 9520WAT     H228803   3.179   8.424   7.197
 9521WAT      O28804   5.423   1.573   2.153
 9521WAT     H128805   5.463   1.603   2.239
 9521WAT     H228806   5.491   1.522   2.100
 9522WAT      O28807   8.208   2.941   3.045
 9522WAT     H128808   8.248   2.904   2.960
 9522WAT     H228809   8.280   2.956   3.112
 9523WAT      O28810   8.998   2.098   2.117
 9523WAT     H128811   8.966   2.180   2.163
 9523WAT     H228812   8.982   2.018   2.175
 9524WAT      O28813   4.573   9.166   4.842
 9524WAT     H128814   4.477   9.145   4.824
 9524WAT     H228815   4.579   9.233   4.915
 9525WAT      O28816   7.325   1.032   7.929
 9525WAT     H128817   7.404   0.985   7.891
 9525WAT     H228818   7.242   1.003   7.881
 9526WAT      O28819   6.068   4.508   4.446
 9526WAT     H128820   6.033   4.564   4.371
 9526WAT     H228821   6.039   4.413   4.434
 9527WAT      O28822   9.870   7.794   3.209
 9527WAT     H128823   9.923   7.729   3.153
 9527WAT     H228824   9.785   7.750   3.238
 9528WAT      O28825   3.430   6.372   1.708
 9528WAT     H128826   3.467   6.462   1.729
 9528WAT     H228827   3.336   6.383   1.673
 9529WAT      O28828   5.527   5.286   1.377
 9529WAT     H128829   5.473   5.298   1.460
 9529WAT     H228830   5.560   5.192   1.371
 9530WAT      O28831   2.407   1.234   7.947
 9530WAT     H128832   2.477   1.200   8.009
 9530WAT     H228833   2.443   1.235   7.853
 9531WAT      O28834   9.089   6.346   4.463
 9531WAT     H128835   9.062   6.440   4.483
 9531WAT     H228836   9.074   6.328   4.366
 9532WAT      O28837   6.511   2.120   7.723
 9532WAT     H128838   6.523   2.022   7.708
 9532WAT     H228839   6.484   2.164   7.637
 9533WAT      O28840   4.771   1.639   7.229
 9533WAT     H128841   4.847   1.654   7.166
 9533WAT     H228842   4.804   1.588   7.309
 9534WAT      O28843   7.479   5.163   9.864
 9534WAT     H128844   7.417   5.241   9.871
 9534WAT     H228845   7.425   5.079   9.864
 9535WAT      O28846   1.626   8.568   6.655
 9535WAT     H128847   1.579   8.618   6.582
 9535WAT     H228848   1.617   8.469   6.639
 9536WAT      O28849   6.253   0.308   3.547
 9536WAT     H128850   6.332   0.262   3.505
 9536WAT     H228851   6.174   0.248   3.543
 9537WAT      O28852   2.410   5.389   9.494
 9537WAT     H128853   2.415   5.301   9.445
 9537WAT     H228854   2.393   5.372   9.591
 9538WAT      O28855   7.727   7.847   0.028
 9538WAT     H128856   7.746   7.934  -0.018
 9538WAT     H228857   7.681   7.786  -0.036
 9539WAT      O28858   8.477   4.295   5.141
 9539WAT     H128859   8.495   4.199   5.164
 9539WAT     H228860   8.563   4.341   5.119
 9540WAT      O28861   3.958   7.309   0.087
 9540WAT     H128862   4.035   7.259   0.125
 9540WAT     H228863   3.888   7.244   0.057
 9541WAT      O28864   4.227   4.990   3.208
 9541WAT     H128865   4.287   4.932   3.154
 9541WAT     H228866   4.280   5.035   3.280
 9542WAT      O28867   6.691   8.985   7.696
 9542WAT     H128868   6.782   8.997   7.656
 9542WAT     H228869   6.622   9.005   7.628
 9543WAT      O28870   5.086   9.036   2.551
 9543WAT     H128871   4.987   9.029   2.533
 9543WAT     H228872   5.100   9.051   2.648
 9544WAT      O28873   4.279   6.070   4.775
 9544WAT     H128874   4.184   6.098   4.764
 9544WAT     H228875   4.283   5.990   4.836
 9545WAT      O28876   0.744   4.609   9.193
 9545WAT     H128877   0.685   4.671   9.245
 9545WAT     H228878   0.793   4.549   9.257
 9546WAT      O28879   3.789   1.458   6.329
 9546WAT     H128880   3.842   1.415   6.402
 9546WAT     H228881   3.770   1.553   6.354
 9547WAT      O28882   7.196   5.773   1.076
 9547WAT     H128883   7.204   5.703   1.005
 9547WAT     H228884   7.137   5.847   1.043
 9548WAT      O28885   8.234   2.289   2.922
 9548WAT     H128886   8.297   2.261   2.994
 9548WAT     H228887   8.173   2.360   2.957
 9549WAT      O28888   4.445   8.000   9.492
 9549WAT     H128889   4.402   8.021   9.405
 9549WAT     H228890   4.376   7.972   9.558
 9550WAT      O28891   0.075   9.045   5.161
 9550WAT     H128892   0.120   9.077   5.078
 9550WAT     H228893   0.139   9.051   5.238
 9551WAT      O28894   0.736   6.551   3.000
 9551WAT     H128895   0.812   6.539   3.065
 9551WAT     H228896   0.760   6.509   2.913
 9552WAT      O28897   9.590   3.493   9.112
 9552WAT     H128898   9.564   3.398   9.094
 9552WAT     H228899   9.681   3.496   9.152
 9553WAT      O28900   0.991   7.695   7.939
 9553WAT     H128901   0.928   7.628   7.977
 9553WAT     H228902   0.943   7.782   7.925
 9554WAT      O28903   1.339   2.387   6.892
 9554WAT     H128904   1.352   2.291   6.869
 9554WAT     H228905   1.257   2.398   6.948
 9555WAT      O28906   2.196   1.238   2.404
 9555WAT     H128907   2.107   1.193   2.397
 9555WAT     H228908   2.200   1.316   2.342
 9556WAT      O28909   5.215   8.100   1.970
 9556WAT     H128910   5.261   8.162   1.906
 9556WAT     H228911   5.140   8.148   2.016
 9557WAT      O28912   4.774   4.868   5.732
 9557WAT     H128913   4.825   4.787   5.704
 9557WAT     H228914   4.692   4.878   5.675
 9558WAT      O28915   8.122   2.408   8.701
 9558WAT     H128916   8.158   2.464   8.775
 9558WAT     H228917   8.151   2.445   8.613
 9559WAT      O28918   3.230   7.161   1.787
 9559WAT     H128919   3.310   7.101   1.780
 9559WAT     H228920   3.147   7.106   1.777
 9560WAT      O28921   2.779   0.327   9.377
 9560WAT     H128922   2.847   0.308   9.448
 9560WAT     H228923   2.697   0.272   9.393
 9561WAT      O28924   6.268   8.545   8.944
 9561WAT     H128925   6.236   8.612   8.876
 9561WAT     H228926   6.342   8.491   8.904
 9562WAT      O28927   2.315   3.355   2.616
 9562WAT     H128928   2.361   3.357   2.705
 9562WAT     H228929   2.341   3.271   2.568
 9563WAT      O28930   3.375   2.989   7.145
 9563WAT     H128931   3.442   3.058   7.175
 9563WAT     H228932   3.418   2.928   7.079
 9564WAT      O28933   0.820   1.070   1.863
 9564WAT     H128934   0.838   1.168   1.865
 9564WAT     H228935   0.757   1.049   1.788
 9565WAT      O28936   5.154   6.404   1.719
 9565WAT     H128937   5.161   6.316   1.765
 9565WAT     H228938   5.097   6.394   1.637
 9566WAT      O28939   9.400   5.399   3.826
 9566WAT     H128940   9.440   5.353   3.906
 9566WAT     H228941   9.339   5.472   3.857
 9567WAT      O28942   8.463   1.993   1.290
 9567WAT     H128943   8.365   1.974   1.296
 9567WAT     H228944   8.515   1.909   1.308
 9568WAT      O28945   4.818   6.676   3.795
 9568WAT     H128946   4.752   6.687   3.721
 9568WAT     H228947   4.778   6.622   3.869
 9569WAT      O28948   0.422   5.794   0.551
 9569WAT     H128949   0.454   5.873   0.603
 9569WAT     H228950   0.466   5.711   0.587
 9570WAT      O28951   9.215   5.376   2.450
 9570WAT     H128952   9.176   5.332   2.531
 9570WAT     H228953   9.308   5.341   2.435
 9571WAT      O28954   3.207   4.635   8.650
 9571WAT     H128955   3.133   4.568   8.647
 9571WAT     H228956   3.258   4.624   8.735
 9572WAT      O28957   4.782   8.722   8.852
 9572WAT     H128958   4.724   8.768   8.784
 9572WAT     H228959   4.806   8.631   8.819
 9573WAT      O28960   2.784   9.072   1.875
 9573WAT     H128961   2.804   9.145   1.809
 9573WAT     H228962   2.802   8.983   1.832
 9574WAT      O28963   5.553   2.228   2.746
 9574WAT     H128964   5.630   2.164   2.737
 9574WAT     H228965   5.525   2.233   2.842
 9575WAT      O28966   9.820   3.935   8.248
 9575WAT     H128967   9.823   3.841   8.281
 9575WAT     H228968   9.913   3.969   8.234
 9576WAT      O28969   9.286   0.026   1.023
 9576WAT     H128970   9.288  -0.013   0.931
 9576WAT     H228971   9.348  -0.026   1.082
 9577WAT      O28972   7.028   5.721   3.876
 9577WAT     H128973   6.996   5.766   3.959
 9577WAT     H228974   7.124   5.743   3.860
 9578WAT      O28975   7.133   4.561   4.040
 9578WAT     H128976   7.223   4.559   4.084
 9578WAT     H228977   7.125   4.486   3.975
 9579WAT      O28978   3.188   2.142   1.493
 9579WAT     H128979   3.108   2.083   1.480
 9579WAT     H228980   3.173   2.202   1.572
 9580WAT      O28981   7.985   3.339   0.265
 9580WAT     H128982   8.060   3.285   0.227
 9580WAT     H228983   8.009   3.436   0.264
 9581WAT      O28984   2.043   4.059   9.503
 9581WAT     H128985   2.095   3.975   9.491
 9581WAT     H228986   1.972   4.065   9.433
 9582WAT      O28987   4.819   5.696   9.569
 9582WAT     H128988   4.730   5.724   9.534
 9582WAT     H228989   4.812   5.604   9.608
 9583WAT      O28990   1.185   5.357   9.402
 9583WAT     H128991   1.204   5.436   9.344
 9583WAT     H228992   1.099   5.315   9.373
 9584WAT      O28993   6.952   4.212   2.351
 9584WAT     H128994   6.998   4.285   2.301
 9584WAT     H228995   6.872   4.182   2.300
 9585WAT      O28996   3.519   1.115   6.856
 9585WAT     H128997   3.488   1.192   6.912
 9585WAT     H228998   3.595   1.144   6.798
 9586WAT      O28999   1.754   8.566   1.093
 9586WAT     H129000   1.788   8.473   1.078
 9586WAT     H229001   1.765   8.589   1.190
 9587WAT      O29002   5.548   7.276   3.936
 9587WAT     H129003   5.489   7.343   3.892
 9587WAT     H229004   5.622   7.324   3.984
 9588WAT      O29005   9.759   0.710   5.186
 9588WAT     H129006   9.710   0.780   5.133
 9588WAT     H229007   9.826   0.665   5.126
 9589WAT      O29008   2.476   7.201   0.411
 9589WAT     H129009   2.420   7.158   0.340
 9589WAT     H229010   2.565   7.155   0.416
 9590WAT      O29011   3.841   6.232   7.859
 9590WAT     H129012   3.839   6.173   7.940
 9590WAT     H229013   3.807   6.323   7.884
 9591WAT      O29014   2.589   8.601   2.586
 9591WAT     H129015   2.503   8.615   2.635
 9591WAT     H229016   2.656   8.669   2.615
 9592WAT      O29017   2.443   2.703   9.682
 9592WAT     H129018   2.476   2.720   9.590
 9592WAT     H229019   2.495   2.757   9.748
 9593WAT      O29020   7.230   8.305   4.272
 9593WAT     H129021   7.285   8.251   4.336
 9593WAT     H229022   7.217   8.253   4.187
 9594WAT      O29023   2.433   5.190   4.339
 9594WAT     H129024   2.397   5.264   4.283
 9594WAT     H229025   2.508   5.224   4.396
 9595WAT      O29026   8.985   2.873   8.148
 9595WAT     H129027   8.943   2.908   8.064
 9595WAT     H229028   9.028   2.949   8.197
 9596WAT      O29029   9.706   9.726   7.496
 9596WAT     H129030   9.798   9.701   7.526
 9596WAT     H229031   9.705   9.823   7.471
 9597WAT      O29032   7.642   6.041   9.708
 9597WAT     H129033   7.618   6.136   9.684
 9597WAT     H229034   7.623   6.026   9.804
 9598WAT      O29035   8.990   6.392   6.414
 9598WAT     H129036   8.897   6.429   6.418
 9598WAT     H229037   8.990   6.309   6.357
 9599WAT      O29038   4.385   6.571   4.671
 9599WAT     H129039   4.338   6.557   4.758
 9599WAT     H229040   4.339   6.644   4.620
 9600WAT      O29041   6.078   8.928   1.120
 9600WAT     H129042   5.985   8.955   1.093
 9600WAT     H229043   6.142   9.001   1.098
 9601WAT      O29044   1.575   4.075   4.003
 9601WAT     H129045   1.601   4.067   4.099
 9601WAT     H229046   1.586   3.987   3.958
 9602WAT      O29047   7.582   8.270   4.017
 9602WAT     H129048   7.572   8.355   4.069
 9602WAT     H229049   7.518   8.270   3.941
 9603WAT      O29050   2.293   0.664   5.417
 9603WAT     H129051   2.357   0.628   5.485
 9603WAT     H229052   2.343   0.688   5.334
 9604WAT      O29053   7.646   1.147   2.941
 9604WAT     H129054   7.738   1.108   2.936
 9604WAT     H229055   7.652   1.240   2.979
 9605WAT      O29056   0.114   3.422   3.245
 9605WAT     H129057   0.067   3.493   3.191
 9605WAT     H229058   0.182   3.377   3.188
 9606WAT      O29059   4.216   4.135   3.529
 9606WAT     H129060   4.258   4.086   3.605
 9606WAT     H229061   4.198   4.230   3.556
 9607WAT      O29062   6.375   3.450   1.360
 9607WAT     H129063   6.290   3.398   1.374
 9607WAT     H229064   6.405   3.488   1.448
 9608WAT      O29065   0.925   4.981   8.228
 9608WAT     H129066   0.895   5.034   8.149
 9608WAT     H229067   1.023   4.966   8.223
 9609WAT      O29068   5.751   3.545   1.487
 9609WAT     H129069   5.842   3.505   1.471
 9609WAT     H229070   5.732   3.543   1.585
 9610WAT      O29071   0.644   9.778   4.173
 9610WAT     H129072   0.683   9.758   4.084
 9610WAT     H229073   0.703   9.842   4.223
 9611WAT      O29074   1.489   2.707   0.629
 9611WAT     H129075   1.474   2.666   0.719
 9611WAT     H229076   1.433   2.789   0.620
 9612WAT      O29077   9.773   7.515   6.801
 9612WAT     H129078   9.792   7.422   6.830
 9612WAT     H229079   9.805   7.580   6.870
 9613WAT      O29080   5.194   3.947   9.360
 9613WAT     H129081   5.105   3.988   9.379
 9613WAT     H229082   5.210   3.873   9.425
 9614WAT      O29083   3.828   1.557   5.050
 9614WAT     H129084   3.915   1.605   5.036
 9614WAT     H229085   3.846   1.462   5.075
 9615WAT      O29086   1.698   4.017   2.068
 9615WAT     H129087   1.638   4.097   2.062
 9615WAT     H229088   1.661   3.943   2.012
 9616WAT      O29089   2.170   9.642   5.709
 9616WAT     H129090   2.075   9.611   5.709
 9616WAT     H229091   2.177   9.728   5.759
 9617WAT      O29092   0.442   0.276   4.917
 9617WAT     H129093   0.361   0.332   4.897
 9617WAT     H229094   0.523   0.319   4.876
 9618WAT      O29095   7.159   2.760   3.619
 9618WAT     H129096   7.167   2.674   3.669
 9618WAT     H229097   7.108   2.745   3.534
 9619WAT      O29098   6.559   9.072   6.936
 9619WAT     H129099   6.481   9.114   6.888
 9619WAT     H229100   6.525   9.015   7.011
 9620WAT      O29101   6.946   0.675   6.285
 9620WAT     H129102   6.982   0.728   6.208
 9620WAT     H229103   7.009   0.683   6.362
 9621WAT      O29104   0.624   0.616   0.245
 9621WAT     H129105   0.651   0.713   0.246
 9621WAT     H229106   0.559   0.600   0.319
 9622WAT      O29107   7.596   2.361   8.832
 9622WAT     H129108   7.663   2.376   8.759
 9622WAT     H229109   7.540   2.281   8.809
 9623WAT      O29110   8.061   8.760   8.229
 9623WAT     H129111   7.962   8.752   8.225
 9623WAT     H229112   8.089   8.847   8.188
 9624WAT      O29113   7.257   6.076   9.558
 9624WAT     H129114   7.255   6.051   9.461
 9624WAT     H229115   7.303   6.164   9.569
 9625WAT      O29116   3.071   5.962   8.531
 9625WAT     H129117   3.154   6.007   8.562
 9625WAT     H229118   3.033   5.908   8.606
 9626WAT      O29119   6.059   1.145   6.006
 9626WAT     H129120   6.051   1.174   6.101
 9626WAT     H229121   5.993   1.072   5.987
 9627WAT      O29122   3.168   6.049   1.300
 9627WAT     H129123   3.220   5.968   1.327
 9627WAT     H229124   3.193   6.076   1.207
 9628WAT      O29125   6.959   7.314   4.090
 9628WAT     H129126   6.859   7.311   4.079
 9628WAT     H229127   7.001   7.249   4.028
 9629WAT      O29128   7.358   2.594   1.661
 9629WAT     H129129   7.367   2.661   1.588
 9629WAT     H229130   7.365   2.640   1.749
 9630WAT      O29131   6.735   0.511   1.884
 9630WAT     H129132   6.656   0.468   1.842
 9630WAT     H229133   6.733   0.495   1.983
 9631WAT      O29134   1.139   4.464   4.145
 9631WAT     H129135   1.100   4.421   4.064
 9631WAT     H229136   1.231   4.429   4.161
 9632WAT      O29137   9.487   6.426   8.487
 9632WAT     H129138   9.431   6.416   8.405
 9632WAT     H229139   9.583   6.429   8.462
 9633WAT      O29140   5.680   3.138   5.800
 9633WAT     H129141   5.582   3.151   5.816
 9633WAT     H229142   5.702   3.160   5.705
 9634WAT      O29143   8.852   4.679   8.092
 9634WAT     H129144   8.941   4.707   8.130
 9634WAT     H229145   8.792   4.758   8.085
 9635WAT      O29146   7.737   4.330   6.258
 9635WAT     H129147   7.733   4.333   6.158
 9635WAT     H229148   7.762   4.238   6.288
 9636WAT      O29149   9.194   5.581   2.284
 9636WAT     H129150   9.213   5.496   2.333
 9636WAT     H229151   9.110   5.623   2.320
 9637WAT      O29152   0.719   0.667   8.273
 9637WAT     H129153   0.645   0.636   8.213
 9637WAT     H229154   0.680   0.708   8.356
 9638WAT      O29155   4.474   5.250   1.715
 9638WAT     H129156   4.496   5.156   1.739
 9638WAT     H229157   4.485   5.309   1.795
 9639WAT      O29158   8.058   6.259   2.188
 9639WAT     H129159   8.045   6.325   2.114
 9639WAT     H229160   8.087   6.171   2.150
 9640WAT      O29161   9.413   2.821   1.418
 9640WAT     H129162   9.337   2.822   1.483
 9640WAT     H229163   9.385   2.772   1.335
 9641WAT      O29164   5.637   5.797   4.274
 9641WAT     H129165   5.608   5.706   4.245
 9641WAT     H229166   5.737   5.802   4.271
 9642WAT      O29167   0.112   8.058   7.149
 9642WAT     H129168   0.136   8.143   7.102
 9642WAT     H229169   0.039   8.076   7.215
 9643WAT      O29170   7.934   9.831   1.667
 9643WAT     H129171   7.956   9.898   1.739
 9643WAT     H229172   8.019   9.791   1.632
 9644WAT      O29173   0.624   7.042   5.107
 9644WAT     H129174   0.553   6.996   5.053
 9644WAT     H229175   0.629   7.000   5.198
 9645WAT      O29176   2.936   2.646   0.661
 9645WAT     H129177   2.853   2.594   0.643
 9645WAT     H229178   2.972   2.682   0.575
 9646WAT      O29179   1.718   0.056   4.305
 9646WAT     H129180   1.813   0.058   4.275
 9646WAT     H229181   1.695   0.143   4.348
 9647WAT      O29182   8.036   3.046   4.661
 9647WAT     H129183   8.064   3.077   4.570
 9647WAT     H229184   7.937   3.035   4.663
 9648WAT      O29185   1.037   5.358   8.093
 9648WAT     H129186   0.998   5.275   8.054
 9648WAT     H229187   0.963   5.421   8.118
 9649WAT      O29188   4.842   8.803   6.689
 9649WAT     H129189   4.823   8.900   6.703
 9649WAT     H229190   4.818   8.752   6.771
 9650WAT      O29191   8.188   6.869   2.840
 9650WAT     H129192   8.284   6.892   2.827
 9650WAT     H229193   8.179   6.772   2.863
 9651WAT      O29194   0.023   8.102   8.081
 9651WAT     H129195  -0.051   8.059   8.030
 9651WAT     H229196   0.019   8.201   8.067
 9652WAT      O29197   4.692   4.436   7.916
 9652WAT     H129198   4.698   4.516   7.857
 9652WAT     H229199   4.720   4.461   8.009
 9653WAT      O29200   2.813   7.848   8.011
 9653WAT     H129201   2.735   7.902   8.043
 9653WAT     H229202   2.780   7.767   7.963
 9654WAT      O29203   0.267   6.148   0.282
 9654WAT     H129204   0.235   6.067   0.333
 9654WAT     H229205   0.277   6.124   0.186
 9655WAT      O29206   8.075   2.576   4.643
 9655WAT     H129207   8.049   2.527   4.559
 9655WAT     H229208   8.068   2.514   4.721
 9656WAT      O29209   0.761   5.517   6.465
 9656WAT     H129210   0.722   5.445   6.523
 9656WAT     H229211   0.854   5.537   6.495
 9657WAT      O29212   2.728   7.806   1.507
 9657WAT     H129213   2.672   7.785   1.587
 9657WAT     H229214   2.757   7.721   1.463
 9658WAT      O29215   4.785   3.799   4.862
 9658WAT     H129216   4.873   3.821   4.820
 9658WAT     H229217   4.713   3.857   4.822
 9659WAT      O29218   2.314   8.270   9.749
 9659WAT     H129219   2.320   8.342   9.817
 9659WAT     H229220   2.227   8.278   9.700
 9660WAT      O29221   3.016   7.825   4.522
 9660WAT     H129222   3.083   7.752   4.532
 9660WAT     H229223   3.047   7.906   4.571
 9661WAT      O29224   3.910   8.503   8.395
 9661WAT     H129225   3.949   8.411   8.401
 9661WAT     H229226   3.892   8.525   8.299
 9662WAT      O29227   5.993   8.364   8.716
 9662WAT     H129228   6.074   8.412   8.683
 9662WAT     H229229   6.021   8.291   8.779
 9663WAT      O29230   0.543   1.816   6.986
 9663WAT     H129231   0.457   1.859   7.013
 9663WAT     H229232   0.524   1.741   6.922
 9664WAT      O29233   2.753   3.548   6.319
 9664WAT     H129234   2.824   3.521   6.253
 9664WAT     H229235   2.700   3.624   6.281
 9665WAT      O29236   2.681   6.972   5.997
 9665WAT     H129237   2.768   7.003   5.958
 9665WAT     H229238   2.659   7.028   6.077
 9666WAT      O29239   6.798   7.112   4.844
 9666WAT     H129240   6.851   7.195   4.826
 9666WAT     H229241   6.854   7.032   4.822
 9667WAT      O29242   2.758   5.794   5.337
 9667WAT     H129243   2.691   5.728   5.373
 9667WAT     H229244   2.728   5.825   5.247
 9668WAT      O29245   2.398   3.184   1.272
 9668WAT     H129246   2.492   3.150   1.261
 9668WAT     H229247   2.382   3.259   1.208
 9669WAT      O29248   4.842   8.791   6.414
 9669WAT     H129249   4.926   8.827   6.375
 9669WAT     H229250   4.850   8.785   6.513
 9670WAT      O29251   8.690   6.267   7.311
 9670WAT     H129252   8.598   6.290   7.343
 9670WAT     H229253   8.688   6.178   7.266
 9671WAT      O29254   7.309   7.861   3.870
 9671WAT     H129255   7.342   7.766   3.876
 9671WAT     H229256   7.221   7.863   3.823
 9672WAT      O29257   4.516   4.274   6.105
 9672WAT     H129258   4.558   4.227   6.028
 9672WAT     H229259   4.424   4.238   6.120
 9673WAT      O29260   1.898   7.580   6.632
 9673WAT     H129261   1.978   7.521   6.620
 9673WAT     H229262   1.815   7.526   6.615
 9674WAT      O29263   2.763   9.202   7.706
 9674WAT     H129264   2.799   9.258   7.632
 9674WAT     H229265   2.672   9.169   7.683
 9675WAT      O29266   8.632   9.646   6.685
 9675WAT     H129267   8.562   9.601   6.629
 9675WAT     H229268   8.610   9.634   6.782
 9676WAT      O29269   7.222   1.195   4.857
 9676WAT     H129270   7.185   1.104   4.875
 9676WAT     H229271   7.247   1.202   4.760
 9677WAT      O29272   1.012   6.037   5.901
 9677WAT     H129273   1.050   5.946   5.914
 9677WAT     H229274   0.916   6.031   5.875
 9678WAT      O29275   3.473   5.631   4.470
 9678WAT     H129276   3.521   5.648   4.557
 9678WAT     H229277   3.439   5.718   4.434
 9679WAT      O29278   4.500   7.896   6.020
 9679WAT     H129279   4.438   7.842   5.963
 9679WAT     H229280   4.483   7.993   6.004
 9680WAT      O29281   7.146   5.576   7.876
 9680WAT     H129282   7.175   5.546   7.785
 9680WAT     H229283   7.053   5.543   7.893
 9681WAT      O29284   9.147   6.630   1.265
 9681WAT     H129285   9.176   6.573   1.341
 9681WAT     H229286   9.213   6.623   1.190
 9682WAT      O29287   8.395   0.426   8.728
 9682WAT     H129288   8.424   0.411   8.822
 9682WAT     H229289   8.430   0.515   8.697
 9683WAT      O29290   7.151   6.665   0.954
 9683WAT     H129291   7.118   6.635   0.864
 9683WAT     H229292   7.161   6.764   0.954
 9684WAT      O29293   2.260   9.823   9.048
 9684WAT     H129294   2.263   9.724   9.037
 9684WAT     H229295   2.341   9.855   9.097
 9685WAT      O29296   4.945   9.536   3.541
 9685WAT     H129297   5.032   9.576   3.513
 9685WAT     H229298   4.962   9.459   3.602
 9686WAT      O29299   9.051   6.700   3.279
 9686WAT     H129300   9.037   6.629   3.348
 9686WAT     H229301   9.074   6.657   3.192
 9687WAT      O29302   8.310   2.412   7.406
 9687WAT     H129303   8.281   2.494   7.357
 9687WAT     H229304   8.243   2.339   7.393
 9688WAT      O29305   7.813   8.721   8.479
 9688WAT     H129306   7.785   8.632   8.442
 9688WAT     H229307   7.862   8.707   8.565
 9689WAT      O29308   0.429   4.626   1.922
 9689WAT     H129309   0.367   4.561   1.966
 9689WAT     H229310   0.524   4.598   1.938
 9690WAT      O29311   2.104   6.180   0.702
 9690WAT     H129312   2.140   6.149   0.614
 9690WAT     H229313   2.086   6.278   0.698
 9691WAT      O29314   0.067   0.877   0.210
 9691WAT     H129315   0.144   0.939   0.210
 9691WAT     H229316  -0.019   0.929   0.211
 9692WAT      O29317   6.769   8.736   4.542
 9692WAT     H129318   6.832   8.807   4.511
 9692WAT     H229319   6.675   8.770   4.535
 9693WAT      O29320   8.638   2.581   8.624
 9693WAT     H129321   8.731   2.577   8.589
 9693WAT     H229322   8.583   2.509   8.582
 9694WAT      O29323   9.638   6.107   2.987
 9694WAT     H129324   9.701   6.096   2.910
 9694WAT     H229325   9.600   6.200   2.985
 9695WAT      O29326   8.682   0.085   7.718
 9695WAT     H129327   8.625   0.004   7.704
 9695WAT     H229328   8.672   0.146   7.639
 9696WAT      O29329   5.808   0.003   6.319
 9696WAT     H129330   5.765   0.020   6.231
 9696WAT     H229331   5.810   0.088   6.372
 9697WAT      O29332   0.616   9.729   6.325
 9697WAT     H129333   0.537   9.734   6.387
 9697WAT     H229334   0.609   9.646   6.270
 9698WAT      O29335   1.641   1.822   5.693
 9698WAT     H129336   1.637   1.919   5.718
 9698WAT     H229337   1.733   1.787   5.712
 9699WAT      O29338   1.227   7.664   9.210
 9699WAT     H129339   1.201   7.725   9.136
 9699WAT     H229340   1.165   7.585   9.213
 9700WAT      O29341   0.610   9.546   2.180
 9700WAT     H129342   0.685   9.606   2.205
 9700WAT     H229343   0.603   9.472   2.247
 9701WAT      O29344   5.308   3.288   2.992
 9701WAT     H129345   5.287   3.290   2.895
 9701WAT     H229346   5.226   3.262   3.043
 9702WAT      O29347   1.651   0.730   5.905
 9702WAT     H129348   1.604   0.815   5.930
 9702WAT     H229349   1.591   0.674   5.849
 9703WAT      O29350   5.156   5.553   1.938
 9703WAT     H129351   5.083   5.484   1.939
 9703WAT     H229352   5.199   5.555   1.848
 9704WAT      O29353   0.363   9.340   0.153
 9704WAT     H129354   0.361   9.241   0.167
 9704WAT     H229355   0.317   9.385   0.230
 9705WAT      O29356   3.151   2.980   0.863
 9705WAT     H129357   3.145   3.024   0.773
 9705WAT     H229358   3.232   3.012   0.911
 9706WAT      O29359   8.908   0.589   8.549
 9706WAT     H129360   8.906   0.614   8.646
 9706WAT     H229361   9.000   0.605   8.513
 9707WAT      O29362   0.904   9.684   4.554
 9707WAT     H129363   0.805   9.701   4.548
 9707WAT     H229364   0.953   9.770   4.545
 9708WAT      O29365   7.742   1.389   1.793
 9708WAT     H129366   7.726   1.292   1.772
 9708WAT     H229367   7.752   1.440   1.708
 9709WAT      O29368   4.550   1.063   5.273
 9709WAT     H129369   4.617   1.133   5.250
 9709WAT     H229370   4.488   1.098   5.344
 9710WAT      O29371   5.564   5.741   3.701
 9710WAT     H129372   5.495   5.734   3.629
 9710WAT     H229373   5.566   5.656   3.753
 9711WAT      O29374   7.624   7.597   3.314
 9711WAT     H129375   7.599   7.576   3.409
 9711WAT     H229376   7.554   7.562   3.253
 9712WAT      O29377   3.459   9.181   3.810
 9712WAT     H129378   3.368   9.152   3.781
 9712WAT     H229379   3.521   9.104   3.807
 9713WAT      O29380   4.249   0.808   1.182
 9713WAT     H129381   4.230   0.820   1.085
 9713WAT     H229382   4.222   0.715   1.210
 9714WAT      O29383   6.301   7.977   7.179
 9714WAT     H129384   6.270   7.882   7.181
 9714WAT     H229385   6.287   8.015   7.088
 9715WAT      O29386   5.561   6.614   5.317
 9715WAT     H129387   5.637   6.625   5.253
 9715WAT     H229388   5.489   6.559   5.275
 9716WAT      O29389   2.461   2.682   1.333
 9716WAT     H129390   2.450   2.671   1.234
 9716WAT     H229391   2.549   2.642   1.361
 9717WAT      O29392   9.154   6.327   0.156
 9717WAT     H129393   9.136   6.420   0.125
 9717WAT     H229394   9.144   6.264   0.079
 9718WAT      O29395   4.699   3.732   5.523
 9718WAT     H129396   4.755   3.815   5.516
 9718WAT     H229397   4.606   3.752   5.492
 9719WAT      O29398   2.656   8.931   6.622
 9719WAT     H129399   2.667   8.832   6.625
 9719WAT     H229400   2.584   8.958   6.686
 9720WAT      O29401   2.810   8.542   8.528
 9720WAT     H129402   2.907   8.545   8.555
 9720WAT     H229403   2.773   8.635   8.529
 9721WAT      O29404   6.831   5.773   7.033
 9721WAT     H129405   6.929   5.788   7.048
 9721WAT     H229406   6.784   5.861   7.025
 9722WAT      O29407   8.012   1.609   8.249
 9722WAT     H129408   8.010   1.586   8.152
 9722WAT     H229409   7.920   1.633   8.280
 9723WAT      O29410   1.275   0.901   3.901
 9723WAT     H129411   1.347   0.921   3.836
 9723WAT     H229412   1.187   0.896   3.853
 9724WAT      O29413   9.481   0.923   5.499
 9724WAT     H129414   9.467   0.967   5.588
 9724WAT     H229415   9.392   0.899   5.461
 9725WAT      O29416   0.138   4.533   3.037
 9725WAT     H129417   0.144   4.624   2.997
 9725WAT     H229418   0.127   4.541   3.136
 9726WAT      O29419   0.059   8.057   7.649
 9726WAT     H129420   0.030   8.128   7.712
 9726WAT     H229421   0.112   7.988   7.699
 9727WAT      O29422   1.978   7.898   6.278
 9727WAT     H129423   1.889   7.853   6.270
 9727WAT     H229424   1.997   7.918   6.374
 9728WAT      O29425   5.678   1.702   7.999
 9728WAT     H129426   5.704   1.753   8.081
 9728WAT     H229427   5.581   1.718   7.979
 9729WAT      O29428   0.489   0.003   1.259
 9729WAT     H129429   0.488   0.086   1.315
 9729WAT     H229430   0.566   0.007   1.195
 9730WAT      O29431   8.124   2.417   0.289
 9730WAT     H129432   8.060   2.492   0.304
 9730WAT     H229433   8.176   2.400   0.373
 9731WAT      O29434   3.777   8.179   6.603
 9731WAT     H129435   3.825   8.254   6.648
 9731WAT     H229436   3.687   8.167   6.644
 9732WAT      O29437   1.787   6.594   8.038
 9732WAT     H129438   1.806   6.692   8.033
 9732WAT     H229439   1.690   6.580   8.055
 9733WAT      O29440   7.791   5.818   9.784
 9733WAT     H129441   7.767   5.742   9.724
 9733WAT     H229442   7.761   5.904   9.743
 9734WAT      O29443   3.966   0.618   0.984
 9734WAT     H129444   4.005   0.531   1.012
 9734WAT     H229445   3.922   0.609   0.894
 9735WAT      O29446   7.813   7.713   9.056
 9735WAT     H129447   7.762   7.743   9.137
 9735WAT     H229448   7.752   7.709   8.977
 9736WAT      O29449   1.698   3.730   6.444
 9736WAT     H129450   1.691   3.763   6.350
 9736WAT     H229451   1.614   3.750   6.494
 9737WAT      O29452   8.441   6.599   7.609
 9737WAT     H129453   8.371   6.640   7.550
 9737WAT     H229454   8.532   6.626   7.576
 9738WAT      O29455   0.477   5.953   7.263
 9738WAT     H129456   0.450   5.890   7.335
 9738WAT     H229457   0.399   5.969   7.202
 9739WAT      O29458   4.685   4.533   7.517
 9739WAT     H129459   4.659   4.454   7.462
 9739WAT     H229460   4.782   4.553   7.503
 9740WAT      O29461   6.561   3.108   8.231
 9740WAT     H129462   6.500   3.057   8.170
 9740WAT     H229463   6.510   3.139   8.311
 9741WAT      O29464   4.863   3.666   1.684
 9741WAT     H129465   4.909   3.753   1.698
 9741WAT     H229466   4.764   3.679   1.693
 9742WAT      O29467   8.724   5.401   7.165
 9742WAT     H129468   8.723   5.483   7.107
 9742WAT     H229469   8.650   5.407   7.232
 9743WAT      O29470   6.742   1.241   3.043
 9743WAT     H129471   6.705   1.327   3.009
 9743WAT     H229472   6.754   1.177   2.967
 9744WAT      O29473   3.731   9.385   4.736
 9744WAT     H129474   3.812   9.427   4.776
 9744WAT     H229475   3.687   9.325   4.803
 9745WAT      O29476   7.213   4.572   9.333
 9745WAT     H129477   7.275   4.596   9.259
 9745WAT     H229478   7.119   4.567   9.298
 9746WAT      O29479   9.026   8.670   8.922
 9746WAT     H129480   8.948   8.688   8.862
 9746WAT     H229481   9.021   8.728   9.003
 9747WAT      O29482   1.810   7.409   2.682
 9747WAT     H129483   1.806   7.450   2.774
 9747WAT     H229484   1.739   7.338   2.675
 9748WAT      O29485   7.092   3.771   6.272
 9748WAT     H129486   7.093   3.689   6.214
 9748WAT     H229487   7.111   3.851   6.216
 9749WAT      O29488   2.865   5.789   3.054
 9749WAT     H129489   2.924   5.782   2.973
 9749WAT     H229490   2.770   5.769   3.028
 9750WAT      O29491   8.216   5.732   2.455
 9750WAT     H129492   8.127   5.775   2.470
 9750WAT     H229493   8.255   5.706   2.544
 9751WAT      O29494   9.138   4.845   5.111
 9751WAT     H129495   9.103   4.874   5.200
 9751WAT     H229496   9.189   4.760   5.121
 9752WAT      O29497   8.476   7.511   3.018
 9752WAT     H129498   8.526   7.433   3.056
 9752WAT     H229499   8.453   7.493   2.922
 9753WAT      O29500   8.911   3.386   7.319
 9753WAT     H129501   8.852   3.464   7.340
 9753WAT     H229502   8.859   3.317   7.269
 9754WAT      O29503   8.138   3.495   7.135
 9754WAT     H129504   8.225   3.480   7.182
 9754WAT     H229505   8.095   3.406   7.118
 9755WAT      O29506   4.846   3.926   6.356
 9755WAT     H129507   4.934   3.882   6.376
 9755WAT     H229508   4.862   4.016   6.315
 9756WAT      O29509   2.398   3.377   4.771
 9756WAT     H129510   2.361   3.461   4.811
 9756WAT     H229511   2.427   3.395   4.677
 9757WAT      O29512   4.128   9.713   2.320
 9757WAT     H129513   4.081   9.625   2.318
 9757WAT     H229514   4.101   9.767   2.240
 9758WAT      O29515   0.662   6.362   4.376
 9758WAT     H129516   0.732   6.358   4.305
 9758WAT     H229517   0.590   6.296   4.355
 9759WAT      O29518   2.377   6.856   1.852
 9759WAT     H129519   2.356   6.791   1.779
 9759WAT     H229520   2.317   6.837   1.931
 9760WAT      O29521   4.114   2.062   4.775
 9760WAT     H129522   4.056   2.045   4.854
 9760WAT     H229523   4.120   1.979   4.720
 9761WAT      O29524   6.435   7.839   4.146
 9761WAT     H129525   6.457   7.780   4.068
 9761WAT     H229526   6.339   7.826   4.171
 9762WAT      O29527   0.207   8.885   6.275
 9762WAT     H129528   0.217   8.930   6.186
 9762WAT     H229529   0.142   8.809   6.267
 9763WAT      O29530   1.585   3.249   7.839
 9763WAT     H129531   1.550   3.175   7.896
 9763WAT     H229532   1.508   3.300   7.800
 9764WAT      O29533   9.570   7.448   3.052
 9764WAT     H129534   9.656   7.396   3.060
 9764WAT     H229535   9.497   7.387   3.023
 9765WAT      O29536   2.887   6.926   8.683
 9765WAT     H129537   2.818   6.892   8.618
 9765WAT     H229538   2.843   6.949   8.769
 9766WAT      O29539   4.611   6.623   4.018
 9766WAT     H129540   4.656   6.601   4.104
 9766WAT     H229541   4.532   6.562   4.006
 9767WAT      O29542   2.535   3.635   8.500
 9767WAT     H129543   2.464   3.586   8.449
 9767WAT     H229544   2.496   3.719   8.538
 9768WAT      O29545   9.366   1.706   9.305
 9768WAT     H129546   9.376   1.624   9.361
 9768WAT     H229547   9.356   1.786   9.364
 9769WAT      O29548   7.221   3.183   3.894
 9769WAT     H129549   7.313   3.174   3.931
 9769WAT     H229550   7.188   3.093   3.865
 9770WAT      O29551   0.865   8.799   3.458
 9770WAT     H129552   0.950   8.752   3.435
 9770WAT     H229553   0.788   8.736   3.449
 9771WAT      O29554   1.102   0.048   1.246
 9771WAT     H129555   1.005   0.024   1.234
 9771WAT     H229556   1.132   0.104   1.168
 9772WAT      O29557   5.082   1.800   6.310
 9772WAT     H129558   5.052   1.728   6.373
 9772WAT     H229559   5.024   1.881   6.323
 9773WAT      O29560   2.161   1.566   5.373
 9773WAT     H129561   2.163   1.570   5.473
 9773WAT     H229562   2.099   1.637   5.338
 9774WAT      O29563   4.854   2.222   8.380
 9774WAT     H129564   4.927   2.288   8.365
 9774WAT     H229565   4.788   2.228   8.304
 9775WAT      O29566   5.055   7.604   3.016
 9775WAT     H129567   5.096   7.514   3.009
 9775WAT     H229568   4.976   7.610   2.955
 9776WAT      O29569   2.686   9.529   6.152
 9776WAT     H129570   2.659   9.458   6.087
 9776WAT     H229571   2.607   9.558   6.205
 9777WAT      O29572   4.095   9.037   5.094
 9777WAT     H129573   4.080   9.053   5.192
 9777WAT     H229574   4.191   9.016   5.078
 9778WAT      O29575   0.025   2.915   1.679
 9778WAT     H129576  -0.010   2.850   1.746
 9778WAT     H229577   0.118   2.890   1.653
 9779WAT      O29578   7.384   0.590   9.404
 9779WAT     H129579   7.482   0.605   9.396
 9779WAT     H229580   7.365   0.525   9.477
 9780WAT      O29581   4.682   8.004   8.552
 9780WAT     H129582   4.616   7.936   8.585
 9780WAT     H229583   4.707   7.982   8.458
 9781WAT      O29584   9.397   9.771   2.917
 9781WAT     H129585   9.414   9.683   2.873
 9781WAT     H229586   9.299   9.781   2.934
 9782WAT      O29587   8.423   5.834   7.688
 9782WAT     H129588   8.332   5.836   7.647
 9782WAT     H229589   8.419   5.873   7.780
 9783WAT      O29590   3.941   6.864   4.300
 9783WAT     H129591   4.025   6.817   4.270
 9783WAT     H229592   3.896   6.905   4.221
 9784WAT      O29593   1.298   9.835   8.720
 9784WAT     H129594   1.256   9.925   8.725
 9784WAT     H229595   1.270   9.781   8.799
 9785WAT      O29596   8.922   2.217   5.429
 9785WAT     H129597   8.936   2.295   5.490
 9785WAT     H229598   9.009   2.194   5.385
 9786WAT      O29599   0.224   3.522   7.035
 9786WAT     H129600   0.177   3.434   7.036
 9786WAT     H229601   0.261   3.540   6.944
 9787WAT      O29602   7.253   8.558   3.186
 9787WAT     H129603   7.257   8.505   3.271
 9787WAT     H229604   7.293   8.504   3.112
 9788WAT      O29605   0.009   7.013   3.260
 9788WAT     H129606   0.044   7.022   3.167
 9788WAT     H229607  -0.076   6.961   3.258
 9789WAT      O29608   3.465   8.850   0.344
 9789WAT     H129609   3.468   8.872   0.246
 9789WAT     H229610   3.384   8.894   0.385
 9790WAT      O29611   0.599   5.522   3.842
 9790WAT     H129612   0.573   5.573   3.924
 9790WAT     H229613   0.552   5.559   3.762
 9791WAT      O29614   2.836   7.787   0.026
 9791WAT     H129615   2.860   7.800   0.123
 9791WAT     H229616   2.918   7.768  -0.027
 9792WAT      O29617   7.418   6.149   6.021
 9792WAT     H129618   7.424   6.063   6.071
 9792WAT     H229619   7.456   6.138   5.929
 9793WAT      O29620   9.537   7.256   1.329
 9793WAT     H129621   9.613   7.261   1.264
 9793WAT     H229622   9.555   7.317   1.406
 9794WAT      O29623   6.998   1.368   2.410
 9794WAT     H129624   6.972   1.452   2.361
 9794WAT     H229625   6.998   1.291   2.346
 9795WAT      O29626   1.546   7.600   3.420
 9795WAT     H129627   1.475   7.566   3.359
 9795WAT     H229628   1.535   7.699   3.433
 9796WAT      O29629   0.827   3.583   3.529
 9796WAT     H129630   0.822   3.620   3.621
 9796WAT     H229631   0.791   3.490   3.528
 9797WAT      O29632   8.523   1.588   7.896
 9797WAT     H129633   8.448   1.621   7.838
 9797WAT     H229634   8.513   1.625   7.988
 9798WAT      O29635   5.964   3.947   6.052
 9798WAT     H129636   6.024   3.960   6.131
 9798WAT     H229637   5.874   3.919   6.083
 9799WAT      O29638   2.548   4.395   0.796
 9799WAT     H129639   2.507   4.486   0.802
 9799WAT     H229640   2.621   4.386   0.864
 9800WAT      O29641   6.991   3.911   8.623
 9800WAT     H129642   7.086   3.915   8.590
 9800WAT     H229643   6.939   3.847   8.567
 9801WAT      O29644   9.710   9.621   0.252
 9801WAT     H129645   9.788   9.639   0.312
 9801WAT     H229646   9.658   9.706   0.240
 9802WAT      O29647   9.685   4.025   9.287
 9802WAT     H129648   9.713   4.117   9.260
 9802WAT     H229649   9.606   4.031   9.348
 9803WAT      O29650   9.115   8.594   9.653
 9803WAT     H129651   9.026   8.551   9.640
 9803WAT     H229652   9.185   8.541   9.604
 9804WAT      O29653   8.816   0.603   7.707
 9804WAT     H129654   8.776   0.684   7.749
 9804WAT     H229655   8.911   0.593   7.738
 9805WAT      O29656   9.882   5.407   8.874
 9805WAT     H129657   9.915   5.319   8.907
 9805WAT     H229658   9.806   5.392   8.810
 9806WAT      O29659   6.914   8.252   8.397
 9806WAT     H129660   6.993   8.288   8.348
 9806WAT     H229661   6.909   8.153   8.385
 9807WAT      O29662   0.010   9.185   7.649
 9807WAT     H129663  -0.083   9.214   7.670
 9807WAT     H229664   0.036   9.217   7.558
 9808WAT      O29665   1.785   6.817   3.472
 9808WAT     H129666   1.785   6.719   3.491
 9808WAT     H229667   1.858   6.839   3.408
 9809WAT      O29668   2.495   2.317   0.816
 9809WAT     H129669   2.443   2.232   0.824
 9809WAT     H229670   2.437   2.394   0.842
 9810WAT      O29671   4.820   6.971   7.838
 9810WAT     H129672   4.741   6.960   7.898
 9810WAT     H229673   4.855   6.881   7.812
 9811WAT      O29674   8.325   4.627   9.885
 9811WAT     H129675   8.420   4.614   9.915
 9811WAT     H229676   8.304   4.725   9.883
 9812WAT      O29677   3.373   8.934   8.387
 9812WAT     H129678   3.396   8.927   8.484
 9812WAT     H229679   3.449   8.975   8.338
 9813WAT      O29680   3.153   1.301   1.358
 9813WAT     H129681   3.189   1.395   1.359
 9813WAT     H229682   3.054   1.304   1.347
 9814WAT      O29683   2.494   2.536   0.970
 9814WAT     H129684   2.517   2.487   1.054
 9814WAT     H229685   2.486   2.634   0.989
 9815WAT      O29686   6.061   0.839   3.180
 9815WAT     H129687   6.026   0.758   3.134
 9815WAT     H229688   6.139   0.876   3.129
 9816WAT      O29689   3.095   2.658   7.982
 9816WAT     H129690   3.072   2.718   8.059
 9816WAT     H229691   3.038   2.683   7.904
 9817WAT      O29692   6.654   8.241   4.382
 9817WAT     H129693   6.740   8.219   4.335
 9817WAT     H229694   6.672   8.248   4.481
 9818WAT      O29695   1.195   4.506   7.608
 9818WAT     H129696   1.099   4.500   7.633
 9818WAT     H229697   1.252   4.493   7.690
 9819WAT      O29698   3.890   8.094   1.092
 9819WAT     H129699   3.816   8.071   1.029
 9819WAT     H229700   3.867   8.061   1.183
 9820WAT      O29701   9.185   2.106   3.951
 9820WAT     H129702   9.109   2.095   4.015
 9820WAT     H229703   9.228   2.017   3.935
 9821WAT      O29704   5.032   6.394   2.984
 9821WAT     H129705   4.971   6.381   2.905
 9821WAT     H229706   5.125   6.414   2.951
 9822WAT      O29707   2.012   2.885   3.491
 9822WAT     H129708   1.986   2.800   3.537
 9822WAT     H229709   2.023   2.958   3.558
 9823WAT      O29710   0.134   8.306   7.033
 9823WAT     H129711   0.160   8.370   7.105
 9823WAT     H229712   0.130   8.354   6.945
 9824WAT      O29713   2.546   1.125   3.506
 9824WAT     H129714   2.596   1.042   3.481
 9824WAT     H229715   2.471   1.140   3.441
 9825WAT      O29716   3.768   3.300   9.844
 9825WAT     H129717   3.840   3.249   9.796
 9825WAT     H229718   3.798   3.395   9.856
 9826WAT      O29719   3.103   4.523   3.222
 9826WAT     H129720   3.125   4.512   3.318
 9826WAT     H229721   3.162   4.593   3.182
 9827WAT      O29722   2.399   1.468   3.586
 9827WAT     H129723   2.473   1.486   3.650
 9827WAT     H229724   2.376   1.552   3.537
 9828WAT      O29725   4.554   1.928   4.614
 9828WAT     H129726   4.598   1.900   4.529
 9828WAT     H229727   4.617   1.986   4.666
 9829WAT      O29728   6.537   2.239   5.488
 9829WAT     H129729   6.637   2.230   5.495
 9829WAT     H229730   6.503   2.292   5.566
 9830WAT      O29731   3.490   2.849   8.260
 9830WAT     H129732   3.461   2.754   8.250
 9830WAT     H229733   3.436   2.907   8.199
 9831WAT      O29734   7.625   7.806   2.324
 9831WAT     H129735   7.703   7.748   2.348
 9831WAT     H229736   7.654   7.875   2.258
 9832WAT      O29737   5.844   9.317   3.342
 9832WAT     H129738   5.826   9.270   3.255
 9832WAT     H229739   5.885   9.252   3.406
 9833WAT      O29740   1.771   8.851   9.855
 9833WAT     H129741   1.695   8.896   9.810
 9833WAT     H229742   1.797   8.902   9.937
 9834WAT      O29743   8.543   8.704   8.016
 9834WAT     H129744   8.531   8.738   8.109
 9834WAT     H229745   8.492   8.619   8.004
 9835WAT      O29746   6.918   7.756   3.949
 9835WAT     H129747   6.897   7.732   3.854
 9835WAT     H229748   6.979   7.687   3.989
 9836WAT      O29749   4.497   5.077   4.521
 9836WAT     H129750   4.477   5.175   4.527
 9836WAT     H229751   4.475   5.044   4.429
 9837WAT      O29752   7.718   4.312   9.240
 9837WAT     H129753   7.650   4.315   9.166
 9837WAT     H229754   7.740   4.217   9.261
 9838WAT      O29755   1.054   0.102   5.140
 9838WAT     H129756   1.099   0.020   5.106
 9838WAT     H229757   1.115   0.181   5.132
 9839WAT      O29758   0.429   4.901   8.372
 9839WAT     H129759   0.445   4.809   8.338
 9839WAT     H229760   0.478   4.913   8.459
 9840WAT      O29761   9.449   4.579   7.660
 9840WAT     H129762   9.465   4.563   7.757
 9840WAT     H229763   9.387   4.657   7.649
 9841WAT      O29764   0.258   7.506   1.071
 9841WAT     H129765   0.314   7.579   1.109
 9841WAT     H229766   0.316   7.427   1.049
 9842WAT      O29767   3.967   3.924   1.884
 9842WAT     H129768   3.879   3.882   1.860
 9842WAT     H229769   3.986   3.909   1.981
 9843WAT      O29770   5.177   6.572   7.264
 9843WAT     H129771   5.226   6.503   7.317
 9843WAT     H229772   5.238   6.609   7.193
 9844WAT      O29773   0.607   6.374   7.453
 9844WAT     H129774   0.577   6.279   7.464
 9844WAT     H229775   0.605   6.398   7.356
 9845WAT      O29776   6.761   7.565   4.644
 9845WAT     H129777   6.708   7.484   4.616
 9845WAT     H229778   6.802   7.549   4.734
 9846WAT      O29779   6.462   0.991   4.623
 9846WAT     H129780   6.554   1.029   4.612
 9846WAT     H229781   6.394   1.059   4.597
 9847WAT      O29782   4.066   2.387   0.341
 9847WAT     H129783   4.039   2.399   0.246
 9847WAT     H229784   3.992   2.342   0.391
 9848WAT      O29785   5.906   2.250   6.366
 9848WAT     H129786   5.888   2.168   6.312
 9848WAT     H229787   6.002   2.251   6.395
 9849WAT      O29788   5.799   6.732   9.406
 9849WAT     H129789   5.794   6.719   9.505
 9849WAT     H229790   5.891   6.709   9.374
 9850WAT      O29791   4.874   9.751   8.196
 9850WAT     H129792   4.955   9.805   8.174
 9850WAT     H229793   4.869   9.672   8.134
 9851WAT      O29794   1.102   3.071   6.280
 9851WAT     H129795   1.033   3.083   6.208
 9851WAT     H229796   1.117   2.973   6.295
 9852WAT      O29797   4.972   3.917   6.895
 9852WAT     H129798   5.063   3.912   6.854
 9852WAT     H229799   4.972   3.982   6.972
 9853WAT      O29800   8.150   1.907   3.091
 9853WAT     H129801   8.181   1.859   3.174
 9853WAT     H229802   8.219   1.895   3.019
 9854WAT      O29803   1.829   3.497   9.323
 9854WAT     H129804   1.922   3.528   9.340
 9854WAT     H229805   1.772   3.574   9.296
 9855WAT      O29806   5.622   7.331   7.351
 9855WAT     H129807   5.586   7.288   7.434
 9855WAT     H229808   5.701   7.280   7.319
 9856WAT      O29809   3.723   9.116   7.093
 9856WAT     H129810   3.705   9.019   7.075
 9856WAT     H229811   3.687   9.171   7.017
 9857WAT      O29812   1.045   3.000   8.986
 9857WAT     H129813   1.126   2.995   9.046
 9857WAT     H229814   1.045   2.923   8.923
 9858WAT      O29815   9.765   2.657   3.882
 9858WAT     H129816   9.713   2.590   3.934
 9858WAT     H229817   9.737   2.654   3.786
 9859WAT      O29818   6.272   7.612   4.532
 9859WAT     H129819   6.300   7.708   4.532
 9859WAT     H229820   6.203   7.597   4.462
 9860WAT      O29821   1.472   7.926   0.489
 9860WAT     H129822   1.378   7.913   0.521
 9860WAT     H229823   1.503   7.844   0.441
 9861WAT      O29824   8.808   4.370   3.767
 9861WAT     H129825   8.897   4.323   3.761
 9861WAT     H229826   8.747   4.334   3.696
 9862WAT      O29827   1.336   4.538   8.114
 9862WAT     H129828   1.360   4.607   8.182
 9862WAT     H229829   1.369   4.449   8.145
 9863WAT      O29830   8.093   5.657   5.840
 9863WAT     H129831   8.160   5.592   5.875
 9863WAT     H229832   8.024   5.676   5.910
 9864WAT      O29833   5.402   5.082   4.483
 9864WAT     H129834   5.472   5.125   4.426
 9864WAT     H229835   5.345   5.153   4.526
 9865WAT      O29836   0.445   9.154   2.076
 9865WAT     H129837   0.437   9.084   2.005
 9865WAT     H229838   0.517   9.218   2.052
 9866WAT      O29839   5.167   2.076   0.541
 9866WAT     H129840   5.155   1.990   0.591
 9866WAT     H229841   5.080   2.103   0.499
 9867WAT      O29842   9.752   0.649   6.974
 9867WAT     H129843   9.722   0.596   6.894
 9867WAT     H229844   9.673   0.691   7.018
 9868WAT      O29845   1.615   8.721   0.313
 9868WAT     H129846   1.534   8.720   0.256
 9868WAT     H229847   1.622   8.809   0.360
 9869WAT      O29848   3.735   3.190   0.232
 9869WAT     H129849   3.831   3.172   0.256
 9869WAT     H229850   3.730   3.218   0.136
 9870WAT      O29851   7.867   2.263   2.760
 9870WAT     H129852   7.923   2.209   2.697
 9870WAT     H229853   7.875   2.360   2.737
 9871WAT      O29854   7.640   8.212   2.378
 9871WAT     H129855   7.632   8.293   2.320
 9871WAT     H229856   7.732   8.208   2.417
 9872WAT      O29857   6.039   7.794   1.592
 9872WAT     H129858   6.132   7.822   1.618
 9872WAT     H229859   6.044   7.716   1.530
 9873WAT      O29860   1.189   2.482   3.541
 9873WAT     H129861   1.186   2.392   3.497
 9873WAT     H229862   1.099   2.527   3.532
 9874WAT      O29863   5.534   8.073   0.284
 9874WAT     H129864   5.459   8.138   0.273
 9874WAT     H229865   5.553   8.029   0.197
 9875WAT      O29866   9.304   9.243   0.345
 9875WAT     H129867   9.316   9.318   0.281
 9875WAT     H229868   9.307   9.156   0.296
 9876WAT      O29869   8.444   7.872   1.333
 9876WAT     H129870   8.475   7.964   1.360
 9876WAT     H229871   8.464   7.808   1.406
 9877WAT      O29872   0.142   0.910   9.371
 9877WAT     H129873   0.239   0.926   9.393
 9877WAT     H229874   0.123   0.812   9.374
 9878WAT      O29875   4.077   1.555   5.462
 9878WAT     H129876   4.001   1.491   5.470
 9878WAT     H229877   4.042   1.645   5.436
 9879WAT      O29878   6.040   0.831   6.325
 9879WAT     H129879   6.016   0.806   6.418
 9879WAT     H229880   6.057   0.929   6.320
 9880WAT      O29881   9.440   0.810   7.594
 9880WAT     H129882   9.496   0.817   7.511
 9880WAT     H229883   9.381   0.890   7.602
 9881WAT      O29884   2.005   0.100   6.639
 9881WAT     H129885   2.100   0.120   6.663
 9881WAT     H229886   1.983   0.006   6.664
 9882WAT      O29887   1.059   1.919   4.987
 9882WAT     H129888   1.126   1.924   4.913
 9882WAT     H229889   0.972   1.957   4.955
 9883WAT      O29890   4.551   5.117   8.948
 9883WAT     H129891   4.547   5.065   9.033
 9883WAT     H229892   4.460   5.153   8.927
 9884WAT      O29893   1.228   3.868   7.240
 9884WAT     H129894   1.201   3.964   7.251
 9884WAT     H229895   1.275   3.856   7.153
 9885WAT      O29896   7.528   2.798   4.843
 9885WAT     H129897   7.555   2.753   4.758
 9885WAT     H229898   7.489   2.730   4.906
 9886WAT      O29899   5.682   8.344   1.677
 9886WAT     H129900   5.725   8.428   1.644
 9886WAT     H229901   5.719   8.266   1.627
 9887WAT      O29902   3.805   8.390   0.063
 9887WAT     H129903   3.750   8.344   0.133
 9887WAT     H229904   3.819   8.486   0.089
 9888WAT      O29905   5.574   0.143   0.886
 9888WAT     H129906   5.522   0.228   0.876
 9888WAT     H229907   5.664   0.165   0.923
 9889WAT      O29908   1.129   5.419   4.979
 9889WAT     H129909   1.089   5.433   5.070
 9889WAT     H229910   1.174   5.503   4.949
 9890WAT      O29911   2.491   6.219   3.281
 9890WAT     H129912   2.431   6.197   3.203
 9890WAT     H229913   2.436   6.250   3.358
 9891WAT      O29914   7.011   7.517   7.049
 9891WAT     H129915   6.944   7.446   7.067
 9891WAT     H229916   7.073   7.526   7.127
 9892WAT      O29917   7.443   5.709   3.589
 9892WAT     H129918   7.345   5.715   3.570
 9892WAT     H229919   7.465   5.759   3.673
 9893WAT      O29920   8.225   9.760   5.001
 9893WAT     H129921   8.265   9.763   4.909
 9893WAT     H229922   8.163   9.837   5.012
 9894WAT      O29923   3.857   4.320   7.301
 9894WAT     H129924   3.870   4.383   7.224
 9894WAT     H229925   3.770   4.272   7.291
 9895WAT      O29926   2.624   6.289   6.064
 9895WAT     H129927   2.555   6.217   6.062
 9895WAT     H229928   2.714   6.248   6.083
 9896WAT      O29929   4.033   3.655   2.520
 9896WAT     H129930   3.970   3.719   2.564
 9896WAT     H229931   4.084   3.605   2.590
 9897WAT      O29932   1.414   0.366   0.393
 9897WAT     H129933   1.347   0.374   0.466
 9897WAT     H229934   1.502   0.403   0.424
 9898WAT      O29935   5.267   2.951   6.550
 9898WAT     H129936   5.270   3.048   6.523
 9898WAT     H229937   5.187   2.908   6.509
 9899WAT      O29938   1.359   9.410   4.249
 9899WAT     H129939   1.416   9.410   4.332
 9899WAT     H229940   1.288   9.480   4.259
 9900WAT      O29941   9.671   0.377   2.663
 9900WAT     H129942   9.756   0.374   2.610
 9900WAT     H229943   9.679   0.444   2.736
 9901WAT      O29944   2.683   5.666   3.342
 9901WAT     H129945   2.683   5.739   3.411
 9901WAT     H229946   2.628   5.590   3.374
 9902WAT      O29947   9.445   1.939   8.340
 9902WAT     H129948   9.377   1.958   8.411
 9902WAT     H229949   9.406   1.874   8.274
 9903WAT      O29950   4.832   9.837   4.409
 9903WAT     H129951   4.890   9.841   4.327
 9903WAT     H229952   4.866   9.903   4.476
 9904WAT      O29953   5.882   9.572   1.469
 9904WAT     H129954   5.951   9.641   1.490
 9904WAT     H229955   5.908   9.485   1.511
 9905WAT      O29956   0.911   9.085   4.825
 9905WAT     H129957   0.954   9.175   4.817
 9905WAT     H229958   0.971   9.023   4.874
 9906WAT      O29959   8.725   9.211   0.999
 9906WAT     H129960   8.697   9.252   0.913
 9906WAT     H229961   8.666   9.134   1.021
 9907WAT      O29962   5.047   9.698   9.337
 9907WAT     H129963   4.963   9.749   9.318
 9907WAT     H229964   5.031   9.636   9.414
 9908WAT      O29965   0.775   2.591   6.399
 9908WAT     H129966   0.724   2.524   6.453
 9908WAT     H229967   0.870   2.563   6.392
 9909WAT      O29968   1.882   0.864   0.587
 9909WAT     H129969   1.904   0.961   0.596
 9909WAT     H229970   1.952   0.819   0.531
 9910WAT      O29971   5.107   5.698   3.133
 9910WAT     H129972   5.115   5.792   3.165
 9910WAT     H229973   5.058   5.644   3.202
 9911WAT      O29974   8.838   8.778   2.067
 9911WAT     H129975   8.839   8.851   2.135
 9911WAT     H229976   8.830   8.689   2.114
 9912WAT      O29977   2.223   9.749   4.436
 9912WAT     H129978   2.299   9.803   4.472
 9912WAT     H229979   2.255   9.694   4.358
 9913WAT      O29980   7.774   5.917   8.947
 9913WAT     H129981   7.792   5.957   9.037
 9913WAT     H229982   7.724   5.832   8.958
 9914WAT      O29983   1.294   1.965   6.050
 9914WAT     H129984   1.303   2.055   6.007
 9914WAT     H229985   1.307   1.974   6.149
 9915WAT      O29986   8.483   7.932   3.251
 9915WAT     H129987   8.393   7.976   3.251
 9915WAT     H229988   8.526   7.945   3.340
 9916WAT      O29989   0.508   8.432   7.033
 9916WAT     H129990   0.491   8.378   7.116
 9916WAT     H229991   0.600   8.412   6.998
 9917WAT      O29992   6.017   8.109   1.654
 9917WAT     H129993   5.983   8.203   1.662
 9917WAT     H229994   6.075   8.101   1.573
 9918WAT      O29995   0.008   1.528   0.286
 9918WAT     H129996   0.103   1.496   0.283
 9918WAT     H229997  -0.054   1.449   0.286
 9919WAT      O29998   5.453   0.980   9.607
 9919WAT     H129999   5.539   1.030   9.605
 9919WAT     H230000   5.379   1.038   9.575
 9920WAT      O30001   1.303   0.549   4.322
 9920WAT     H130002   1.215   0.547   4.369
 9920WAT     H230003   1.354   0.631   4.349
 9921WAT      O30004   6.063   2.419   5.580
 9921WAT     H130005   5.979   2.395   5.530
 9921WAT     H230006   6.038   2.464   5.666
 9922WAT      O30007   9.721   3.107   5.919
 9922WAT     H130008   9.715   3.029   5.857
 9922WAT     H230009   9.711   3.192   5.868
 9923WAT      O30010   2.498   0.065   9.153
 9923WAT     H130011   2.504   0.086   9.250
 9923WAT     H230012   2.519   0.148   9.100
 9924WAT      O30013   0.804   0.942   7.421
 9924WAT     H130014   0.754   0.967   7.338
 9924WAT     H230015   0.859   1.020   7.451
 9925WAT      O30016   6.394   1.716   2.098
 9925WAT     H130017   6.390   1.649   2.171
 9925WAT     H230018   6.318   1.700   2.034
 9926WAT      O30019   4.250   8.822   8.253
 9926WAT     H130020   4.284   8.916   8.262
 9926WAT     H230021   4.155   8.817   8.283
 9927WAT      O30022   4.935   4.343   4.127
 9927WAT     H130023   4.969   4.249   4.114
 9927WAT     H230024   4.840   4.339   4.158
 9928WAT      O30025   1.017   9.297   3.324
 9928WAT     H130026   1.100   9.244   3.345
 9928WAT     H230027   0.952   9.288   3.400
 9929WAT      O30028   6.992   1.566   6.270
 9929WAT     H130029   6.954   1.489   6.322
 9929WAT     H230030   7.067   1.533   6.212
 9930WAT      O30031   9.314   9.213   1.250
 9930WAT     H130032   9.330   9.245   1.344
 9930WAT     H230033   9.328   9.114   1.246
 9931WAT      O30034   1.370   4.695   0.530
 9931WAT     H130035   1.437   4.623   0.548
 9931WAT     H230036   1.321   4.717   0.614
 9932WAT      O30037   3.215   4.079   5.241
 9932WAT     H130038   3.292   4.074   5.177
 9932WAT     H230039   3.164   4.163   5.223
 9933WAT      O30040   6.045   3.357   1.158
 9933WAT     H130041   6.125   3.353   1.098
 9933WAT     H230042   6.003   3.266   1.163
 9934WAT      O30043   9.772   2.626   9.850
 9934WAT     H130044   9.717   2.548   9.819
 9934WAT     H230045   9.741   2.655   9.940
 9935WAT      O30046   2.263   3.964   8.138
 9935WAT     H130047   2.257   4.063   8.150
 9935WAT     H230048   2.223   3.918   8.218
 9936WAT      O30049   6.973   4.548   2.081
 9936WAT     H130050   6.959   4.485   2.004
 9936WAT     H230051   6.910   4.625   2.073
 9937WAT      O30052   2.366   2.346   6.408
 9937WAT     H130053   2.367   2.445   6.424
 9937WAT     H230054   2.366   2.298   6.495
 9938WAT      O30055   9.213   3.701   9.338
 9938WAT     H130056   9.130   3.658   9.372
 9938WAT     H230057   9.191   3.792   9.302
 9939WAT      O30058   7.817   5.190   4.114
 9939WAT     H130059   7.722   5.169   4.134
 9939WAT     H230060   7.858   5.239   4.191
 9940WAT      O30061   2.688   5.578   6.661
 9940WAT     H130062   2.631   5.655   6.689
 9940WAT     H230063   2.645   5.530   6.584
 9941WAT      O30064   9.110   9.749   7.634
 9941WAT     H130065   9.024   9.737   7.584
 9941WAT     H230066   9.099   9.717   7.728
 9942WAT      O30067   5.012   0.765   1.611
 9942WAT     H130068   5.021   0.671   1.643
 9942WAT     H230069   4.916   0.784   1.588
 9943WAT      O30070   8.995   3.577   9.432
 9943WAT     H130071   8.995   3.571   9.532
 9943WAT     H230072   8.905   3.604   9.399
 9944WAT      O30073   5.790   6.300   1.547
 9944WAT     H130074   5.737   6.338   1.472
 9944WAT     H230075   5.827   6.374   1.603
 9945WAT      O30076   9.860   8.707   8.703
 9945WAT     H130077   9.908   8.631   8.747
 9945WAT     H230078   9.915   8.742   8.628
 9946WAT      O30079   3.166   0.388   5.736
 9946WAT     H130080   3.228   0.394   5.814
 9946WAT     H230081   3.164   0.294   5.702
 9947WAT      O30082   7.571   5.551   1.815
 9947WAT     H130083   7.481   5.567   1.855
 9947WAT     H230084   7.634   5.624   1.843
 9948WAT      O30085   5.561   5.548   7.496
 9948WAT     H130086   5.603   5.509   7.414
 9948WAT     H230087   5.522   5.474   7.551
 9949WAT      O30088   0.727   9.030   3.334
 9949WAT     H130089   0.734   9.111   3.392
 9949WAT     H230090   0.805   8.970   3.352
 9950WAT      O30091   4.525   2.629   2.375
 9950WAT     H130092   4.436   2.674   2.363
 9950WAT     H230093   4.512   2.539   2.417
 9951WAT      O30094   5.178   8.544   0.645
 9951WAT     H130095   5.267   8.542   0.599
 9951WAT     H230096   5.174   8.471   0.713
 9952WAT      O30097   7.449   3.789   9.230
 9952WAT     H130098   7.484   3.867   9.282
 9952WAT     H230099   7.350   3.797   9.220
 9953WAT      O30100   8.444   6.768   7.261
 9953WAT     H130101   8.406   6.759   7.169
 9953WAT     H230102   8.372   6.750   7.329
 9954WAT      O30103   5.555   2.753   8.270
 9954WAT     H130104   5.554   2.853   8.273
 9954WAT     H230105   5.648   2.720   8.289
 9955WAT      O30106   8.305   0.981   3.725
 9955WAT     H130107   8.287   1.074   3.756
 9955WAT     H230108   8.388   0.947   3.769
 9956WAT      O30109   1.838   7.881   9.245
 9956WAT     H130110   1.911   7.948   9.228
 9956WAT     H230111   1.759   7.928   9.284
 9957WAT      O30112   6.544   4.426   0.667
 9957WAT     H130113   6.545   4.477   0.582
 9957WAT     H230114   6.579   4.333   0.651
 9958WAT      O30115   4.350   4.390   3.363
 9958WAT     H130116   4.384   4.457   3.297
 9958WAT     H230117   4.366   4.298   3.328
 9959WAT      O30118   3.517   8.002   5.529
 9959WAT     H130119   3.495   7.913   5.569
 9959WAT     H230120   3.440   8.065   5.543
 9960WAT      O30121   4.810   1.461   3.821
 9960WAT     H130122   4.811   1.379   3.764
 9960WAT     H230123   4.716   1.492   3.833
 9961WAT      O30124   5.650   9.292   5.714
 9961WAT     H130125   5.581   9.328   5.651
 9961WAT     H230126   5.718   9.363   5.734
 9962WAT      O30127   3.840   0.847   6.905
 9962WAT     H130128   3.924   0.882   6.865
 9962WAT     H230129   3.810   0.766   6.855
 9963WAT      O30130   7.708   0.049   9.077
 9963WAT     H130131   7.698   0.138   9.122
 9963WAT     H230132   7.638  -0.013   9.112
 9964WAT      O30133   8.596   0.936   3.301
 9964WAT     H130134   8.671   0.917   3.364
 9964WAT     H230135   8.633   0.961   3.212
 9965WAT      O30136   5.195   1.839   8.441
 9965WAT     H130137   5.292   1.832   8.417
 9965WAT     H230138   5.141   1.841   8.357
 9966WAT      O30139   1.445   8.948   9.565
 9966WAT     H130140   1.522   8.985   9.616
 9966WAT     H230141   1.459   8.964   9.467
 9967WAT      O30142   0.317   3.455   7.269
 9967WAT     H130143   0.289   3.487   7.178
 9967WAT     H230144   0.405   3.497   7.293
 9968WAT      O30145   8.288   2.961   4.749
 9968WAT     H130146   8.210   3.019   4.724
 9968WAT     H230147   8.269   2.913   4.834
 9969WAT      O30148   9.501   6.531   5.326
 9969WAT     H130149   9.412   6.514   5.368
 9969WAT     H230150   9.550   6.600   5.379
 9970WAT      O30151   4.612   6.770   5.022
 9970WAT     H130152   4.609   6.824   4.937
 9970WAT     H230153   4.615   6.673   5.000
 9971WAT      O30154   3.764   7.842   8.419
 9971WAT     H130155   3.693   7.789   8.372
 9971WAT     H230156   3.783   7.925   8.367
 9972WAT      O30157   7.237   4.551   1.252
 9972WAT     H130158   7.217   4.649   1.255
 9972WAT     H230159   7.320   4.535   1.198
 9973WAT      O30160   4.144   5.881   7.697
 9973WAT     H130161   4.193   5.947   7.754
 9973WAT     H230162   4.048   5.878   7.725
 9974WAT      O30163   4.630   6.013   5.851
 9974WAT     H130164   4.652   6.088   5.789
 9974WAT     H230165   4.619   5.929   5.799
 9975WAT      O30166   6.969   7.537   0.609
 9975WAT     H130167   7.054   7.589   0.600
 9975WAT     H230168   6.938   7.508   0.519
 9976WAT      O30169   9.249   2.251   7.450
 9976WAT     H130170   9.225   2.344   7.423
 9976WAT     H230171   9.311   2.254   7.528
 9977WAT      O30172   1.480   3.169   8.790
 9977WAT     H130173   1.402   3.142   8.733
 9977WAT     H230174   1.556   3.107   8.773
 9978WAT      O30175   8.488   8.154   5.272
 9978WAT     H130176   8.429   8.102   5.210
 9978WAT     H230177   8.487   8.111   5.363
 9979WAT      O30178   1.034   5.687   7.936
 9979WAT     H130179   1.040   5.786   7.946
 9979WAT     H230180   0.982   5.649   8.012
 9980WAT      O30181   4.055   4.651   4.007
 9980WAT     H130182   4.114   4.593   4.062
 9980WAT     H230183   3.960   4.621   4.016
 9981WAT      O30184   9.069   8.455   3.845
 9981WAT     H130185   9.013   8.415   3.918
 9981WAT     H230186   9.086   8.386   3.775
 9982WAT      O30187   3.911   6.878   5.414
 9982WAT     H130188   3.971   6.956   5.431
 9982WAT     H230189   3.818   6.911   5.397
 9983WAT      O30190   0.131   9.218   7.388
 9983WAT     H130191   0.172   9.127   7.398
 9983WAT     H230192   0.108   9.234   7.292
 9984WAT      O30193   8.860   3.437   4.349
 9984WAT     H130194   8.880   3.520   4.401
 9984WAT     H230195   8.944   3.400   4.311
 9985WAT      O30196   1.261   2.095   2.836
 9985WAT     H130197   1.294   2.144   2.917
 9985WAT     H230198   1.288   1.999   2.842
 9986WAT      O30199   9.588   5.689   1.338
 9986WAT     H130200   9.558   5.705   1.432
 9986WAT     H230201   9.685   5.665   1.337
 9987WAT      O30202   1.973   3.429   5.961
 9987WAT     H130203   1.896   3.403   5.902
 9987WAT     H230204   2.043   3.358   5.958
 9988WAT      O30205   7.681   9.130   1.398
 9988WAT     H130206   7.687   9.211   1.340
 9988WAT     H230207   7.751   9.134   1.469
 9989WAT      O30208   8.025   3.800   3.891
 9989WAT     H130209   8.063   3.809   3.983
 9989WAT     H230210   7.927   3.779   3.898
 9990WAT      O30211   4.283   1.541   7.895
 9990WAT     H130212   4.371   1.564   7.937
 9990WAT     H230213   4.284   1.446   7.865
 9991WAT      O30214   2.725   0.247   9.834
 9991WAT     H130215   2.761   0.322   9.890
 9991WAT     H230216   2.643   0.277   9.786
 9992WAT      O30217   2.894   3.729   9.219
 9992WAT     H130218   2.935   3.670   9.149
 9992WAT     H230219   2.916   3.691   9.310
 9993WAT      O30220   4.654   4.926   0.449
 9993WAT     H130221   4.699   5.010   0.419
 9993WAT     H230222   4.615   4.880   0.369
 9994WAT      O30223   4.099   3.102   5.727
 9994WAT     H130224   4.065   3.132   5.816
 9994WAT     H230225   4.023   3.085   5.665
 9995WAT      O30226   0.738   2.730   2.543
 9995WAT     H130227   0.738   2.815   2.596
 9995WAT     H230228   0.715   2.750   2.448
 9996WAT      O30229   6.868   9.512   0.501
 9996WAT     H130230   6.903   9.419   0.509
 9996WAT     H230231   6.911   9.571   0.570
 9997WAT      O30232   9.221   6.491   2.650
 9997WAT     H130233   9.274   6.434   2.712
 9997WAT     H230234   9.159   6.434   2.596
 9998WAT      O30235   1.146   7.328   7.263
 9998WAT     H130236   1.220   7.288   7.316
 9998WAT     H230237   1.084   7.256   7.232
 9999WAT      O30238   6.351   9.150   6.665
 9999WAT     H130239   6.407   9.074   6.632
 9999WAT     H230240   6.288   9.117   6.736
10000WAT      O30241   2.034   4.490   7.945
10000WAT     H130242   2.065   4.583   7.927
10000WAT     H230243   1.951   4.493   8.001
10001WAT      O30244   6.724   7.785   0.634
10001WAT     H130245   6.780   7.781   0.717
10001WAT     H230246   6.769   7.732   0.562
10002WAT      O30247   7.722   3.422   9.704
10002WAT     H130248   7.648   3.478   9.743
10002WAT     H230249   7.810   3.468   9.718
10003WAT      O30250   9.648   0.816   3.111
10003WAT     H130251   9.729   0.760   3.130
10003WAT     H230252   9.673   0.890   3.048
10004WAT      O30253   5.752   1.291   6.318
10004WAT     H130254   5.777   1.212   6.375
10004WAT     H230255   5.726   1.368   6.378
10005WAT      O30256   9.093   9.037   8.536
10005WAT     H130257   9.173   9.097   8.533
10005WAT     H230258   9.011   9.089   8.513
10006WAT      O30259   5.303   1.724   9.679
10006WAT     H130260   5.227   1.701   9.740
10006WAT     H230261   5.337   1.816   9.702
10007WAT      O30262   5.981   9.119   1.849
10007WAT     H130263   5.884   9.094   1.838
10007WAT     H230264   6.038   9.043   1.818
10008WAT      O30265   9.451   6.061   8.469
10008WAT     H130266   9.458   6.053   8.569
10008WAT     H230267   9.459   5.970   8.428
10009WAT      O30268   0.174   9.405   4.140
10009WAT     H130269   0.221   9.494   4.141
10009WAT     H230270   0.229   9.339   4.090
10010WAT      O30271   2.410   5.109   9.537
10010WAT     H130272   2.325   5.122   9.486
10010WAT     H230273   2.462   5.034   9.497
10011WAT      O30274   9.318   6.056   4.820
10011WAT     H130275   9.338   5.989   4.891
10011WAT     H230276   9.336   6.016   4.730
10012WAT      O30277   9.114   1.526   6.881
10012WAT     H130278   9.045   1.558   6.946
10012WAT     H230279   9.150   1.604   6.829
10013WAT      O30280   7.291   3.847   0.950
10013WAT     H130281   7.377   3.796   0.954
10013WAT     H230282   7.230   3.804   0.884
10014WAT      O30283   8.975   8.979   7.539
10014WAT     H130284   9.011   9.072   7.546
10014WAT     H230285   8.881   8.976   7.571
10015WAT      O30286   7.779   9.275   2.066
10015WAT     H130287   7.781   9.370   2.099
10015WAT     H230288   7.695   9.259   2.016
10016WAT      O30289   5.584   5.031   9.845
10016WAT     H130290   5.491   5.026   9.882
10016WAT     H230291   5.582   5.072   9.754
10017WAT      O30292   5.078   4.993   1.916
10017WAT     H130293   5.073   5.004   1.816
10017WAT     H230294   4.986   4.997   1.954
10018WAT      O30295   8.376   2.141   5.499
10018WAT     H130296   8.361   2.095   5.411
10018WAT     H230297   8.390   2.239   5.485
10019WAT      O30298   0.605   2.859   0.746
10019WAT     H130299   0.681   2.840   0.684
10019WAT     H230300   0.626   2.823   0.836
10020WAT      O30301   7.263   0.930   4.398
10020WAT     H130302   7.172   0.972   4.404
10020WAT     H230303   7.284   0.909   4.303
10021WAT      O30304   3.615   8.964   3.791
10021WAT     H130305   3.665   8.957   3.704
10021WAT     H230306   3.576   8.874   3.813
10022WAT      O30307   3.792   7.324   7.812
10022WAT     H130308   3.832   7.273   7.888
10022WAT     H230309   3.698   7.294   7.798
10023WAT      O30310   4.973   3.038   8.698
10023WAT     H130311   4.969   3.127   8.652
10023WAT     H230312   4.984   3.051   8.797
10024WAT      O30313   6.856   8.340   1.226
10024WAT     H130314   6.820   8.262   1.174
10024WAT     H230315   6.909   8.306   1.303
10025WAT      O30316   7.657   8.280   6.917
10025WAT     H130317   7.602   8.258   6.837
10025WAT     H230318   7.658   8.379   6.931
10026WAT      O30319   7.392   4.112   1.251
10026WAT     H130320   7.322   4.126   1.322
10026WAT     H230321   7.482   4.104   1.294
10027WAT      O30322   0.925   5.832   0.215
10027WAT     H130323   1.007   5.873   0.174
10027WAT     H230324   0.894   5.756   0.158
10028WAT      O30325   5.263   5.192   2.319
10028WAT     H130326   5.224   5.128   2.385
10028WAT     H230327   5.219   5.281   2.329
10029WAT      O30328   9.392   9.771   5.677
10029WAT     H130329   9.449   9.842   5.637
10029WAT     H230330   9.347   9.719   5.604
10030WAT      O30331   2.331   9.450   0.873
10030WAT     H130332   2.397   9.501   0.928
10030WAT     H230333   2.327   9.355   0.906
10031WAT      O30334   4.761   2.107   4.705
10031WAT     H130335   4.765   2.204   4.727
10031WAT     H230336   4.764   2.095   4.606
10032WAT      O30337   1.091   5.650   6.870
10032WAT     H130338   1.187   5.656   6.895
10032WAT     H230339   1.069   5.722   6.804
10033WAT      O30340   2.544   2.200   4.442
10033WAT     H130341   2.596   2.218   4.358
10033WAT     H230342   2.462   2.257   4.442
10034WAT      O30343   1.494   9.433   1.013
10034WAT     H130344   1.566   9.364   1.025
10034WAT     H230345   1.527   9.505   0.952
10035WAT      O30346   9.581   9.394   6.035
10035WAT     H130347   9.586   9.399   6.134
10035WAT     H230348   9.672   9.411   5.996
10036WAT      O30349   5.080   3.368   2.457
10036WAT     H130350   5.180   3.362   2.456
10036WAT     H230351   5.050   3.407   2.544
10037WAT      O30352   3.509   2.850   9.762
10037WAT     H130353   3.475   2.757   9.750
10037WAT     H230354   3.575   2.852   9.837
10038WAT      O30355   1.566   6.955   1.053
10038WAT     H130356   1.601   7.027   1.114
10038WAT     H230357   1.595   6.973   0.959
10039WAT      O30358   2.986   3.519   0.271
10039WAT     H130359   2.901   3.479   0.236
10039WAT     H230360   2.964   3.591   0.337
10040WAT      O30361   0.395   0.774   4.498
10040WAT     H130362   0.489   0.764   4.464
10040WAT     H230363   0.398   0.800   4.595
10041WAT      O30364   3.336   9.099   1.749
10041WAT     H130365   3.363   9.023   1.689
10041WAT     H230366   3.418   9.151   1.776
10042WAT      O30367   4.797   2.716   4.923
10042WAT     H130368   4.706   2.726   4.882
10042WAT     H230369   4.844   2.804   4.922
10043WAT      O30370   7.135   2.918   6.793
10043WAT     H130371   7.213   2.873   6.751
10043WAT     H230372   7.061   2.852   6.807
10044WAT      O30373   7.499   3.173   6.901
10044WAT     H130374   7.573   3.231   6.867
10044WAT     H230375   7.419   3.183   6.842
10045WAT      O30376   8.204   9.698   4.356
10045WAT     H130377   8.175   9.605   4.336
10045WAT     H230378   8.171   9.760   4.285
10046WAT      O30379   7.064   1.529   7.810
10046WAT     H130380   6.973   1.562   7.836
10046WAT     H230381   7.069   1.430   7.823
10047WAT      O30382   9.696   8.892   9.763
10047WAT     H130383   9.607   8.909   9.804
10047WAT     H230384   9.687   8.887   9.663
10048WAT      O30385   0.052   4.291   2.316
10048WAT     H130386   0.052   4.390   2.303
10048WAT     H230387   0.147   4.258   2.318
10049WAT      O30388   0.928   4.095   2.780
10049WAT     H130389   0.831   4.068   2.785
10049WAT     H230390   0.985   4.016   2.801
10050WAT      O30391   5.441   3.506   7.163
10050WAT     H130392   5.396   3.430   7.209
10050WAT     H230393   5.434   3.494   7.064
10051WAT      O30394   9.457   7.058   5.264
10051WAT     H130395   9.413   7.146   5.279
10051WAT     H230396   9.431   7.022   5.174
10052WAT      O30397   8.798   4.753   0.584
10052WAT     H130398   8.728   4.699   0.537
10052WAT     H230399   8.754   4.825   0.638
10053WAT      O30400   7.550   7.687   0.386
10053WAT     H130401   7.472   7.733   0.344
10053WAT     H230402   7.634   7.734   0.359
10054WAT      O30403   6.607   7.360   4.615
10054WAT     H130404   6.580   7.361   4.712
10054WAT     H230405   6.525   7.363   4.558
10055WAT      O30406   0.891   1.667   3.405
10055WAT     H130407   0.955   1.743   3.390
10055WAT     H230408   0.799   1.703   3.416
10056WAT      O30409   5.107   4.225   0.849
10056WAT     H130410   5.014   4.207   0.882
10056WAT     H230411   5.154   4.287   0.913
10057WAT      O30412   0.359   4.131   5.447
10057WAT     H130413   0.422   4.207   5.435
10057WAT     H230414   0.388   4.074   5.524
10058WAT      O30415   7.110   8.985   1.119
10058WAT     H130416   7.203   9.021   1.112
10058WAT     H230417   7.068   9.016   1.204
10059WAT      O30418   3.683   4.784   2.039
10059WAT     H130419   3.666   4.881   2.057
10059WAT     H230420   3.597   4.738   2.018
10060WAT      O30421   4.575   3.925   2.564
10060WAT     H130422   4.506   3.979   2.516
10060WAT     H230423   4.663   3.974   2.562
10061WAT      O30424   3.039   8.998   4.707
10061WAT     H130425   2.945   8.972   4.729
10061WAT     H230426   3.052   9.095   4.727
10062WAT      O30427   7.596   7.084   4.460
10062WAT     H130428   7.636   7.010   4.407
10062WAT     H230429   7.650   7.099   4.543
10063WAT      O30430   0.229   7.095   6.453
10063WAT     H130431   0.209   7.069   6.358
10063WAT     H230432   0.304   7.039   6.487
10064WAT      O30433   8.342   8.988   5.741
10064WAT     H130434   8.403   9.067   5.730
10064WAT     H230435   8.271   9.010   5.807
10065WAT      O30436   1.020   3.245   7.550
10065WAT     H130437   1.075   3.256   7.467
10065WAT     H230438   1.068   3.282   7.628
10066WAT      O30439   3.095   7.471   0.103
10066WAT     H130440   2.996   7.457   0.108
10066WAT     H230441   3.115   7.569   0.107
10067WAT      O30442   7.510   0.741   0.135
10067WAT     H130443   7.526   0.643   0.148
10067WAT     H230444   7.449   0.754   0.057
10068WAT      O30445   3.144   6.324   7.553
10068WAT     H130446   3.208   6.401   7.546
10068WAT     H230447   3.190   6.247   7.597
10069WAT      O30448   4.516   5.300   7.991
10069WAT     H130449   4.569   5.315   8.075
10069WAT     H230450   4.448   5.229   8.007
10070WAT      O30451   4.639   3.428   8.706
10070WAT     H130452   4.609   3.519   8.735
10070WAT     H230453   4.735   3.431   8.679
10071WAT      O30454   1.223   1.010   8.978
10071WAT     H130455   1.228   0.915   9.009
10071WAT     H230456   1.309   1.057   9.002
10072WAT      O30457   7.072   1.335   5.498
10072WAT     H130458   7.025   1.384   5.424
10072WAT     H230459   7.006   1.314   5.570
10073WAT      O30460   2.080   9.297   5.383
10073WAT     H130461   2.158   9.351   5.412
10073WAT     H230462   2.030   9.265   5.463
10074WAT      O30463   4.937   9.779   0.342
10074WAT     H130464   4.918   9.772   0.440
10074WAT     H230465   5.029   9.816   0.329
10075WAT      O30466   6.605   8.938   3.978
10075WAT     H130467   6.607   8.856   3.921
10075WAT     H230468   6.661   8.922   4.060
10076WAT      O30469   9.462   4.945   7.271
10076WAT     H130470   9.404   5.020   7.303
10076WAT     H230471   9.405   4.870   7.238
10077WAT      O30472   4.135   8.364   9.133
10077WAT     H130473   4.116   8.403   9.223
10077WAT     H230474   4.052   8.322   9.097
10078WAT      O30475   9.454   5.709   6.914
10078WAT     H130476   9.411   5.769   6.981
10078WAT     H230477   9.387   5.683   6.844
10079WAT      O30478   7.940   6.769   2.197
10079WAT     H130479   8.030   6.758   2.238
10079WAT     H230480   7.949   6.807   2.105
10080WAT      O30481   4.514   1.868   7.929
10080WAT     H130482   4.566   1.898   8.009
10080WAT     H230483   4.567   1.887   7.846
10081WAT      O30484   7.334   7.340   5.988
10081WAT     H130485   7.244   7.320   6.028
10081WAT     H230486   7.404   7.331   6.059
10082WAT      O30487   8.672   8.358   6.301
10082WAT     H130488   8.604   8.336   6.231
10082WAT     H230489   8.630   8.351   6.391
10083WAT      O30490   7.079   3.022   8.233
10083WAT     H130491   7.081   2.969   8.318
10083WAT     H230492   6.986   3.058   8.219
10084WAT      O30493   7.848   1.328   6.383
10084WAT     H130494   7.751   1.306   6.373
10084WAT     H230495   7.885   1.356   6.294
10085WAT      O30496   2.659   4.391   8.968
10085WAT     H130497   2.582   4.354   8.916
10085WAT     H230498   2.745   4.362   8.925
10086WAT      O30499   8.418   7.136   4.068
10086WAT     H130500   8.388   7.125   3.973
10086WAT     H230501   8.517   7.144   4.071
10087WAT      O30502   2.403   1.649   5.189
10087WAT     H130503   2.366   1.657   5.096
10087WAT     H230504   2.335   1.683   5.254
10088WAT      O30505   3.862   9.680   1.248
10088WAT     H130506   3.866   9.780   1.250
10088WAT     H230507   3.955   9.644   1.236
10089WAT      O30508   6.552   6.514   3.191
10089WAT     H130509   6.601   6.479   3.271
10089WAT     H230510   6.592   6.601   3.163
10090WAT      O30511   7.188   2.613   5.118
10090WAT     H130512   7.181   2.712   5.106
10090WAT     H230513   7.269   2.579   5.072
10091WAT      O30514   1.948   4.336   2.001
10091WAT     H130515   1.890   4.334   2.082
10091WAT     H230516   1.906   4.282   1.928
10092WAT      O30517   8.116   3.308   9.190
10092WAT     H130518   8.094   3.215   9.163
10092WAT     H230519   8.197   3.339   9.139
10093WAT      O30520   1.580   2.176   2.779
10093WAT     H130521   1.666   2.138   2.814
10093WAT     H230522   1.525   2.208   2.856
10094WAT      O30523   3.021   7.531   0.565
10094WAT     H130524   3.066   7.569   0.645
10094WAT     H230525   2.924   7.516   0.585
10095WAT      O30526   7.163   3.597   8.171
10095WAT     H130527   7.127   3.532   8.238
10095WAT     H230528   7.203   3.548   8.094
10096WAT      O30529   0.156   9.649   8.903
10096WAT     H130530   0.184   9.593   8.981
10096WAT     H230531   0.201   9.738   8.909
10097WAT      O30532   0.930   4.802   4.548
10097WAT     H130533   0.995   4.727   4.540
10097WAT     H230534   0.969   4.874   4.605
10098WAT      O30535   6.233   3.673   3.422
10098WAT     H130536   6.215   3.688   3.519
10098WAT     H230537   6.229   3.761   3.374
10099WAT      O30538   0.016   3.927   0.659
10099WAT     H130539  -0.047   3.890   0.592
10099WAT     H230540  -0.034   3.954   0.741
10100WAT      O30541   7.366   5.610   8.954
10100WAT     H130542   7.344   5.544   8.883
10100WAT     H230543   7.310   5.692   8.942
10101WAT      O30544   4.675   9.628   5.378
10101WAT     H130545   4.685   9.690   5.300
10101WAT     H230546   4.765   9.588   5.400
10102WAT      O30547   6.611   6.394   1.625
10102WAT     H130548   6.693   6.450   1.637
10102WAT     H230549   6.626   6.329   1.551
10103WAT      O30550   5.692   2.563   1.053
10103WAT     H130551   5.600   2.594   1.033
10103WAT     H230552   5.712   2.577   1.150
10104WAT      O30553   6.378   8.835   8.706
10104WAT     H130554   6.289   8.789   8.716
10104WAT     H230555   6.381   8.914   8.767
10105WAT      O30556   0.557   6.146   2.408
10105WAT     H130557   0.606   6.178   2.327
10105WAT     H230558   0.571   6.210   2.484
10106WAT      O30559   3.897   4.355   5.978
10106WAT     H130560   3.819   4.403   6.019
10106WAT     H230561   3.938   4.412   5.907
10107WAT      O30562   6.757   8.746   8.448
10107WAT     H130563   6.807   8.757   8.362
10107WAT     H230564   6.680   8.809   8.450
10108WAT      O30565   4.662   3.090   0.603
10108WAT     H130566   4.682   3.173   0.656
10108WAT     H230567   4.609   3.027   0.660
10109WAT      O30568   5.999   4.406   1.039
10109WAT     H130569   5.988   4.480   1.104
10109WAT     H230570   6.057   4.335   1.079
10110WAT      O30571   9.697   4.527   2.653
10110WAT     H130572   9.693   4.428   2.645
10110WAT     H230573   9.672   4.555   2.746
10111WAT      O30574   0.834   4.466   9.430
10111WAT     H130575   0.829   4.561   9.462
10111WAT     H230576   0.899   4.415   9.487
10112WAT      O30577   3.003   0.756   0.455
10112WAT     H130578   2.929   0.690   0.453
10112WAT     H230579   3.078   0.725   0.396
10113WAT      O30580   4.381   6.098   5.095
10113WAT     H130581   4.403   6.017   5.042
10113WAT     H230582   4.342   6.071   5.183
10114WAT      O30583   8.218   9.581   8.006
10114WAT     H130584   8.134   9.550   7.962
10114WAT     H230585   8.196   9.618   8.097
10115WAT      O30586   7.605   6.422   2.777
10115WAT     H130587   7.635   6.355   2.845
10115WAT     H230588   7.609   6.514   2.817
10116WAT      O30589   1.338   4.763   2.127
10116WAT     H130590   1.289   4.729   2.046
10116WAT     H230591   1.427   4.799   2.098
10117WAT      O30592   9.527   4.581   9.140
10117WAT     H130593   9.603   4.633   9.179
10117WAT     H230594   9.551   4.484   9.137
10118WAT      O30595   4.995   6.698   8.668
10118WAT     H130596   4.964   6.791   8.647
10118WAT     H230597   4.990   6.682   8.766
10119WAT      O30598   2.556   5.964   0.311
10119WAT     H130599   2.561   6.003   0.403
10119WAT     H230600   2.499   5.881   0.314
10120WAT      O30601   2.377   9.100   3.974
10120WAT     H130602   2.400   9.196   3.960
10120WAT     H230603   2.451   9.043   3.939
10121WAT      O30604   5.996   1.897   5.241
10121WAT     H130605   5.935   1.960   5.194
10121WAT     H230606   5.943   1.821   5.277
10122WAT      O30607   5.723   4.641   8.063
10122WAT     H130608   5.752   4.702   8.137
10122WAT     H230609   5.785   4.563   8.057
10123WAT      O30610   2.659   6.421   3.808
10123WAT     H130611   2.752   6.456   3.811
10123WAT     H230612   2.604   6.465   3.879
10124WAT      O30613   3.085   1.973   0.850
10124WAT     H130614   3.051   2.066   0.863
10124WAT     H230615   3.067   1.919   0.932
10125WAT      O30616   9.082   2.941   0.932
10125WAT     H130617   9.070   2.912   0.837
10125WAT     H230618   8.993   2.960   0.973
10126WAT      O30619   0.925   9.561   4.911
10126WAT     H130620   0.913   9.644   4.857
10126WAT     H230621   0.962   9.489   4.853
10127WAT      O30622   3.029   8.325   4.965
10127WAT     H130623   3.081   8.258   5.017
10127WAT     H230624   3.051   8.316   4.868
10128WAT      O30625   3.390   8.650   2.371
10128WAT     H130626   3.464   8.717   2.372
10128WAT     H230627   3.406   8.581   2.442
10129WAT      O30628   3.305   9.806   3.555
10129WAT     H130629   3.367   9.845   3.487
10129WAT     H230630   3.213   9.842   3.540
10130WAT      O30631   1.173   7.607   0.087
10130WAT     H130632   1.211   7.596  -0.005
10130WAT     H230633   1.197   7.697   0.123
10131WAT      O30634   3.255   6.173   7.754
10131WAT     H130635   3.324   6.212   7.815
10131WAT     H230636   3.255   6.073   7.764
10132WAT      O30637   4.830   4.524   6.214
10132WAT     H130638   4.899   4.525   6.141
10132WAT     H230639   4.842   4.441   6.270
10133WAT      O30640   5.379   2.912   8.684
10133WAT     H130641   5.348   3.007   8.690
10133WAT     H230642   5.478   2.910   8.677
10134WAT      O30643   3.915   4.752   2.252
10134WAT     H130644   3.925   4.834   2.196
10134WAT     H230645   3.818   4.732   2.266
10135WAT      O30646   5.699   1.106   4.833
10135WAT     H130647   5.615   1.154   4.808
10135WAT     H230648   5.741   1.150   4.913
10136WAT      O30649   2.232   8.146   6.580
10136WAT     H130650   2.306   8.158   6.513
10136WAT     H230651   2.240   8.216   6.651
10137WAT      O30652   1.131   9.628   5.942
10137WAT     H130653   1.044   9.661   5.980
10137WAT     H230654   1.153   9.540   5.984
10138WAT      O30655   1.372   1.086   6.876
10138WAT     H130656   1.434   1.110   6.801
10138WAT     H230657   1.396   1.138   6.958
10139WAT      O30658   8.816   8.350   1.644
10139WAT     H130659   8.910   8.383   1.636
10139WAT     H230660   8.755   8.427   1.663
10140WAT      O30661   7.058   1.261   3.142
10140WAT     H130662   6.968   1.252   3.099
10140WAT     H230663   7.129   1.227   3.080
10141WAT      O30664   6.010   6.536   5.394
10141WAT     H130665   5.964   6.450   5.416
10141WAT     H230666   5.992   6.602   5.467
10142WAT      O30667   5.611   3.529   4.726
10142WAT     H130668   5.561   3.554   4.808
10142WAT     H230669   5.602   3.602   4.657
10143WAT      O30670   2.132   3.178   4.093
10143WAT     H130671   2.096   3.114   4.025
10143WAT     H230672   2.188   3.127   4.159
10144WAT      O30673   5.165   0.065   0.282
10144WAT     H130674   5.241   0.023   0.331
10144WAT     H230675   5.188   0.159   0.258
10145WAT      O30676   2.339   8.681   2.287
10145WAT     H130677   2.327   8.644   2.380
10145WAT     H230678   2.272   8.638   2.226
10146WAT      O30679   0.050   0.110   8.801
10146WAT     H130680   0.105   0.088   8.721
10146WAT     H230681   0.106   0.105   8.884
10147WAT      O30682   6.431   1.006   2.095
10147WAT     H130683   6.408   1.037   2.003
10147WAT     H230684   6.401   0.912   2.108
10148WAT      O30685   2.674   2.447   6.503
10148WAT     H130686   2.658   2.545   6.513
10148WAT     H230687   2.615   2.410   6.431
10149WAT      O30688   5.790   0.480   6.527
10149WAT     H130689   5.729   0.552   6.561
10149WAT     H230690   5.870   0.523   6.484
10150WAT      O30691   9.491   6.268   4.911
10150WAT     H130692   9.527   6.338   4.849
10150WAT     H230693   9.438   6.202   4.859
10151WAT      O30694   3.746   9.312   9.708
10151WAT     H130695   3.836   9.355   9.696
10151WAT     H230696   3.707   9.340   9.795
10152WAT      O30697   5.074   2.621   0.668
10152WAT     H130698   5.127   2.597   0.749
10152WAT     H230699   4.977   2.623   0.691
10153WAT      O30700   1.098   5.846   6.689
10153WAT     H130701   1.176   5.887   6.642
10153WAT     H230702   1.013   5.892   6.661
10154WAT      O30703   6.372   7.010   7.369
10154WAT     H130704   6.469   7.022   7.347
10154WAT     H230705   6.340   6.924   7.332
10155WAT      O30706   9.579   7.260   5.943
10155WAT     H130707   9.557   7.314   5.862
10155WAT     H230708   9.665   7.212   5.928
10156WAT      O30709   7.663   4.162   2.185
10156WAT     H130710   7.612   4.159   2.271
10156WAT     H230711   7.752   4.204   2.201
10157WAT      O30712   9.069   7.059   0.040
10157WAT     H130713   9.084   7.091  -0.054
10157WAT     H230714   9.025   6.970   0.038
10158WAT      O30715   0.908   6.123   4.365
10158WAT     H130716   0.957   6.209   4.352
10158WAT     H230717   0.888   6.110   4.462
10159WAT      O30718   9.494   1.839   4.129
10159WAT     H130719   9.408   1.819   4.177
10159WAT     H230720   9.499   1.938   4.112
10160WAT      O30721   6.675   8.793   2.849
10160WAT     H130722   6.748   8.731   2.877
10160WAT     H230723   6.596   8.781   2.910
10161WAT      O30724   0.930   9.527   4.015
10161WAT     H130725   0.965   9.442   4.054
10161WAT     H230726   0.848   9.508   3.961
10162WAT      O30727   5.500   0.373   7.346
10162WAT     H130728   5.451   0.286   7.339
10162WAT     H230729   5.560   0.384   7.267
10163WAT      O30730   3.082   1.872   4.504
10163WAT     H130731   2.983   1.865   4.492
10163WAT     H230732   3.108   1.828   4.590
10164WAT      O30733   3.315   2.594   8.168
10164WAT     H130734   3.248   2.627   8.102
10164WAT     H230735   3.267   2.545   8.241
10165WAT      O30736   0.879   7.068   0.578
10165WAT     H130737   0.944   7.112   0.515
10165WAT     H230738   0.928   7.000   0.633
10166WAT      O30739   5.439   8.554   9.680
10166WAT     H130740   5.483   8.625   9.627
10166WAT     H230741   5.475   8.555   9.774
10167WAT      O30742   6.226   6.528   2.929
10167WAT     H130743   6.258   6.539   3.023
10167WAT     H230744   6.174   6.609   2.902
10168WAT      O30745   0.284   3.635   0.972
10168WAT     H130746   0.194   3.615   0.933
10168WAT     H230747   0.318   3.721   0.933
10169WAT      O30748   5.939   1.749   6.760
10169WAT     H130749   5.893   1.682   6.701
10169WAT     H230750   6.038   1.742   6.747
10170WAT      O30751   5.290   3.508   6.538
10170WAT     H130752   5.365   3.452   6.503
10170WAT     H230753   5.323   3.564   6.614
10171WAT      O30754   6.479   2.434   7.619
10171WAT     H130755   6.575   2.440   7.592
10171WAT     H230756   6.439   2.351   7.582
10172WAT      O30757   8.868   9.577   6.018
10172WAT     H130758   8.923   9.555   5.938
10172WAT     H230759   8.829   9.493   6.057
10173WAT      O30760   1.115   3.479   3.277
10173WAT     H130761   1.125   3.513   3.184
10173WAT     H230762   1.192   3.509   3.333
10174WAT      O30763   2.793   8.293   4.646
10174WAT     H130764   2.742   8.353   4.707
10174WAT     H230765   2.754   8.201   4.650
10175WAT      O30766   1.572   5.441   3.400
10175WAT     H130767   1.641   5.436   3.328
10175WAT     H230768   1.497   5.379   3.378
10176WAT      O30769   8.974   7.956   6.566
10176WAT     H130770   8.921   7.872   6.562
10176WAT     H230771   8.944   8.018   6.493
10177WAT      O30772   2.598   5.670   5.510
10177WAT     H130773   2.671   5.603   5.519
10177WAT     H230774   2.510   5.626   5.530
10178WAT      O30775   4.016   2.794   8.908
10178WAT     H130776   3.990   2.882   8.868
10178WAT     H230777   4.020   2.803   9.007
10179WAT      O30778   2.166   9.048   2.151
10179WAT     H130779   2.117   8.961   2.158
10179WAT     H230780   2.101   9.124   2.154
10180WAT      O30781   1.022   2.394   2.557
10180WAT     H130782   1.091   2.357   2.619
10180WAT     H230783   1.004   2.328   2.484
10181WAT      O30784   3.800   3.450   4.770
10181WAT     H130785   3.770   3.511   4.696
10181WAT     H230786   3.900   3.445   4.771
10182WAT      O30787   7.925   8.582   3.682
10182WAT     H130788   8.002   8.554   3.625
10182WAT     H230789   7.894   8.505   3.737
10183WAT      O30790   7.292   6.562   9.268
10183WAT     H130791   7.231   6.639   9.287
10183WAT     H230792   7.384   6.583   9.300
10184WAT      O30793   1.344   5.192   3.768
10184WAT     H130794   1.260   5.243   3.755
10184WAT     H230795   1.327   5.095   3.753
10185WAT      O30796   0.208   9.100   1.760
10185WAT     H130797   0.154   9.062   1.685
10185WAT     H230798   0.170   9.189   1.788
10186WAT      O30799   3.191   9.322   5.795
10186WAT     H130800   3.265   9.261   5.766
10186WAT     H230801   3.220   9.373   5.876
10187WAT      O30802   5.084   4.234   2.758
10187WAT     H130803   5.050   4.281   2.676
10187WAT     H230804   5.011   4.229   2.826
10188WAT      O30805   3.899   8.247   1.457
10188WAT     H130806   3.899   8.311   1.380
10188WAT     H230807   3.962   8.280   1.527
10189WAT      O30808   5.450   0.493   1.888
10189WAT     H130809   5.504   0.494   1.804
10189WAT     H230810   5.450   0.401   1.926
10190WAT      O30811   2.905   4.728   3.876
10190WAT     H130812   2.841   4.685   3.939
10190WAT     H230813   2.854   4.777   3.805
10191WAT      O30814   8.822   1.733   4.115
10191WAT     H130815   8.818   1.634   4.099
10191WAT     H230816   8.916   1.764   4.106
10192WAT      O30817   9.753   9.179   7.240
10192WAT     H130818   9.656   9.156   7.233
10192WAT     H230819   9.763   9.278   7.252
10193WAT      O30820   5.707   1.749   0.777
10193WAT     H130821   5.758   1.830   0.807
10193WAT     H230822   5.746   1.667   0.818
10194WAT      O30823   1.737   6.090   8.489
10194WAT     H130824   1.692   6.032   8.421
10194WAT     H230825   1.668   6.144   8.537
10195WAT      O30826   7.975   2.891   5.396
10195WAT     H130827   7.907   2.822   5.422
10195WAT     H230828   8.066   2.851   5.399
10196WAT      O30829   5.162   4.594   1.991
10196WAT     H130830   5.082   4.596   1.932
10196WAT     H230831   5.197   4.687   2.004
10197WAT      O30832   0.950   7.442   1.441
10197WAT     H130833   0.962   7.480   1.350
10197WAT     H230834   0.955   7.342   1.437
10198WAT      O30835   2.009   5.075   4.482
10198WAT     H130836   2.097   5.028   4.480
10198WAT     H230837   1.992   5.118   4.394
10199WAT      O30838   8.508   5.892   3.938
10199WAT     H130839   8.427   5.951   3.932
10199WAT     H230840   8.520   5.862   4.033
10200WAT      O30841   2.469   4.964   9.851
10200WAT     H130842   2.453   5.063   9.849
10200WAT     H230843   2.392   4.919   9.895
10201WAT      O30844   7.529   0.071   7.055
10201WAT     H130845   7.488   0.097   6.968
10201WAT     H230846   7.612   0.126   7.071
10202WAT      O30847   8.985   2.939   7.167
10202WAT     H130848   9.000   2.856   7.113
10202WAT     H230849   8.983   2.915   7.264
10203WAT      O30850   9.197   3.556   6.526
10203WAT     H130851   9.247   3.495   6.464
10203WAT     H230852   9.137   3.615   6.472
10204WAT      O30853   6.366   4.863   8.410
10204WAT     H130854   6.279   4.815   8.424
10204WAT     H230855   6.358   4.957   8.444
10205WAT      O30856   8.300   1.380   0.878
10205WAT     H130857   8.276   1.413   0.969
10205WAT     H230858   8.220   1.390   0.818
10206WAT      O30859   8.027   7.057   9.445
10206WAT     H130860   7.989   7.147   9.462
10206WAT     H230861   8.036   7.042   9.346
10207WAT      O30862   7.681   1.677   6.737
10207WAT     H130863   7.716   1.763   6.775
10207WAT     H230864   7.752   1.633   6.683
10208WAT      O30865   8.321   1.130   8.143
10208WAT     H130866   8.317   1.205   8.210
10208WAT     H230867   8.266   1.054   8.176
10209WAT      O30868   3.735   0.772   8.506
10209WAT     H130869   3.809   0.706   8.503
10209WAT     H230870   3.762   0.850   8.564
10210WAT      O30871   1.434   6.393   7.520
10210WAT     H130872   1.408   6.334   7.443
10210WAT     H230873   1.442   6.339   7.603
10211WAT      O30874   4.415   5.818   6.057
10211WAT     H130875   4.363   5.851   5.977
10211WAT     H230876   4.391   5.872   6.137
10212WAT      O30877   6.604   4.769   1.835
10212WAT     H130878   6.620   4.798   1.741
10212WAT     H230879   6.531   4.700   1.838
10213WAT      O30880   9.578   7.372   6.220
10213WAT     H130881   9.616   7.312   6.291
10213WAT     H230882   9.572   7.322   6.134
10214WAT      O30883   3.300   0.519   2.705
10214WAT     H130884   3.363   0.442   2.698
10214WAT     H230885   3.209   0.486   2.731
10215WAT      O30886   2.807   5.129   7.438
10215WAT     H130887   2.843   5.054   7.493
10215WAT     H230888   2.796   5.211   7.494
10216WAT      O30889   4.706   7.127   7.439
10216WAT     H130890   4.792   7.126   7.490
10216WAT     H230891   4.686   7.221   7.410
10217WAT      O30892   4.054   7.356   8.721
10217WAT     H130893   4.024   7.261   8.729
10217WAT     H230894   3.982   7.418   8.751
10218WAT      O30895   0.838   1.599   2.339
10218WAT     H130896   0.843   1.630   2.244
10218WAT     H230897   0.913   1.639   2.391
10219WAT      O30898   6.232   4.328   1.365
10219WAT     H130899   6.206   4.271   1.287
10219WAT     H230900   6.158   4.392   1.386
10220WAT      O30901   9.325   5.630   6.680
10220WAT     H130902   9.252   5.580   6.728
10220WAT     H230903   9.289   5.669   6.596
10221WAT      O30904   9.403   7.569   9.643
10221WAT     H130905   9.496   7.578   9.678
10221WAT     H230906   9.397   7.491   9.581
10222WAT      O30907   0.719   9.776   5.484
10222WAT     H130908   0.680   9.839   5.417
10222WAT     H230909   0.653   9.759   5.557
10223WAT      O30910   9.756   4.424   1.251
10223WAT     H130911   9.662   4.433   1.285
10223WAT     H230912   9.785   4.329   1.260
10224WAT      O30913   5.741   9.474   6.495
10224WAT     H130914   5.730   9.511   6.587
10224WAT     H230915   5.668   9.408   6.477
10225WAT      O30916   4.226   5.995   1.367
10225WAT     H130917   4.170   5.923   1.325
10225WAT     H230918   4.234   5.979   1.465
10226WAT      O30919   7.923   7.322   9.459
10226WAT     H130920   7.826   7.344   9.453
10226WAT     H230921   7.975   7.386   9.403
10227WAT      O30922   7.443   1.310   8.954
10227WAT     H130923   7.486   1.228   8.990
10227WAT     H230924   7.401   1.290   8.865
10228WAT      O30925   0.283   6.921   7.771
10228WAT     H130926   0.325   6.831   7.785
10228WAT     H230927   0.209   6.933   7.837
10229WAT      O30928   5.473   0.288   3.809
10229WAT     H130929   5.465   0.239   3.722
10229WAT     H230930   5.551   0.350   3.806
10230WAT      O30931   8.431   1.172   0.757
10230WAT     H130932   8.387   1.164   0.667
10230WAT     H230933   8.400   1.255   0.803
10231WAT      O30934   9.128   8.264   3.643
10231WAT     H130935   9.164   8.306   3.560
10231WAT     H230936   9.056   8.198   3.619
10232WAT      O30937   2.893   0.587   3.612
10232WAT     H130938   2.929   0.494   3.623
10232WAT     H230939   2.801   0.592   3.650
10233WAT      O30940   6.528   1.187   8.173
10233WAT     H130941   6.475   1.241   8.238
10233WAT     H230942   6.579   1.248   8.113
10234WAT      O30943   3.981   3.094   0.109
10234WAT     H130944   3.978   3.155   0.029
10234WAT     H230945   4.020   3.006   0.082
10235WAT      O30946   5.655   8.526   8.839
10235WAT     H130947   5.617   8.549   8.928
10235WAT     H230948   5.594   8.464   8.791
10236WAT      O30949   3.670   9.463   0.601
10236WAT     H130950   3.614   9.495   0.677
10236WAT     H230951   3.760   9.507   0.605
10237WAT      O30952   7.231   6.203   7.348
10237WAT     H130953   7.301   6.139   7.381
10237WAT     H230954   7.147   6.152   7.328
10238WAT      O30955   6.879   2.252   6.360
10238WAT     H130956   6.968   2.208   6.348
10238WAT     H230957   6.820   2.194   6.414
10239WAT      O30958   3.064   9.345   8.853
10239WAT     H130959   3.043   9.293   8.770
10239WAT     H230960   3.152   9.315   8.890
10240WAT      O30961   4.240   8.977   1.822
10240WAT     H130962   4.297   9.055   1.797
10240WAT     H230963   4.144   8.998   1.806
10241WAT      O30964   5.034   3.199   5.039
10241WAT     H130965   5.079   3.191   5.128
10241WAT     H230966   5.029   3.295   5.012
10242WAT      O30967   9.211   5.298   7.814
10242WAT     H130968   9.273   5.357   7.763
10242WAT     H230969   9.161   5.352   7.882
10243WAT      O30970   5.631   0.884   2.086
10243WAT     H130971   5.662   0.978   2.071
10243WAT     H230972   5.634   0.863   2.184
10244WAT      O30973   2.186   7.269   8.363
10244WAT     H130974   2.209   7.243   8.456
10244WAT     H230975   2.217   7.363   8.346
10245WAT      O30976   8.640   0.499   6.744
10245WAT     H130977   8.694   0.578   6.716
10245WAT     H230978   8.595   0.519   6.831
10246WAT      O30979   6.638   4.288   8.355
10246WAT     H130980   6.652   4.384   8.329
10246WAT     H230981   6.714   4.258   8.413
10247WAT      O30982   2.106   2.063   1.046
10247WAT     H130983   2.069   1.994   0.984
10247WAT     H230984   2.144   2.018   1.127
10248WAT      O30985   0.424   1.952   1.108
10248WAT     H130986   0.490   2.002   1.051
10248WAT     H230987   0.473   1.889   1.168
10249WAT      O30988   6.044   6.987   4.357
10249WAT     H130989   6.038   6.901   4.407
10249WAT     H230990   6.103   6.976   4.277
10250WAT      O30991   4.140   5.005   7.754
10250WAT     H130992   4.200   4.926   7.747
10250WAT     H230993   4.074   5.003   7.679
10251WAT      O30994   9.660   9.485   3.897
10251WAT     H130995   9.561   9.471   3.893
10251WAT     H230996   9.705   9.398   3.912
10252WAT      O30997   7.160   0.120   7.488
10252WAT     H130998   7.248   0.159   7.462
10252WAT     H230999   7.124   0.066   7.412
10253WAT      O31000   9.063   1.128   9.679
10253WAT     H131001   9.015   1.145   9.765
10253WAT     H231002   9.020   1.180   9.606
10254WAT      O31003   6.434   7.394   4.404
10254WAT     H131004   6.369   7.465   4.429
10254WAT     H231005   6.384   7.310   4.381
10255WAT      O31006   1.675   8.103   9.065
10255WAT     H131007   1.599   8.152   9.107
10255WAT     H231008   1.760   8.126   9.114
10256WAT      O31009   6.634   4.871   0.589
10256WAT     H131010   6.677   4.961   0.588
10256WAT     H231011   6.704   4.801   0.602
10257WAT      O31012   4.936   7.370   9.020
10257WAT     H131013   5.029   7.404   9.004
10257WAT     H231014   4.906   7.318   8.940
10258WAT      O31015   2.505   4.402   4.635
10258WAT     H131016   2.418   4.442   4.666
10258WAT     H231017   2.504   4.304   4.652
10259WAT      O31018   1.088   0.339   7.962
10259WAT     H131019   1.181   0.327   7.927
10259WAT     H231020   1.023   0.312   7.892
10260WAT      O31021   5.457   3.881   1.185
10260WAT     H131022   5.444   3.929   1.272
10260WAT     H231023   5.553   3.882   1.160
10261WAT      O31024   2.520   5.643   9.496
10261WAT     H131025   2.475   5.557   9.473
10261WAT     H231026   2.479   5.681   9.579
10262WAT      O31027   8.916   1.367   4.767
10262WAT     H131028   8.913   1.355   4.866
10262WAT     H231029   8.877   1.456   4.744
10263WAT      O31030   0.964   2.303   6.689
10263WAT     H131031   1.012   2.234   6.743
10263WAT     H231032   0.941   2.264   6.599
10264WAT      O31033   0.972   7.562   5.534
10264WAT     H131034   1.003   7.643   5.484
10264WAT     H231035   1.029   7.484   5.509
10265WAT      O31036   4.937   5.522   7.033
10265WAT     H131037   5.027   5.566   7.031
10265WAT     H231038   4.949   5.423   7.041
10266WAT      O31039   4.631   2.730   6.816
10266WAT     H131040   4.631   2.686   6.726
10266WAT     H231041   4.572   2.678   6.879
10267WAT      O31042   1.984   8.381   7.522
10267WAT     H131043   1.942   8.299   7.560
10267WAT     H231044   1.968   8.385   7.424
10268WAT      O31045   2.190   4.345   5.272
10268WAT     H131046   2.099   4.308   5.254
10268WAT     H231047   2.199   4.435   5.230
10269WAT      O31048   5.314   0.950   0.590
10269WAT     H131049   5.355   0.980   0.677
10269WAT     H231050   5.229   1.000   0.575
10270WAT      O31051   8.648   4.181   7.951
10270WAT     H131052   8.712   4.199   7.876
10270WAT     H231053   8.698   4.141   8.028
10271WAT      O31054   7.236   1.428   2.546
10271WAT     H131055   7.263   1.521   2.521
10271WAT     H231056   7.150   1.405   2.500
10272WAT      O31057   3.020   0.956   9.765
10272WAT     H131058   2.949   0.887   9.751
10272WAT     H231059   3.098   0.937   9.705
10273WAT      O31060   3.592   1.926   3.890
10273WAT     H131061   3.565   1.832   3.910
10273WAT     H231062   3.518   1.988   3.915
10274WAT      O31063   2.425   9.613   6.922
10274WAT     H131064   2.369   9.667   6.984
10274WAT     H231065   2.451   9.669   6.843
10275WAT      O31066   2.336   6.044   7.093
10275WAT     H131067   2.363   6.127   7.045
10275WAT     H231068   2.266   6.065   7.161
10276WAT      O31069   9.649   8.940   0.895
10276WAT     H131070   9.559   8.958   0.855
10276WAT     H231071   9.713   8.913   0.823
10277WAT      O31072   7.296   8.436   9.551
10277WAT     H131073   7.369   8.462   9.488
10277WAT     H231074   7.273   8.513   9.609
10278WAT      O31075   1.100   4.004   8.168
10278WAT     H131076   1.115   4.100   8.148
10278WAT     H231077   1.083   3.954   8.083
10279WAT      O31078   0.316   5.930   9.215
10279WAT     H131079   0.266   6.017   9.211
10279WAT     H231080   0.294   5.875   9.135
10280WAT      O31081   0.402   0.848   2.775
10280WAT     H131082   0.334   0.905   2.821
10280WAT     H231083   0.420   0.767   2.831
10281WAT      O31084   0.935   0.177   8.154
10281WAT     H131085   0.917   0.098   8.096
10281WAT     H231086   0.970   0.252   8.098
10282WAT      O31087   5.497   0.383   4.213
10282WAT     H131088   5.419   0.393   4.151
10282WAT     H231089   5.582   0.382   4.159
10283WAT      O31090   2.489   2.442   3.161
10283WAT     H131091   2.571   2.499   3.171
10283WAT     H231092   2.409   2.501   3.148
10284WAT      O31093   1.815   1.318   1.869
10284WAT     H131094   1.817   1.266   1.784
10284WAT     H231095   1.907   1.354   1.888
10285WAT      O31096   0.383   5.942   3.229
10285WAT     H131097   0.467   5.896   3.258
10285WAT     H231098   0.357   5.910   3.138
10286WAT      O31099   2.083   8.228   3.461
10286WAT     H131100   2.024   8.261   3.388
10286WAT     H231101   2.065   8.131   3.477
10287WAT      O31102   5.215   5.269   3.282
10287WAT     H131103   5.268   5.194   3.321
10287WAT     H231104   5.167   5.237   3.200
10288WAT      O31105   3.074   0.999   5.796
10288WAT     H131106   3.160   1.028   5.754
10288WAT     H231107   3.000   1.005   5.728
10289WAT      O31108   5.174   8.149   4.742
10289WAT     H131109   5.272   8.137   4.731
10289WAT     H231110   5.139   8.082   4.807
10290WAT      O31111   7.185   1.501   8.534
10290WAT     H131112   7.094   1.542   8.543
10290WAT     H231113   7.230   1.537   8.452
10291WAT      O31114   8.863   5.350   5.685
10291WAT     H131115   8.889   5.314   5.775
10291WAT     H231116   8.782   5.302   5.652
10292WAT      O31117   0.039   7.106   5.141
10292WAT     H131118  -0.043   7.104   5.197
10292WAT     H231119   0.093   7.187   5.165
10293WAT      O31120   4.213   2.993   6.467
10293WAT     H131121   4.213   2.957   6.374
10293WAT     H231122   4.128   2.969   6.512
10294WAT      O31123   4.698   6.868   9.251
10294WAT     H131124   4.615   6.822   9.283
10294WAT     H231125   4.769   6.863   9.322
10295WAT      O31126   4.814   5.189   8.897
10295WAT     H131127   4.869   5.184   8.980
10295WAT     H231128   4.721   5.157   8.916
10296WAT      O31129   0.266   8.716   1.875
10296WAT     H131130   0.277   8.686   1.970
10296WAT     H231131   0.299   8.809   1.865
10297WAT      O31132   8.093   7.092   0.293
10297WAT     H131133   8.096   7.000   0.255
10297WAT     H231134   8.020   7.144   0.248
10298WAT      O31135   7.019   0.018   4.975
10298WAT     H131136   6.955   0.041   5.048
10298WAT     H231137   6.969   0.009   4.889
10299WAT      O31138   9.808   0.041   3.399
10299WAT     H131139   9.845   0.070   3.487
10299WAT     H231140   9.715   0.007   3.411
10300WAT      O31141   4.360   5.137   3.400
10300WAT     H131142   4.385   5.100   3.489
10300WAT     H231143   4.422   5.211   3.375
10301WAT      O31144   3.709   1.049   6.213
10301WAT     H131145   3.661   1.042   6.126
10301WAT     H231146   3.789   1.108   6.202
10302WAT      O31147   4.851   4.317   8.176
10302WAT     H131148   4.883   4.291   8.085
10302WAT     H231149   4.855   4.416   8.186
10303WAT      O31150   2.989   5.828   5.828
10303WAT     H131151   2.897   5.812   5.793
10303WAT     H231152   2.990   5.814   5.927
10304WAT      O31153   2.694   7.143   3.421
10304WAT     H131154   2.761   7.079   3.457
10304WAT     H231155   2.660   7.200   3.496
10305WAT      O31156   2.354   6.970   0.241
10305WAT     H131157   2.344   6.928   0.332
10305WAT     H231158   2.316   6.909   0.172
10306WAT      O31159   2.875   2.092   1.563
10306WAT     H131160   2.867   2.012   1.503
10306WAT     H231161   2.790   2.144   1.561
10307WAT      O31162   4.257   9.704   9.738
10307WAT     H131163   4.353   9.727   9.721
10307WAT     H231164   4.202   9.724   9.657
10308WAT      O31165   9.014   8.651   7.937
10308WAT     H131166   8.971   8.715   8.001
10308WAT     H231167   9.012   8.689   7.845
10309WAT      O31168   7.840   7.178   0.194
10309WAT     H131169   7.744   7.180   0.223
10309WAT     H231170   7.845   7.139   0.102
10310WAT      O31171   9.591   4.338   4.656
10310WAT     H131172   9.683   4.325   4.693
10310WAT     H231173   9.534   4.383   4.725
10311WAT      O31174   6.516   4.414   2.929
10311WAT     H131175   6.527   4.511   2.953
10311WAT     H231176   6.429   4.402   2.882
10312WAT      O31177   8.113   9.255   8.908
10312WAT     H131178   8.159   9.294   8.988
10312WAT     H231179   8.086   9.329   8.846
10313WAT      O31180   1.020   5.022   7.021
10313WAT     H131181   1.035   4.969   7.104
10313WAT     H231182   1.056   4.971   6.942
10314WAT      O31183   6.663   7.080   0.396
10314WAT     H131184   6.700   6.987   0.391
10314WAT     H231185   6.565   7.076   0.416
10315WAT      O31186   3.490   1.713   8.628
10315WAT     H131187   3.470   1.811   8.628
10315WAT     H231188   3.559   1.694   8.699
10316WAT      O31189   2.001   8.381   4.850
10316WAT     H131190   1.985   8.309   4.783
10316WAT     H231191   2.017   8.340   4.940
10317WAT      O31192   5.611   3.645   0.037
10317WAT     H131193   5.522   3.665   0.076
10317WAT     H231194   5.676   3.716   0.063
10318WAT      O31195   2.945   3.054   0.006
10318WAT     H131196   2.935   3.067   0.105
10318WAT     H231197   3.014   2.985  -0.012
10319WAT      O31198   5.096   6.266   9.422
10319WAT     H131199   5.141   6.340   9.472
10319WAT     H231200   5.165   6.209   9.377
10320WAT      O31201   1.425   4.567   0.189
10320WAT     H131202   1.522   4.558   0.164
10320WAT     H231203   1.399   4.492   0.249
10321WAT      O31204   5.696   6.653   5.976
10321WAT     H131205   5.624   6.590   6.007
10321WAT     H231206   5.689   6.739   6.026
10322WAT      O31207   0.973   8.449   6.386
10322WAT     H131208   0.921   8.474   6.468
10322WAT     H231209   0.929   8.488   6.305
10323WAT      O31210   7.518   6.936   1.898
10323WAT     H131211   7.478   6.844   1.893
10323WAT     H231212   7.445   7.005   1.896
10324WAT      O31213   7.085   7.236   3.849
10324WAT     H131214   7.082   7.180   3.766
10324WAT     H231215   7.179   7.267   3.864
10325WAT      O31216   6.903   6.540   0.436
10325WAT     H131217   6.999   6.528   0.409
10325WAT     H231218   6.877   6.466   0.498
10326WAT      O31219   1.512   6.122   3.955
10326WAT     H131220   1.474   6.032   3.936
10326WAT     H231221   1.589   6.112   4.019
10327WAT      O31222   6.861   3.799   1.061
10327WAT     H131223   6.950   3.784   1.103
10327WAT     H231224   6.853   3.894   1.031
10328WAT      O31225   1.656   4.852   6.863
10328WAT     H131226   1.667   4.951   6.858
10328WAT     H231227   1.664   4.822   6.958
10329WAT      O31228   3.073   7.824   8.130
10329WAT     H131229   2.991   7.838   8.074
10329WAT     H231230   3.128   7.750   8.090
10330WAT      O31231   6.713   7.529   0.317
10330WAT     H131232   6.618   7.562   0.326
10330WAT     H231233   6.713   7.438   0.277
10331WAT      O31234   3.997   3.225   9.717
10331WAT     H131235   4.069   3.280   9.674
10331WAT     H231236   3.932   3.195   9.648
10332WAT      O31237   5.271   0.718   9.344
10332WAT     H131238   5.279   0.618   9.342
10332WAT     H231239   5.180   0.743   9.379
10333WAT      O31240   1.695   0.220   1.761
10333WAT     H131241   1.783   0.179   1.783
10333WAT     H231242   1.634   0.149   1.725
10334WAT      O31243   6.673   7.783   5.037
10334WAT     H131244   6.688   7.851   5.109
10334WAT     H231245   6.697   7.692   5.071
10335WAT      O31246   7.585   4.816   9.284
10335WAT     H131247   7.560   4.895   9.340
10335WAT     H231248   7.638   4.846   9.205
10336WAT      O31249   5.659   2.262   3.156
10336WAT     H131250   5.630   2.185   3.099
10336WAT     H231251   5.689   2.229   3.245
10337WAT      O31252   5.608   1.049   1.104
10337WAT     H131253   5.569   1.043   1.196
10337WAT     H231254   5.601   0.961   1.058
10338WAT      O31255   9.679   3.101   0.912
10338WAT     H131256   9.663   3.008   0.943
10338WAT     H231257   9.607   3.128   0.848
10339WAT      O31258   0.038   0.330   1.409
10339WAT     H131259  -0.009   0.385   1.478
10339WAT     H231260   0.132   0.362   1.400
10340WAT      O31261   9.082   8.758   7.698
10340WAT     H131262   9.153   8.689   7.681
10340WAT     H231263   9.088   8.829   7.629
10341WAT      O31264   2.000   4.894   7.045
10341WAT     H131265   1.925   4.959   7.047
10341WAT     H231266   2.003   4.849   6.955
10342WAT      O31267   9.115   5.793   0.798
10342WAT     H131268   9.019   5.784   0.772
10342WAT     H231269   9.172   5.740   0.736
10343WAT      O31270   5.976   6.544   1.224
10343WAT     H131271   5.889   6.572   1.185
10343WAT     H231272   5.968   6.451   1.261
10344WAT      O31273   8.978   4.858   6.572
10344WAT     H131274   9.012   4.811   6.490
10344WAT     H231275   9.010   4.810   6.654
10345WAT      O31276   5.567   4.654   0.224
10345WAT     H131277   5.550   4.558   0.244
10345WAT     H231278   5.507   4.684   0.150
10346WAT      O31279   3.478   1.438   8.077
10346WAT     H131280   3.550   1.495   8.117
10346WAT     H231281   3.413   1.412   8.148
10347WAT      O31282   9.775   0.597   0.028
10347WAT     H131283   9.723   0.666   0.078
10347WAT     H231284   9.852   0.640  -0.018
10348WAT      O31285   6.441   9.473   1.927
10348WAT     H131286   6.532   9.491   1.963
10348WAT     H231287   6.445   9.399   1.860
10349WAT      O31288   1.316   1.301   4.690
10349WAT     H131289   1.350   1.210   4.713
10349WAT     H231290   1.216   1.302   4.694
10350WAT      O31291   2.141   0.767   0.497
10350WAT     H131292   2.210   0.760   0.568
10350WAT     H231293   2.163   0.845   0.438
10351WAT      O31294   7.735   2.951   0.377
10351WAT     H131295   7.655   2.893   0.392
10351WAT     H231296   7.818   2.900   0.402
10352WAT      O31297   3.597   2.663   2.664
10352WAT     H131298   3.509   2.631   2.628
10352WAT     H231299   3.628   2.601   2.735
10353WAT      O31300   7.791   5.984   5.740
10353WAT     H131301   7.853   6.063   5.732
10353WAT     H231302   7.802   5.925   5.661
10354WAT      O31303   7.376   9.482   4.596
10354WAT     H131304   7.414   9.556   4.651
10354WAT     H231305   7.375   9.398   4.650
10355WAT      O31306   5.174   7.299   7.172
10355WAT     H131307   5.206   7.204   7.163
10355WAT     H231308   5.122   7.324   7.090
10356WAT      O31309   0.316   5.873   1.044
10356WAT     H131310   0.251   5.912   0.978
10356WAT     H231311   0.343   5.781   1.014
10357WAT      O31312   6.759   0.280   2.464
10357WAT     H131313   6.711   0.212   2.408
10357WAT     H231314   6.696   0.318   2.531
10358WAT      O31315   2.126   1.445   2.995
10358WAT     H131316   2.070   1.425   2.915
10358WAT     H231317   2.164   1.537   2.986
10359WAT      O31318   4.711   8.478   1.322
10359WAT     H131319   4.770   8.483   1.242
10359WAT     H231320   4.660   8.564   1.332
10360WAT      O31321   6.280   6.724   3.677
10360WAT     H131322   6.293   6.651   3.609
10360WAT     H231323   6.191   6.767   3.664
10361WAT      O31324   6.946   5.431   3.471
10361WAT     H131325   6.888   5.429   3.389
10361WAT     H231326   6.951   5.525   3.506
10362WAT      O31327   1.550   5.258   3.017
10362WAT     H131328   1.468   5.283   3.068
10362WAT     H231329   1.528   5.248   2.920
10363WAT      O31330   8.856   6.836   8.734
10363WAT     H131331   8.836   6.903   8.805
10363WAT     H231332   8.892   6.752   8.777
10364WAT      O31333   5.128   7.940   6.291
10364WAT     H131334   5.155   7.965   6.198
10364WAT     H231335   5.045   7.990   6.316
10365WAT      O31336   8.575   7.258   3.544
10365WAT     H131337   8.585   7.230   3.449
10365WAT     H231338   8.478   7.272   3.565
10366WAT      O31339   4.987   2.232   2.093
10366WAT     H131340   4.957   2.190   2.178
10366WAT     H231341   4.931   2.313   2.073
10367WAT      O31342   0.650   9.130   5.436
10367WAT     H131343   0.638   9.186   5.518
10367WAT     H231344   0.713   9.055   5.455
10368WAT      O31345   7.429   1.744   4.977
10368WAT     H131346   7.495   1.793   5.034
10368WAT     H231347   7.478   1.693   4.907
10369WAT      O31348   3.696   4.665   0.023
10369WAT     H131349   3.678   4.657  -0.075
10369WAT     H231350   3.645   4.595   0.072
10370WAT      O31351   2.341   7.482   3.190
10370WAT     H131352   2.374   7.563   3.140
10370WAT     H231353   2.313   7.510   3.282
10371WAT      O31354   9.864   2.117   9.299
10371WAT     H131355   9.765   2.120   9.311
10371WAT     H231356   9.908   2.173   9.370
10372WAT      O31357   9.156   0.711   7.518
10372WAT     H131358   9.110   0.655   7.586
10372WAT     H231359   9.216   0.777   7.564
10373WAT      O31360   8.461   7.718   9.156
10373WAT     H131361   8.520   7.754   9.084
10373WAT     H231362   8.379   7.775   9.164
10374WAT      O31363   4.030   5.305   0.743
10374WAT     H131364   4.090   5.241   0.791
10374WAT     H231365   4.026   5.391   0.795
10375WAT      O31366   7.353   2.825   6.691
10375WAT     H131367   7.429   2.888   6.680
10375WAT     H231368   7.303   2.816   6.605
10376WAT      O31369   1.903   9.458   8.165
10376WAT     H131370   1.972   9.436   8.233
10376WAT     H231371   1.932   9.425   8.075
10377WAT      O31372   6.247   6.414   9.019
10377WAT     H131373   6.313   6.489   9.023
10377WAT     H231374   6.157   6.448   9.047
10378WAT      O31375   2.042   5.493   9.658
10378WAT     H131376   1.943   5.486   9.647
10378WAT     H231377   2.066   5.486   9.755
10379WAT      O31378   5.008   1.680   7.069
10379WAT     H131379   5.083   1.618   7.095
10379WAT     H231380   4.993   1.674   6.971
10380WAT      O31381   2.015   7.715   9.127
10380WAT     H131382   2.033   7.743   9.033
10380WAT     H231383   1.943   7.773   9.166
10381WAT      O31384   8.760   0.826   3.694
10381WAT     H131385   8.832   0.773   3.738
10381WAT     H231386   8.791   0.854   3.603
10382WAT      O31387   4.494   7.278   4.119
10382WAT     H131388   4.493   7.279   4.219
10382WAT     H231389   4.480   7.371   4.084
10383WAT      O31390   7.404   4.869   8.646
10383WAT     H131391   7.477   4.921   8.602
10383WAT     H231392   7.331   4.931   8.674
10384WAT      O31393   5.910   1.989   8.382
10384WAT     H131394   5.972   2.067   8.374
10384WAT     H231395   5.857   1.996   8.466
10385WAT      O31396   3.029   6.594   2.874
10385WAT     H131397   3.055   6.641   2.957
10385WAT     H231398   2.935   6.615   2.851
10386WAT      O31399   3.628   3.864   5.528
10386WAT     H131400   3.604   3.842   5.622
10386WAT     H231401   3.566   3.933   5.492
10387WAT      O31402   6.330   6.479   0.615
10387WAT     H131403   6.291   6.390   0.592
10387WAT     H231404   6.346   6.484   0.714
10388WAT      O31405   9.737   2.795   2.499
10388WAT     H131406   9.818   2.849   2.522
10388WAT     H231407   9.690   2.839   2.422
10389WAT      O31408   9.715   1.052   5.451
10389WAT     H131409   9.622   1.016   5.449
10389WAT     H231410   9.723   1.127   5.385
10390WAT      O31411   1.599   8.437   3.792
10390WAT     H131412   1.505   8.442   3.759
10390WAT     H231413   1.599   8.405   3.887
10391WAT      O31414   2.005   5.985   5.037
10391WAT     H131415   2.080   6.047   5.014
10391WAT     H231416   2.006   5.907   4.975
10392WAT      O31417   0.579   9.390   1.706
10392WAT     H131418   0.498   9.437   1.739
10392WAT     H231419   0.552   9.314   1.646
10393WAT      O31420   1.953   3.755   7.542
10393WAT     H131421   2.020   3.830   7.548
10393WAT     H231422   1.974   3.699   7.461
10394WAT      O31423   7.634   4.814   0.766
10394WAT     H131424   7.593   4.829   0.856
10394WAT     H231425   7.563   4.819   0.696
10395WAT      O31426   2.040   3.410   1.746
10395WAT     H131427   2.024   3.324   1.697
10395WAT     H231428   1.984   3.412   1.828
10396WAT      O31429   2.213   7.945   0.765
10396WAT     H131430   2.278   7.877   0.732
10396WAT     H231431   2.244   7.980   0.854
10397WAT      O31432   6.606   2.530   4.742
10397WAT     H131433   6.635   2.493   4.830
10397WAT     H231434   6.618   2.629   4.742
10398WAT      O31435   8.440   4.956   1.021
10398WAT     H131436   8.531   4.994   1.037
10398WAT     H231437   8.423   4.949   0.923
10399WAT      O31438   0.796   3.213   2.892
10399WAT     H131439   0.788   3.138   2.957
10399WAT     H231440   0.830   3.295   2.940
10400WAT      O31441   8.214   9.386   9.459
10400WAT     H131442   8.226   9.346   9.550
10400WAT     H231443   8.128   9.355   9.419
10401WAT      O31444   6.332   3.895   8.157
10401WAT     H131445   6.424   3.910   8.120
10401WAT     H231446   6.272   3.861   8.084
10402WAT      O31447   5.208   1.441   8.537
10402WAT     H131448   5.263   1.517   8.570
10402WAT     H231449   5.256   1.396   8.461
10403WAT      O31450   6.355   8.011   5.448
10403WAT     H131451   6.404   8.096   5.469
10403WAT     H231452   6.405   7.961   5.377
10404WAT      O31453   7.860   7.468   7.478
10404WAT     H131454   7.813   7.423   7.402
10404WAT     H231455   7.934   7.525   7.441
10405WAT      O31456   0.222   9.146   5.391
10405WAT     H131457   0.244   9.087   5.468
10405WAT     H231458   0.168   9.223   5.422
10406WAT      O31459   0.364   8.951   2.798
10406WAT     H131460   0.312   9.030   2.830
10406WAT     H231461   0.392   8.965   2.703
10407WAT      O31462   0.174   8.603   9.779
10407WAT     H131463   0.108   8.651   9.837
10407WAT     H231464   0.125   8.550   9.710
10408WAT      O31465   6.279   4.102   3.979
10408WAT     H131466   6.245   4.191   3.948
10408WAT     H231467   6.364   4.081   3.931
10409WAT      O31468   5.410   1.850   0.844
10409WAT     H131469   5.348   1.772   0.846
10409WAT     H231470   5.501   1.820   0.815
10410WAT      O31471   9.705   4.944   0.222
10410WAT     H131472   9.680   5.033   0.186
10410WAT     H231473   9.763   4.955   0.303
10411WAT      O31474   4.649   7.598   3.067
10411WAT     H131475   4.658   7.525   3.135
10411WAT     H231476   4.558   7.638   3.073
10412WAT      O31477   9.292   3.046   7.993
10412WAT     H131478   9.292   2.958   7.946
10412WAT     H231479   9.383   3.087   7.987
10413WAT      O31480   6.630   4.387   9.261
10413WAT     H131481   6.538   4.396   9.224
10413WAT     H231482   6.638   4.442   9.344
10414WAT      O31483   0.094   2.987   4.383
10414WAT     H131484   0.123   2.978   4.288
10414WAT     H231485  -0.003   2.962   4.391
10415WAT      O31486   6.983   5.341   9.254
10415WAT     H131487   6.896   5.303   9.223
10415WAT     H231488   7.005   5.305   9.345
10416WAT      O31489   2.394   8.941   3.626
10416WAT     H131490   2.336   8.952   3.544
10416WAT     H231491   2.446   9.024   3.641
10417WAT      O31492   0.191   5.652   8.220
10417WAT     H131493   0.139   5.647   8.135
10417WAT     H231494   0.186   5.564   8.267
10418WAT      O31495   0.746   6.082   4.667
10418WAT     H131496   0.789   6.093   4.756
10418WAT     H231497   0.715   5.988   4.656
10419WAT      O31498   3.636   1.648   2.667
10419WAT     H131499   3.624   1.584   2.743
10419WAT     H231500   3.551   1.699   2.652
10420WAT      O31501   5.089   8.091   0.194
10420WAT     H131502   5.003   8.075   0.244
10420WAT     H231503   5.113   8.008   0.143
10421WAT      O31504   7.413   0.858   0.718
10421WAT     H131505   7.436   0.908   0.802
10421WAT     H231506   7.332   0.802   0.734
10422WAT      O31507   5.390   7.649   1.996
10422WAT     H131508   5.324   7.600   2.052
10422WAT     H231509   5.366   7.639   1.899
10423WAT      O31510   2.169   3.373   7.531
10423WAT     H131511   2.159   3.288   7.582
10423WAT     H231512   2.154   3.356   7.434
10424WAT      O31513   6.047   7.769   9.463
10424WAT     H131514   6.048   7.719   9.377
10424WAT     H231515   6.052   7.704   9.539
10425WAT      O31516   2.425   6.359   9.155
10425WAT     H131517   2.438   6.326   9.249
10425WAT     H231518   2.333   6.338   9.124
10426WAT      O31519   3.025   7.259   7.225
10426WAT     H131520   3.115   7.227   7.257
10426WAT     H231521   2.984   7.190   7.167
10427WAT      O31522   0.014   0.362   5.306
10427WAT     H131523  -0.064   0.343   5.247
10427WAT     H231524   0.070   0.279   5.314
10428WAT      O31525   6.536   7.255   9.051
10428WAT     H131526   6.551   7.336   9.107
10428WAT     H231527   6.509   7.179   9.111
10429WAT      O31528   1.036   5.798   5.239
10429WAT     H131529   1.100   5.780   5.314
10429WAT     H231530   0.943   5.788   5.273
10430WAT      O31531   5.275   1.606   6.563
10430WAT     H131532   5.285   1.525   6.506
10430WAT     H231533   5.365   1.633   6.600
10431WAT      O31534   8.278   9.335   2.914
10431WAT     H131535   8.358   9.286   2.948
10431WAT     H231536   8.296   9.433   2.916
10432WAT      O31537   3.515   4.256   0.592
10432WAT     H131538   3.526   4.164   0.554
10432WAT     H231539   3.581   4.269   0.666
10433WAT      O31540   4.414   8.302   8.602
10433WAT     H131541   4.346   8.375   8.610
10433WAT     H231542   4.483   8.328   8.535
10434WAT      O31543   1.155   8.688   3.754
10434WAT     H131544   1.086   8.624   3.789
10434WAT     H231545   1.115   8.780   3.748
10435WAT      O31546   5.308   2.892   5.682
10435WAT     H131547   5.237   2.953   5.717
10435WAT     H231548   5.277   2.797   5.692
10436WAT      O31549   5.732   5.857   1.260
10436WAT     H131550   5.674   5.841   1.180
10436WAT     H231551   5.766   5.770   1.294
10437WAT      O31552   2.166   2.822   5.498
10437WAT     H131553   2.215   2.899   5.538
10437WAT     H231554   2.158   2.749   5.566
10438WAT      O31555   8.367   1.928   2.924
10438WAT     H131556   8.425   1.946   2.844
10438WAT     H231557   8.361   2.010   2.981
10439WAT      O31558   7.006   3.109   3.533
10439WAT     H131559   7.069   3.127   3.458
10439WAT     H231560   7.056   3.067   3.609
10440WAT      O31561   6.900   4.742   8.380
10440WAT     H131562   6.991   4.729   8.419
10440WAT     H231563   6.884   4.839   8.365
10441WAT      O31564   6.578   2.908   1.561
10441WAT     H131565   6.512   2.980   1.538
10441WAT     H231566   6.611   2.921   1.654
10442WAT      O31567   1.395   5.888   3.792
10442WAT     H131568   1.423   5.877   3.696
10442WAT     H231569   1.373   5.798   3.830
10443WAT      O31570   2.591   2.757   9.481
10443WAT     H131571   2.542   2.761   9.393
10443WAT     H231572   2.658   2.831   9.485
10444WAT      O31573   6.299   2.077   1.035
10444WAT     H131574   6.322   2.130   1.116
10444WAT     H231575   6.274   2.139   0.960
10445WAT      O31576   6.076   1.289   1.049
10445WAT     H131577   6.077   1.332   1.139
10445WAT     H231578   6.168   1.292   1.009
10446WAT      O31579   8.804   4.120   4.155
10446WAT     H131580   8.718   4.134   4.203
10446WAT     H231581   8.817   4.023   4.136
10447WAT      O31582   1.829   0.945   6.265
10447WAT     H131583   1.841   0.859   6.314
10447WAT     H231584   1.731   0.966   6.259
10448WAT      O31585   8.097   0.702   6.616
10448WAT     H131586   8.098   0.737   6.709
10448WAT     H231587   8.176   0.643   6.601
10449WAT      O31588   6.263   3.722   6.049
10449WAT     H131589   6.336   3.670   6.094
10449WAT     H231590   6.293   3.816   6.037
10450WAT      O31591   8.757   6.710   2.552
10450WAT     H131592   8.767   6.672   2.645
10450WAT     H231593   8.797   6.802   2.550
10451WAT      O31594   2.299   5.244   3.501
10451WAT     H131595   2.214   5.278   3.461
10451WAT     H231596   2.285   5.227   3.599
10452WAT      O31597   1.579   3.584   7.430
10452WAT     H131598   1.515   3.507   7.434
10452WAT     H231599   1.652   3.571   7.497
10453WAT      O31600   7.571   8.792   5.970
10453WAT     H131601   7.634   8.852   6.019
10453WAT     H231602   7.578   8.809   5.872
10454WAT      O31603   8.247   7.245   7.954
10454WAT     H131604   8.339   7.230   7.990
10454WAT     H231605   8.251   7.254   7.854
10455WAT      O31606   6.601   4.910   5.674
10455WAT     H131607   6.638   4.891   5.765
10455WAT     H231608   6.601   5.009   5.659
10456WAT      O31609   6.530   9.513   1.320
10456WAT     H131610   6.518   9.414   1.318
10456WAT     H231611   6.611   9.536   1.374
10457WAT      O31612   5.047   6.314   3.995
10457WAT     H131613   4.967   6.275   4.041
10457WAT     H231614   5.064   6.406   4.029
10458WAT      O31615   3.950   1.332   7.835
10458WAT     H131616   3.957   1.241   7.876
10458WAT     H231617   3.936   1.400   7.907
10459WAT      O31618   4.466   2.014   2.755
10459WAT     H131619   4.383   1.958   2.749
10459WAT     H231620   4.496   2.038   2.663
10460WAT      O31621   4.471   5.816   6.535
10460WAT     H131622   4.378   5.837   6.567
10460WAT     H231623   4.538   5.857   6.597
10461WAT      O31624   2.572   8.924   1.450
10461WAT     H131625   2.638   8.904   1.522
10461WAT     H231626   2.517   8.842   1.431
10462WAT      O31627   6.555   1.682   3.848
10462WAT     H131628   6.475   1.721   3.893
10462WAT     H231629   6.601   1.753   3.794
10463WAT      O31630   6.760   4.227   7.581
10463WAT     H131631   6.750   4.262   7.674
10463WAT     H231632   6.811   4.141   7.584
10464WAT      O31633   9.589   5.609   8.625
10464WAT     H131634   9.644   5.528   8.646
10464WAT     H231635   9.501   5.603   8.673
10465WAT      O31636   1.400   2.560   8.385
10465WAT     H131637   1.420   2.505   8.466
10465WAT     H231638   1.485   2.581   8.337
10466WAT      O31639   5.562   2.104   8.862
10466WAT     H131640   5.466   2.131   8.856
10466WAT     H231641   5.575   2.016   8.815
10467WAT      O31642   7.895   5.488   4.961
10467WAT     H131643   7.885   5.396   4.997
10467WAT     H231644   7.846   5.495   4.873
10468WAT      O31645   1.504   9.773   4.668
10468WAT     H131646   1.555   9.858   4.684
10468WAT     H231647   1.568   9.698   4.650
10469WAT      O31648   9.850   5.854   0.542
10469WAT     H131649   9.905   5.795   0.601
10469WAT     H231650   9.760   5.867   0.584
10470WAT      O31651   3.873   6.445   6.169
10470WAT     H131652   3.857   6.538   6.203
10470WAT     H231653   3.893   6.449   6.071
10471WAT      O31654   8.462   1.458   2.083
10471WAT     H131655   8.534   1.522   2.110
10471WAT     H231656   8.373   1.497   2.103
10472WAT      O31657   8.958   2.091   5.857
10472WAT     H131658   8.873   2.074   5.906
10472WAT     H231659   8.961   2.187   5.828
10473WAT      O31660   1.341   5.302   0.132
10473WAT     H131661   1.380   5.230   0.074
10473WAT     H231662   1.413   5.346   0.185
10474WAT      O31663   1.097   6.165   6.387
10474WAT     H131664   1.006   6.205   6.390
10474WAT     H231665   1.147   6.192   6.470
10475WAT      O31666   4.372   9.380   3.219
10475WAT     H131667   4.434   9.446   3.261
10475WAT     H231668   4.289   9.373   3.274
10476WAT      O31669   1.542   0.039   3.391
10476WAT     H131670   1.631   0.007   3.424
10476WAT     H231671   1.471   0.014   3.456
10477WAT      O31672   5.573   6.885   4.458
10477WAT     H131673   5.618   6.803   4.493
10477WAT     H231674   5.623   6.919   4.378
10478WAT      O31675   8.825   1.523   2.572
10478WAT     H131676   8.864   1.472   2.649
10478WAT     H231677   8.806   1.617   2.600
10479WAT      O31678   7.409   8.625   0.976
10479WAT     H131679   7.444   8.580   0.894
10479WAT     H231680   7.398   8.723   0.959
10480WAT      O31681   4.402   0.622   0.465
10480WAT     H131682   4.467   0.693   0.436
10480WAT     H231683   4.371   0.643   0.558
10481WAT      O31684   6.159   8.164   0.681
10481WAT     H131685   6.258   8.176   0.675
10481WAT     H231686   6.114   8.253   0.676
10482WAT      O31687   3.352   1.440   5.295
10482WAT     H131688   3.328   1.533   5.265
10482WAT     H231689   3.289   1.375   5.253
10483WAT      O31690   7.497   0.142   7.806
10483WAT     H131691   7.407   0.107   7.780
10483WAT     H231692   7.491   0.185   7.897
10484WAT      O31693   0.591   8.739   5.877
10484WAT     H131694   0.578   8.836   5.856
10484WAT     H231695   0.688   8.718   5.879
10485WAT      O31696   4.415   9.106   1.553
10485WAT     H131697   4.327   9.078   1.514
10485WAT     H231698   4.400   9.177   1.622
10486WAT      O31699   1.615   3.001   9.828
10486WAT     H131700   1.636   2.903   9.833
10486WAT     H231701   1.636   3.035   9.737
10487WAT      O31702   6.903   1.018   7.985
10487WAT     H131703   6.848   1.075   7.924
10487WAT     H231704   6.870   1.026   8.079
10488WAT      O31705   5.589   8.130   6.891
10488WAT     H131706   5.607   8.173   6.979
10488WAT     H231707   5.513   8.066   6.901
10489WAT      O31708   2.538   9.472   2.660
10489WAT     H131709   2.597   9.475   2.741
10489WAT     H231710   2.442   9.469   2.689
10490WAT      O31711   3.214   5.096   7.857
10490WAT     H131712   3.294   5.044   7.887
10490WAT     H231713   3.137   5.077   7.919
10491WAT      O31714   3.485   8.468   9.684
10491WAT     H131715   3.395   8.472   9.641
10491WAT     H231716   3.508   8.557   9.723
10492WAT      O31717   6.219   6.694   4.580
10492WAT     H131718   6.271   6.762   4.630
10492WAT     H231719   6.277   6.650   4.512
10493WAT      O31720   4.673   5.721   5.972
10493WAT     H131721   4.646   5.627   5.951
10493WAT     H231722   4.593   5.780   5.968
10494WAT      O31723   2.861   2.095   2.823
10494WAT     H131724   2.881   2.072   2.728
10494WAT     H231725   2.778   2.151   2.827
10495WAT      O31726   4.286   5.959   0.312
10495WAT     H131727   4.335   6.046   0.301
10495WAT     H231728   4.200   5.963   0.259
10496WAT      O31729   5.823   4.760   1.284
10496WAT     H131730   5.835   4.822   1.362
10496WAT     H231731   5.754   4.798   1.222
10497WAT      O31732   1.649   0.739   5.454
10497WAT     H131733   1.684   0.655   5.497
10497WAT     H231734   1.593   0.715   5.375
10498WAT      O31735   6.186   8.683   1.174
10498WAT     H131736   6.167   8.781   1.172
10498WAT     H231737   6.238   8.657   1.092
10499WAT      O31738   9.124   4.441   9.803
10499WAT     H131739   9.065   4.401   9.873
10499WAT     H231740   9.074   4.513   9.754
10500WAT      O31741   4.699   5.620   2.243
10500WAT     H131742   4.613   5.579   2.215
10500WAT     H231743   4.681   5.708   2.288
10501WAT      O31744   0.597   2.308   1.693
10501WAT     H131745   0.577   2.406   1.700
10501WAT     H231746   0.674   2.294   1.630
10502WAT      O31747   4.826   6.246   4.188
10502WAT     H131748   4.899   6.267   4.253
10502WAT     H231749   4.788   6.156   4.208
10503WAT      O31750   6.782   2.874   4.430
10503WAT     H131751   6.721   2.950   4.411
10503WAT     H231752   6.750   2.792   4.382
10504WAT      O31753   9.242   8.133   3.845
10504WAT     H131754   9.228   8.035   3.836
10504WAT     H231755   9.196   8.181   3.771
10505WAT      O31756   8.795   2.055   5.257
10505WAT     H131757   8.841   2.140   5.282
10505WAT     H231758   8.745   2.021   5.336
10506WAT      O31759   1.041   6.627   7.030
10506WAT     H131760   1.118   6.563   7.027
10506WAT     H231761   1.044   6.687   6.950
10507WAT      O31762   5.899   4.887   7.560
10507WAT     H131763   5.939   4.846   7.478
10507WAT     H231764   5.915   4.827   7.638
10508WAT      O31765   1.741   8.780   8.164
10508WAT     H131766   1.742   8.804   8.067
10508WAT     H231767   1.652   8.803   8.203
10509WAT      O31768   9.647   5.273   9.446
10509WAT     H131769   9.573   5.208   9.429
10509WAT     H231770   9.706   5.278   9.366
10510WAT      O31771   3.222   7.369   1.094
10510WAT     H131772   3.155   7.406   1.030
10510WAT     H231773   3.206   7.407   1.185
10511WAT      O31774   2.734   3.876   0.280
10511WAT     H131775   2.668   3.924   0.338
10511WAT     H231776   2.691   3.792   0.244
10512WAT      O31777   7.717   8.198   1.686
10512WAT     H131778   7.790   8.132   1.704
10512WAT     H231779   7.633   8.150   1.661
10513WAT      O31780   1.173   1.153   2.943
10513WAT     H131781   1.132   1.150   3.035
10513WAT     H231782   1.107   1.119   2.876
10514WAT      O31783   6.407   6.792   5.489
10514WAT     H131784   6.500   6.778   5.455
10514WAT     H231785   6.352   6.710   5.471
10515WAT      O31786   1.020   5.499   0.824
10515WAT     H131787   0.957   5.547   0.763
10515WAT     H231788   0.977   5.485   0.912
10516WAT      O31789   0.034   9.237   3.313
10516WAT     H131790   0.040   9.166   3.243
10516WAT     H231791   0.097   9.215   3.388
10517WAT      O31792   1.965   0.905   2.001
10517WAT     H131793   1.876   0.896   2.046
10517WAT     H231794   2.035   0.920   2.071
10518WAT      O31795   7.565   3.793   6.756
10518WAT     H131796   7.626   3.846   6.697
10518WAT     H231797   7.534   3.711   6.707
10519WAT      O31798   9.786   2.201   3.079
10519WAT     H131799   9.747   2.293   3.071
10519WAT     H231800   9.716   2.134   3.054
10520WAT      O31801   1.766   6.791   5.445
10520WAT     H131802   1.827   6.748   5.511
10520WAT     H231803   1.777   6.747   5.355
10521WAT      O31804   5.930   7.614   2.017
10521WAT     H131805   5.835   7.614   2.048
10521WAT     H231806   5.936   7.662   1.929
10522WAT      O31807   2.731   7.647   6.987
10522WAT     H131808   2.693   7.639   6.894
10522WAT     H231809   2.689   7.579   7.046
10523WAT      O31810   4.890   3.198   1.865
10523WAT     H131811   4.918   3.111   1.823
10523WAT     H231812   4.958   3.225   1.933
10524WAT      O31813   3.547   5.910   8.410
10524WAT     H131814   3.618   5.843   8.388
10524WAT     H231815   3.494   5.931   8.328
10525WAT      O31816   6.066   3.335   4.919
10525WAT     H131817   6.014   3.250   4.926
10525WAT     H231818   6.156   3.322   4.959
10526WAT      O31819   2.427   2.478   3.476
10526WAT     H131820   2.477   2.409   3.425
10526WAT     H231821   2.399   2.441   3.564
10527WAT      O31822   4.299   0.592   8.366
10527WAT     H131823   4.265   0.505   8.330
10527WAT     H231824   4.223   0.655   8.379
10528WAT      O31825   3.445   9.441   3.690
10528WAT     H131826   3.489   9.502   3.755
10528WAT     H231827   3.437   9.350   3.730
10529WAT      O31828   0.129   1.177   8.746
10529WAT     H131829   0.118   1.229   8.662
10529WAT     H231830   0.218   1.130   8.746
10530WAT      O31831   9.606   1.111   6.927
10530WAT     H131832   9.519   1.159   6.929
10530WAT     H231833   9.613   1.057   6.843
10531WAT      O31834   4.341   1.718   5.847
10531WAT     H131835   4.417   1.763   5.801
10531WAT     H231836   4.282   1.675   5.779
10532WAT      O31837   0.358   3.493   2.702
10532WAT     H131838   0.440   3.436   2.711
10532WAT     H231839   0.375   3.566   2.636
10533WAT      O31840   3.624   8.244   8.487
10533WAT     H131841   3.620   8.337   8.524
10533WAT     H231842   3.600   8.178   8.558
10534WAT      O31843   0.220   5.091   6.792
10534WAT     H131844   0.185   5.176   6.753
10534WAT     H231845   0.156   5.059   6.862
10535WAT      O31846   3.430   2.488   0.492
10535WAT     H131847   3.494   2.527   0.558
10535WAT     H231848   3.462   2.507   0.399
10536WAT      O31849   3.917   6.096   2.528
10536WAT     H131850   3.860   6.022   2.491
10536WAT     H231851   3.884   6.122   2.618
10537WAT      O31852   8.379   1.863   2.000
10537WAT     H131853   8.372   1.926   1.923
10537WAT     H231854   8.315   1.890   2.072
10538WAT      O31855   6.478   5.547   7.992
10538WAT     H131856   6.511   5.621   8.051
10538WAT     H231857   6.500   5.459   8.033
10539WAT      O31858   0.810   4.080   0.860
10539WAT     H131859   0.872   4.108   0.933
10539WAT     H231860   0.736   4.024   0.898
10540WAT      O31861   0.979   0.682   0.952
10540WAT     H131862   0.929   0.638   0.878
10540WAT     H231863   1.076   0.691   0.927
10541WAT      O31864   0.157   2.784   9.283
10541WAT     H131865   0.182   2.758   9.189
10541WAT     H231866   0.223   2.745   9.347
10542WAT      O31867   6.457   3.958   6.549
10542WAT     H131868   6.455   3.873   6.496
10542WAT     H231869   6.465   4.036   6.487
10543WAT      O31870   9.362   5.593   8.403
10543WAT     H131871   9.289   5.551   8.456
10543WAT     H231872   9.447   5.591   8.456
10544WAT      O31873   3.795   6.803   1.111
10544WAT     H131874   3.772   6.888   1.064
10544WAT     H231875   3.712   6.749   1.125
10545WAT      O31876   9.145   2.159   5.274
10545WAT     H131877   9.204   2.204   5.207
10545WAT     H231878   9.145   2.060   5.257
10546WAT      O31879   4.006   1.669   3.708
10546WAT     H131880   3.976   1.724   3.786
10546WAT     H231881   4.091   1.707   3.671
10547WAT      O31882   4.201   7.391   7.675
10547WAT     H131883   4.279   7.432   7.724
10547WAT     H231884   4.145   7.464   7.635
10548WAT      O31885   6.761   2.293   8.271
10548WAT     H131886   6.850   2.254   8.247
10548WAT     H231887   6.759   2.390   8.246
10549WAT      O31888   0.846   5.883   6.318
10549WAT     H131889   0.786   5.931   6.253
10549WAT     H231890   0.885   5.802   6.274
10550WAT      O31891   3.604   4.827   3.365
10550WAT     H131892   3.558   4.812   3.278
10550WAT     H231893   3.545   4.882   3.424
10551WAT      O31894   4.495   6.816   4.760
10551WAT     H131895   4.484   6.893   4.696
10551WAT     H231896   4.488   6.730   4.709
10552WAT      O31897   6.320   2.605   6.473
10552WAT     H131898   6.393   2.673   6.464
10552WAT     H231899   6.313   2.552   6.388
10553WAT      O31900   5.649   3.006   9.224
10553WAT     H131901   5.673   3.097   9.190
10553WAT     H231902   5.551   2.990   9.211
10554WAT      O31903   6.150   7.298   7.117
10554WAT     H131904   6.096   7.383   7.114
10554WAT     H231905   6.091   7.221   7.094
10555WAT      O31906   5.297   0.869   9.137
10555WAT     H131907   5.229   0.840   9.070
10555WAT     H231908   5.284   0.820   9.223
10556WAT      O31909   4.719   8.019   6.776
10556WAT     H131910   4.717   7.966   6.691
10556WAT     H231911   4.755   7.961   6.849
10557WAT      O31912   5.453   6.142   4.355
10557WAT     H131913   5.502   6.129   4.441
10557WAT     H231914   5.518   6.166   4.282
10558WAT      O31915   9.666   0.234   5.138
10558WAT     H131916   9.656   0.134   5.138
10558WAT     H231917   9.688   0.266   5.046
10559WAT      O31918   6.026   5.085   1.604
10559WAT     H131919   6.005   5.139   1.686
10559WAT     H231920   6.039   5.146   1.526
10560WAT      O31921   1.752   2.503   4.562
10560WAT     H131922   1.669   2.485   4.510
10560WAT     H231923   1.832   2.477   4.508
10561WAT      O31924   8.674   0.827   0.003
10561WAT     H131925   8.761   0.852   0.045
10561WAT     H231926   8.646   0.737   0.037
10562WAT      O31927   2.575   7.858   3.989
10562WAT     H131928   2.526   7.883   4.072
10562WAT     H231929   2.671   7.839   4.010
10563WAT      O31930   2.369   3.021   5.191
10563WAT     H131931   2.281   3.043   5.150
10563WAT     H231932   2.443   3.055   5.133
10564WAT      O31933   7.624   6.743   7.265
10564WAT     H131934   7.590   6.836   7.256
10564WAT     H231935   7.720   6.744   7.292
10565WAT      O31936   9.273   8.640   4.255
10565WAT     H131937   9.353   8.698   4.271
10565WAT     H231938   9.300   8.544   4.265
10566WAT      O31939   0.556   7.104   0.077
10566WAT     H131940   0.546   7.185   0.020
10566WAT     H231941   0.636   7.114   0.136
10567WAT      O31942   4.978   9.223   4.920
10567WAT     H131943   4.919   9.298   4.949
10567WAT     H231944   5.066   9.259   4.890
10568WAT      O31945   8.875   8.405   0.756
10568WAT     H131946   8.941   8.382   0.828
10568WAT     H231947   8.922   8.445   0.678
10569WAT      O31948   6.678   6.795   3.110
10569WAT     H131949   6.645   6.782   3.016
10569WAT     H231950   6.754   6.732   3.127
10570WAT      O31951   2.398   1.482   8.923
10570WAT     H131952   2.403   1.537   8.839
10570WAT     H231953   2.302   1.468   8.947
10571WAT      O31954   1.632   5.131   1.010
10571WAT     H131955   1.644   5.128   1.109
10571WAT     H231956   1.596   5.044   0.978
10572WAT      O31957   1.638   4.046   3.181
10572WAT     H131958   1.666   4.114   3.113
10572WAT     H231959   1.595   3.969   3.134
10573WAT      O31960   9.136   7.723   6.409
10573WAT     H131961   9.201   7.798   6.420
10573WAT     H231962   9.045   7.753   6.437
10574WAT      O31963   8.880   2.716   1.292
10574WAT     H131964   8.975   2.738   1.272
10574WAT     H231965   8.820   2.758   1.223
10575WAT      O31966   1.383   8.119   9.446
10575WAT     H131967   1.291   8.094   9.478
10575WAT     H231968   1.411   8.204   9.490
10576WAT      O31969   4.567   0.340   6.858
10576WAT     H131970   4.499   0.410   6.880
10576WAT     H231971   4.520   0.257   6.826
10577WAT      O31972   8.392   8.964   1.534
10577WAT     H131973   8.294   8.965   1.552
10577WAT     H231974   8.442   8.958   1.620
10578WAT      O31975   9.659   3.831   2.213
10578WAT     H131976   9.694   3.925   2.207
10578WAT     H231977   9.681   3.793   2.303
10579WAT      O31978   1.270   3.652   0.846
10579WAT     H131979   1.307   3.731   0.796
10579WAT     H231980   1.339   3.620   0.912
10580WAT      O31981   6.035   1.938   2.349
10580WAT     H131982   5.965   1.989   2.300
10580WAT     H231983   6.017   1.840   2.343
10581WAT      O31984   0.938   1.356   9.240
10581WAT     H131985   1.005   1.378   9.169
10581WAT     H231986   0.970   1.278   9.293
10582WAT      O31987   0.253   3.857   3.424
10582WAT     H131988   0.221   3.809   3.342
10582WAT     H231989   0.204   3.943   3.433
10583WAT      O31990   9.748   1.771   8.101
10583WAT     H131991   9.658   1.732   8.080
10583WAT     H231992   9.748   1.808   8.194
10584WAT      O31993   3.832   6.559   9.465
10584WAT     H131994   3.736   6.584   9.471
10584WAT     H231995   3.884   6.634   9.426
10585WAT      O31996   9.467   4.479   7.399
10585WAT     H131997   9.555   4.522   7.379
10585WAT     H231998   9.433   4.512   7.487
10586WAT      O31999   1.308   1.893   3.731
10586WAT     H132000   1.231   1.839   3.766
10586WAT     H232001   1.394   1.845   3.749
10587WAT      O32002   6.217   6.234   6.119
10587WAT     H132003   6.238   6.260   6.213
10587WAT     H232004   6.135   6.283   6.089
10588WAT      O32005   1.362   7.918   8.598
10588WAT     H132006   1.381   8.012   8.627
10588WAT     H232007   1.352   7.860   8.678
10589WAT      O32008   7.644   5.675   5.648
10589WAT     H132009   7.693   5.689   5.562
10589WAT     H232010   7.580   5.599   5.638
10590WAT      O32011   4.557   4.294   9.076
10590WAT     H132012   4.531   4.209   9.122
10590WAT     H232013   4.650   4.285   9.040
10591WAT      O32014   4.446   1.874   3.382
10591WAT     H132015   4.534   1.878   3.333
10591WAT     H232016   4.435   1.783   3.422
10592WAT      O32017   2.497   9.396   2.980
10592WAT     H132018   2.417   9.385   2.921
10592WAT     H232019   2.548   9.477   2.952
10593WAT      O32020   0.390   0.205   0.191
10593WAT     H132021   0.380   0.126   0.130
10593WAT     H232022   0.301   0.229   0.230
10594WAT      O32023   2.304   0.801   9.510
10594WAT     H132024   2.276   0.710   9.479
10594WAT     H232025   2.230   0.866   9.495
10595WAT      O32026   1.853   8.289   6.306
10595WAT     H132027   1.802   8.374   6.294
10595WAT     H232028   1.938   8.294   6.254
10596WAT      O32029   4.155   7.907   4.465
10596WAT     H132030   4.253   7.888   4.479
10596WAT     H232031   4.111   7.919   4.554
10597WAT      O32032   1.197   3.010   9.233
10597WAT     H132033   1.118   2.995   9.292
10597WAT     H232034   1.253   3.083   9.271
10598WAT      O32035   6.802   6.366   2.890
10598WAT     H132036   6.836   6.324   2.806
10598WAT     H232037   6.851   6.330   2.968
10599WAT      O32038   3.710   4.936   1.662
10599WAT     H132039   3.771   4.859   1.680
10599WAT     H232040   3.615   4.907   1.674
10600WAT      O32041   8.781   3.908   1.431
10600WAT     H132042   8.850   3.956   1.486
10600WAT     H232043   8.808   3.910   1.335
10601WAT      O32044   8.484   9.318   6.522
10601WAT     H132045   8.467   9.219   6.526
10601WAT     H232046   8.425   9.364   6.587
10602WAT      O32047   4.953   3.125   0.549
10602WAT     H132048   4.999   3.189   0.487
10602WAT     H232049   4.854   3.135   0.540
10603WAT      O32050   1.544   3.266   0.986
10603WAT     H132051   1.625   3.232   1.034
10603WAT     H232052   1.502   3.339   1.039
10604WAT      O32053   1.409   3.083   8.288
10604WAT     H132054   1.480   3.013   8.287
10604WAT     H232055   1.392   3.116   8.195
10605WAT      O32056   8.986   7.636   6.993
10605WAT     H132057   8.941   7.724   6.976
10605WAT     H232058   9.081   7.651   7.017
10606WAT      O32059   5.404   2.477   5.098
10606WAT     H132060   5.442   2.385   5.087
10606WAT     H232061   5.464   2.544   5.054
10607WAT      O32062   1.522   5.700   6.671
10607WAT     H132063   1.598   5.694   6.736
10607WAT     H232064   1.510   5.612   6.625
10608WAT      O32065   1.638   1.509   9.671
10608WAT     H132066   1.689   1.523   9.756
10608WAT     H232067   1.556   1.565   9.672
10609WAT      O32068   9.577   2.885   7.253
10609WAT     H132069   9.482   2.880   7.283
10609WAT     H232070   9.637   2.873   7.332
10610WAT      O32071   1.682   1.591   7.135
10610WAT     H132072   1.758   1.529   7.154
10610WAT     H232073   1.692   1.673   7.192
10611WAT      O32074   4.729   2.400   7.650
10611WAT     H132075   4.693   2.308   7.636
10611WAT     H232076   4.801   2.398   7.720
10612WAT      O32077   5.754   9.796   6.042
10612WAT     H132078   5.731   9.866   5.975
10612WAT     H232079   5.722   9.707   6.009
10613WAT      O32080   4.954   5.611   0.660
10613WAT     H132081   4.976   5.608   0.758
10613WAT     H232082   5.013   5.677   0.615
10614WAT      O32083   7.073   2.278   1.983
10614WAT     H132084   7.145   2.266   2.051
10614WAT     H232085   7.093   2.222   1.903
10615WAT      O32086   3.949   8.340   7.347
10615WAT     H132087   3.929   8.301   7.437
10615WAT     H232088   3.916   8.279   7.276
10616WAT      O32089   7.478   6.887   4.045
10616WAT     H132090   7.427   6.810   4.006
10616WAT     H232091   7.576   6.866   4.044
10617WAT      O32092   0.631   9.248   8.571
10617WAT     H132093   0.543   9.211   8.541
10617WAT     H232094   0.663   9.314   8.503
10618WAT      O32095   2.691   2.039   2.406
10618WAT     H132096   2.666   2.086   2.321
10618WAT     H232097   2.731   1.950   2.384
10619WAT      O32098   6.662   0.455   0.257
10619WAT     H132099   6.567   0.425   0.262
10619WAT     H232100   6.678   0.527   0.324
10620WAT      O32101   5.389   4.906   1.725
10620WAT     H132102   5.399   4.812   1.695
10620WAT     H232103   5.300   4.941   1.694
10621WAT      O32104   9.656   9.077   8.566
10621WAT     H132105   9.721   9.090   8.491
10621WAT     H232106   9.600   9.159   8.576
10622WAT      O32107   3.385   0.725   6.472
10622WAT     H132108   3.369   0.748   6.568
10622WAT     H232109   3.476   0.756   6.445
10623WAT      O32110   0.571   6.564   5.698
10623WAT     H132111   0.582   6.593   5.793
10623WAT     H232112   0.645   6.602   5.643
10624WAT      O32113   0.310   0.514   7.578
10624WAT     H132114   0.304   0.517   7.678
10624WAT     H232115   0.225   0.548   7.539
10625WAT      O32116   4.811   8.357   1.722
10625WAT     H132117   4.812   8.282   1.657
10625WAT     H232118   4.804   8.444   1.672
10626WAT      O32119   9.639   1.356   1.946
10626WAT     H132120   9.573   1.345   1.872
10626WAT     H232121   9.625   1.445   1.990
10627WAT      O32122   9.061   4.663   6.311
10627WAT     H132123   9.126   4.656   6.386
10627WAT     H232124   9.096   4.613   6.231
10628WAT      O32125   6.488   4.562   6.714
10628WAT     H132126   6.485   4.617   6.797
10628WAT     H232127   6.395   4.548   6.680
10629WAT      O32128   0.911   0.545   9.526
10629WAT     H132129   0.974   0.482   9.572
10629WAT     H232130   0.928   0.543   9.428
10630WAT      O32131   3.776   7.584   5.133
10630WAT     H132132   3.721   7.667   5.135
10630WAT     H232133   3.782   7.546   5.226
10631WAT      O32134   3.625   5.760   9.705
10631WAT     H132135   3.622   5.783   9.803
10631WAT     H232136   3.568   5.825   9.654
10632WAT      O32137   8.569   2.146   2.202
10632WAT     H132138   8.597   2.203   2.279
10632WAT     H232139   8.650   2.107   2.158
10633WAT      O32140   5.896   8.214   5.542
10633WAT     H132141   5.872   8.152   5.468
10633WAT     H232142   5.978   8.267   5.517
10634WAT      O32143   6.866   1.850   7.024
10634WAT     H132144   6.786   1.796   7.048
10634WAT     H232145   6.837   1.938   6.986
10635WAT      O32146   5.627   1.669   6.037
10635WAT     H132147   5.601   1.657   6.133
10635WAT     H232148   5.656   1.581   5.999
10636WAT      O32149   2.704   1.369   1.554
10636WAT     H132150   2.640   1.355   1.630
10636WAT     H232151   2.797   1.351   1.586
10637WAT      O32152   4.766   0.704   4.166
10637WAT     H132153   4.781   0.757   4.083
10637WAT     H232154   4.668   0.696   4.184
10638WAT      O32155   4.542   2.703   1.164
10638WAT     H132156   4.552   2.659   1.253
10638WAT     H232157   4.446   2.728   1.150
10639WAT      O32158   6.363   1.705   9.196
10639WAT     H132159   6.434   1.745   9.253
10639WAT     H232160   6.317   1.777   9.144
10640WAT      O32161   3.602   7.737   9.635
10640WAT     H132162   3.663   7.664   9.666
10640WAT     H232163   3.656   7.821   9.622
10641WAT      O32164   2.297   9.140   6.597
10641WAT     H132165   2.347   9.121   6.513
10641WAT     H232166   2.353   9.115   6.676
10642WAT      O32167   6.553   5.919   1.148
10642WAT     H132168   6.537   5.850   1.218
10642WAT     H232169   6.498   6.000   1.168
10643WAT      O32170   1.480   6.438   9.177
10643WAT     H132171   1.471   6.348   9.220
10643WAT     H232172   1.550   6.434   9.106
10644WAT      O32173   2.296   3.837   3.408
10644WAT     H132174   2.292   3.771   3.334
10644WAT     H232175   2.249   3.800   3.488
10645WAT      O32176   5.907   6.123   1.039
10645WAT     H132177   5.892   6.075   1.125
10645WAT     H232178   5.836   6.191   1.026
10646WAT      O32179   0.713   7.635   6.260
10646WAT     H132180   0.713   7.604   6.355
10646WAT     H232181   0.804   7.670   6.236
10647WAT      O32182   2.201   2.995   7.997
10647WAT     H132183   2.248   3.066   7.946
10647WAT     H232184   2.167   2.925   7.934
10648WAT      O32185   0.071   0.571   7.477
10648WAT     H132186   0.065   0.506   7.401
10648WAT     H232187   0.051   0.525   7.563
10649WAT      O32188   1.088   6.071   0.818
10649WAT     H132189   1.161   6.056   0.885
10649WAT     H232190   1.011   6.011   0.840
10650WAT      O32191   6.687   8.312   5.689
10650WAT     H132192   6.617   8.349   5.749
10650WAT     H232193   6.775   8.311   5.736
10651WAT      O32194   3.675   8.705   8.247
10651WAT     H132195   3.744   8.643   8.210
10651WAT     H232196   3.720   8.775   8.303
10652WAT      O32197   6.700   4.451   4.379
10652WAT     H132198   6.766   4.378   4.360
10652WAT     H232199   6.617   4.413   4.420
10653WAT      O32200   8.894   1.974   5.553
10653WAT     H132201   8.870   1.975   5.650
10653WAT     H232202   8.892   2.068   5.518
10654WAT      O32203   8.932   0.618   8.181
10654WAT     H132204   8.907   0.668   8.264
10654WAT     H232205   8.879   0.533   8.177
10655WAT      O32206   3.350   5.891   6.022
10655WAT     H132207   3.280   5.960   6.006
10655WAT     H232208   3.323   5.834   6.099
10656WAT      O32209   7.870   5.447   3.381
10656WAT     H132210   7.826   5.528   3.420
10656WAT     H232211   7.958   5.431   3.426
10657WAT      O32212   1.547   0.335   6.319
10657WAT     H132213   1.555   0.292   6.229
10657WAT     H232214   1.577   0.430   6.314
10658WAT      O32215   1.119   7.069   2.441
10658WAT     H132216   1.039   7.049   2.384
10658WAT     H232217   1.100   7.042   2.535
10659WAT      O32218   6.516   4.334   6.083
10659WAT     H132219   6.425   4.295   6.072
10659WAT     H232220   6.584   4.261   6.081
10660WAT      O32221   6.012   3.210   2.660
10660WAT     H132222   6.027   3.248   2.569
10660WAT     H232223   6.028   3.111   2.658
10661WAT      O32224   6.045   3.789   3.135
10661WAT     H132225   6.097   3.727   3.077
10661WAT     H232226   6.108   3.846   3.188
10662WAT      O32227   4.297   1.871   2.447
10662WAT     H132228   4.236   1.839   2.374
10662WAT     H232229   4.288   1.970   2.457
10663WAT      O32230   1.264   0.525   1.738
10663WAT     H132231   1.282   0.427   1.732
10663WAT     H232232   1.327   0.574   1.677
10664WAT      O32233   6.837   7.976   7.487
10664WAT     H132234   6.775   7.923   7.430
10664WAT     H232235   6.812   7.964   7.583
10665WAT      O32236   3.800   2.638   8.770
10665WAT     H132237   3.886   2.680   8.800
10665WAT     H232238   3.751   2.602   8.848
10666WAT      O32239   0.882   8.594   5.234
10666WAT     H132240   0.807   8.659   5.221
10666WAT     H232241   0.906   8.553   5.146
10667WAT      O32242   7.822   7.631   2.073
10667WAT     H132243   7.874   7.699   2.125
10667WAT     H232244   7.772   7.572   2.136
10668WAT      O32245   0.315   5.860   4.317
10668WAT     H132246   0.289   5.841   4.411
10668WAT     H232247   0.414   5.869   4.310
10669WAT      O32248   1.026   1.724   9.603
10669WAT     H132249   1.037   1.813   9.561
10669WAT     H232250   0.944   1.724   9.660
10670WAT      O32251   6.387   2.138   2.695
10670WAT     H132252   6.470   2.095   2.730
10670WAT     H232253   6.410   2.200   2.620
10671WAT      O32254   5.028   3.872   1.651
10671WAT     H132255   5.079   3.865   1.566
10671WAT     H232256   5.062   3.949   1.705
10672WAT      O32257   6.359   6.319   2.300
10672WAT     H132258   6.420   6.273   2.364
10672WAT     H232259   6.367   6.418   2.311
10673WAT      O32260   3.212   9.333   3.171
10673WAT     H132261   3.243   9.240   3.188
10673WAT     H232262   3.290   9.396   3.174
10674WAT      O32263   0.551   2.123   1.890
10674WAT     H132264   0.557   2.031   1.850
10674WAT     H232265   0.564   2.191   1.818
10675WAT      O32266   9.609   1.746   1.883
10675WAT     H132267   9.601   1.670   1.947
10675WAT     H232268   9.527   1.751   1.826
10676WAT      O32269   8.842   9.459   0.503
10676WAT     H132270   8.913   9.403   0.460
10676WAT     H232271   8.818   9.420   0.591
10677WAT      O32272   7.381   3.891   3.222
10677WAT     H132273   7.465   3.887   3.169
10677WAT     H232274   7.346   3.985   3.222
10678WAT      O32275   9.550   1.069   8.609
10678WAT     H132276   9.624   1.015   8.571
10678WAT     H232277   9.485   1.092   8.536
10679WAT      O32278   0.999   6.541   0.721
10679WAT     H132279   1.042   6.592   0.796
10679WAT     H232280   0.902   6.564   0.717
10680WAT      O32281   8.646   3.963   4.939
10680WAT     H132282   8.657   3.901   5.017
10680WAT     H232283   8.551   3.993   4.933
10681WAT      O32284   4.217   3.606   6.698
10681WAT     H132285   4.249   3.606   6.603
10681WAT     H232286   4.186   3.514   6.723
10682WAT      O32287   0.046   1.222   4.402
10682WAT     H132288  -0.049   1.252   4.394
10682WAT     H232289   0.105   1.301   4.417
10683WAT      O32290   2.480   6.083   4.950
10683WAT     H132291   2.540   6.156   4.983
10683WAT     H232292   2.482   6.081   4.850
10684WAT      O32293   6.050   6.832   0.907
10684WAT     H132294   6.064   6.733   0.899
10684WAT     H232295   6.057   6.859   1.003
10685WAT      O32296   3.716   6.324   5.850
10685WAT     H132297   3.738   6.278   5.763
10685WAT     H232298   3.793   6.382   5.877
10686WAT      O32299   3.728   5.617   6.344
10686WAT     H132300   3.792   5.693   6.359
10686WAT     H232301   3.712   5.606   6.246
10687WAT      O32302   1.870   4.143   6.306
10687WAT     H132303   1.795   4.199   6.341
10687WAT     H232304   1.835   4.083   6.234
10688WAT      O32305   7.023   8.549   5.184
10688WAT     H132306   7.105   8.538   5.239
10688WAT     H232307   7.024   8.482   5.110
10689WAT      O32308   2.981   5.138   8.844
10689WAT     H132309   2.975   5.072   8.769
10689WAT     H232310   3.073   5.137   8.883
10690WAT      O32311   0.615   2.242   0.493
10690WAT     H132312   0.637   2.175   0.565
10690WAT     H232313   0.575   2.324   0.534
10691WAT      O32314   7.372   5.918   6.828
10691WAT     H132315   7.321   5.843   6.787
10691WAT     H232316   7.442   5.950   6.764
10692WAT      O32317   5.617   1.084   3.016
10692WAT     H132318   5.552   1.160   3.025
10692WAT     H232319   5.635   1.068   2.920
10693WAT      O32320   6.337   7.749   5.600
10693WAT     H132321   6.329   7.838   5.555
10693WAT     H232322   6.335   7.761   5.699
10694WAT      O32323   1.202   9.825   7.113
10694WAT     H132324   1.145   9.752   7.151
10694WAT     H232325   1.177   9.912   7.155
10695WAT      O32326   5.384   3.201   5.142
10695WAT     H132327   5.364   3.218   5.046
10695WAT     H232328   5.300   3.211   5.196
10696WAT      O32329   1.837   5.182   3.327
10696WAT     H132330   1.797   5.164   3.237
10696WAT     H232331   1.821   5.103   3.387
10697WAT      O32332   0.787   3.390   7.544
10697WAT     H132333   0.882   3.360   7.551
10697WAT     H232334   0.777   3.451   7.466
10698WAT      O32335   3.370   1.609   0.269
10698WAT     H132336   3.302   1.677   0.243
10698WAT     H232337   3.326   1.536   0.320
10699WAT      O32338   0.030   6.044   6.403
10699WAT     H132339   0.072   5.980   6.467
10699WAT     H232340  -0.046   6.092   6.448
10700WAT      O32341   1.692   1.118   2.609
10700WAT     H132342   1.736   1.090   2.694
10700WAT     H232343   1.613   1.060   2.592
10701WAT      O32344   6.686   5.119   3.930
10701WAT     H132345   6.753   5.100   3.859
10701WAT     H232346   6.602   5.154   3.887
10702WAT      O32347   1.959   4.975   7.427
10702WAT     H132348   2.036   4.912   7.420
10702WAT     H232349   1.912   4.961   7.514
10703WAT      O32350   8.702   6.475   6.357
10703WAT     H132351   8.712   6.508   6.263
10703WAT     H232352   8.661   6.547   6.414
10704WAT      O32353   8.072   1.945   4.150
10704WAT     H132354   8.149   1.911   4.096
10704WAT     H232355   8.101   1.961   4.244
10705WAT      O32356   7.555   3.145   1.011
10705WAT     H132357   7.517   3.124   0.921
10705WAT     H232358   7.567   3.244   1.020
10706WAT      O32359   1.948   7.979   6.931
10706WAT     H132360   1.948   7.932   7.019
10706WAT     H232361   1.901   7.923   6.863
10707WAT      O32362   2.743   5.599   7.250
10707WAT     H132363   2.723   5.694   7.226
10707WAT     H232364   2.842   5.583   7.246
10708WAT      O32365   7.692   4.512   8.881
10708WAT     H132366   7.788   4.484   8.872
10708WAT     H232367   7.637   4.435   8.911
10709WAT      O32368   3.226   5.406   2.031
10709WAT     H132369   3.273   5.465   1.965
10709WAT     H232370   3.249   5.435   2.124
10710WAT      O32371   1.012   9.615   3.013
10710WAT     H132372   0.980   9.585   3.103
10710WAT     H232373   0.991   9.711   3.001
10711WAT      O32374   5.030   3.961   7.867
10711WAT     H132375   4.986   3.897   7.804
10711WAT     H232376   5.124   3.977   7.838
10712WAT      O32377   3.371   9.249   4.066
10712WAT     H132378   3.385   9.254   3.967
10712WAT     H232379   3.278   9.278   4.089
10713WAT      O32380   9.072   1.171   0.776
10713WAT     H132381   9.160   1.150   0.733
10713WAT     H232382   9.087   1.186   0.874
10714WAT      O32383   8.065   7.098   1.542
10714WAT     H132384   7.989   7.142   1.590
10714WAT     H232385   8.150   7.146   1.563
10715WAT      O32386   1.948   6.057   4.167
10715WAT     H132387   1.948   6.076   4.265
10715WAT     H232388   1.857   6.072   4.130
10716WAT      O32389   8.147   1.257   4.869
10716WAT     H132390   8.230   1.202   4.881
10716WAT     H232391   8.067   1.202   4.892
10717WAT      O32392   4.386   4.644   9.765
10717WAT     H132393   4.467   4.685   9.723
10717WAT     H232394   4.304   4.682   9.723
10718WAT      O32395   2.230   9.192   8.459
10718WAT     H132396   2.177   9.124   8.509
10718WAT     H232397   2.289   9.242   8.523
10719WAT      O32398   7.482   8.570   9.775
10719WAT     H132399   7.401   8.524   9.811
10719WAT     H232400   7.549   8.581   9.849
10720WAT      O32401   2.839   4.014   6.846
10720WAT     H132402   2.850   4.024   6.747
10720WAT     H232403   2.929   4.007   6.889
10721WAT      O32404   6.343   9.198   9.681
10721WAT     H132405   6.251   9.228   9.655
10721WAT     H232406   6.375   9.252   9.759
10722WAT      O32407   4.978   6.973   3.534
10722WAT     H132408   4.935   6.893   3.493
10722WAT     H232409   4.987   6.959   3.633
10723WAT      O32410   1.504   2.694   4.614
10723WAT     H132411   1.516   2.595   4.601
10723WAT     H232412   1.517   2.717   4.710
10724WAT      O32413   9.092   8.001   9.220
10724WAT     H132414   9.070   8.054   9.138
10724WAT     H232415   9.170   7.941   9.201
10725WAT      O32416   4.349   2.539   5.036
10725WAT     H132417   4.265   2.583   5.066
10725WAT     H232418   4.346   2.442   5.060
10726WAT      O32419   4.636   3.768   2.894
10726WAT     H132420   4.557   3.771   2.955
10726WAT     H232421   4.604   3.758   2.800
10727WAT      O32422   0.027   1.410   8.097
10727WAT     H132423   0.037   1.315   8.069
10727WAT     H232424  -0.070   1.436   8.096
10728WAT      O32425   0.714   3.972   4.880
10728WAT     H132426   0.755   3.995   4.791
10728WAT     H232427   0.649   4.043   4.906
10729WAT      O32428   8.367   1.621   3.041
10729WAT     H132429   8.409   1.680   2.972
10729WAT     H232430   8.328   1.677   3.114
10730WAT      O32431   3.801   1.547   1.570
10730WAT     H132432   3.808   1.515   1.476
10730WAT     H232433   3.705   1.569   1.591
10731WAT      O32434   2.585   8.473   7.727
10731WAT     H132435   2.558   8.563   7.694
10731WAT     H232436   2.683   8.459   7.712
10732WAT      O32437   8.662   4.486   5.774
10732WAT     H132438   8.630   4.500   5.680
10732WAT     H232439   8.605   4.418   5.819
10733WAT      O32440   6.709   6.194   3.738
10733WAT     H132441   6.697   6.114   3.679
10733WAT     H232442   6.795   6.187   3.788
10734WAT      O32443   3.435   4.778   4.937
10734WAT     H132444   3.377   4.698   4.924
10734WAT     H232445   3.378   4.858   4.959
10735WAT      O32446   7.067   8.137   7.558
10735WAT     H132447   6.974   8.102   7.568
10735WAT     H232448   7.067   8.236   7.574
10736WAT      O32449   2.675   4.513   2.106
10736WAT     H132450   2.606   4.585   2.097
10736WAT     H232451   2.672   4.475   2.198
10737WAT      O32452   0.463   0.692   2.431
10737WAT     H132453   0.460   0.705   2.332
10737WAT     H232454   0.530   0.754   2.471
10738WAT      O32455   7.748   1.701   0.281
10738WAT     H132456   7.758   1.679   0.184
10738WAT     H232457   7.692   1.631   0.325
10739WAT      O32458   4.217   3.283   7.134
10739WAT     H132459   4.192   3.355   7.199
10739WAT     H232460   4.199   3.193   7.174
10740WAT      O32461   9.697   9.373   6.728
10740WAT     H132462   9.735   9.403   6.816
10740WAT     H232463   9.756   9.303   6.688
10741WAT      O32464   5.867   8.177   0.842
10741WAT     H132465   5.921   8.250   0.799
10741WAT     H232466   5.837   8.112   0.772
10742WAT      O32467   2.987   6.115   8.006
10742WAT     H132468   2.995   6.204   7.961
10742WAT     H232469   3.010   6.124   8.102
10743WAT      O32470   7.291   7.806   8.652
10743WAT     H132471   7.211   7.772   8.701
10743WAT     H232472   7.361   7.835   8.717
10744WAT      O32473   6.827   2.147   5.074
10744WAT     H132474   6.840   2.208   5.152
10744WAT     H232475   6.876   2.183   4.995
10745WAT      O32476   0.884   2.987   1.021
10745WAT     H132477   0.897   3.000   0.923
10745WAT     H232478   0.908   3.071   1.069
10746WAT      O32479   6.895   5.231   2.854
10746WAT     H132480   6.914   5.317   2.807
10746WAT     H232481   6.827   5.179   2.803
10747WAT      O32482   7.216   7.339   8.340
10747WAT     H132483   7.145   7.340   8.411
10747WAT     H232484   7.227   7.431   8.303
10748WAT      O32485   3.491   4.057   6.506
10748WAT     H132486   3.583   4.083   6.533
10748WAT     H232487   3.434   4.140   6.499
10749WAT      O32488   7.471   6.411   6.126
10749WAT     H132489   7.441   6.321   6.095
10749WAT     H232490   7.537   6.401   6.201
10750WAT      O32491   8.737   2.201   2.989
10750WAT     H132492   8.639   2.198   3.009
10750WAT     H232493   8.781   2.120   3.026
10751WAT      O32494   9.080   6.203   2.031
10751WAT     H132495   9.137   6.256   1.967
10751WAT     H232496   8.985   6.233   2.023
10752WAT      O32497   8.580   9.791   4.991
10752WAT     H132498   8.592   9.878   5.039
10752WAT     H232499   8.483   9.765   4.995
10753WAT      O32500   7.290   5.783   9.390
10753WAT     H132501   7.300   5.825   9.300
10753WAT     H232502   7.373   5.796   9.443
10754WAT      O32503   8.388   5.958   9.730
10754WAT     H132504   8.458   5.887   9.731
10754WAT     H232505   8.420   6.037   9.783
10755WAT      O32506   7.812   0.142   4.674
10755WAT     H132507   7.872   0.181   4.603
10755WAT     H232508   7.717   0.144   4.641
10756WAT      O32509   2.018   8.792   1.608
10756WAT     H132510   1.982   8.873   1.655
10756WAT     H232511   2.118   8.794   1.611
10757WAT      O32512   3.546   3.319   8.676
10757WAT     H132513   3.489   3.245   8.712
10757WAT     H232514   3.501   3.361   8.598
10758WAT      O32515   4.704   6.357   3.966
10758WAT     H132516   4.754   6.305   4.036
10758WAT     H232517   4.762   6.370   3.886
10759WAT      O32518   0.367   3.610   8.445
10759WAT     H132519   0.438   3.610   8.515
10759WAT     H232520   0.402   3.565   8.362
10760WAT      O32521   0.971   3.494   8.507
10760WAT     H132522   1.040   3.424   8.528
10760WAT     H232523   0.886   3.472   8.554
10761WAT      O32524   5.297   5.993   8.096
10761WAT     H132525   5.309   6.004   7.997
10761WAT     H232526   5.269   5.899   8.116
10762WAT      O32527   3.590   8.846   8.915
10762WAT     H132528   3.651   8.865   8.838
10762WAT     H232529   3.540   8.761   8.899
10763WAT      O32530   8.590   4.693   4.637
10763WAT     H132531   8.666   4.753   4.610
10763WAT     H232532   8.551   4.650   4.555
10764WAT      O32533   9.273   0.523   4.618
10764WAT     H132534   9.235   0.593   4.678
10764WAT     H232535   9.238   0.433   4.645
10765WAT      O32536   1.511   3.779   0.224
10765WAT     H132537   1.470   3.689   0.204
10765WAT     H232538   1.611   3.770   0.228
10766WAT      O32539   4.941   0.417   1.595
10766WAT     H132540   4.893   0.462   1.670
10766WAT     H232541   4.878   0.404   1.518
10767WAT      O32542   0.278   1.592   8.418
10767WAT     H132543   0.263   1.513   8.359
10767WAT     H232544   0.248   1.675   8.372
10768WAT      O32545   2.618   4.494   3.804
10768WAT     H132546   2.660   4.531   3.721
10768WAT     H232547   2.689   4.476   3.872
10769WAT      O32548   7.490   6.299   9.619
10769WAT     H132549   7.541   6.271   9.537
10769WAT     H232550   7.488   6.399   9.624
10770WAT      O32551   0.388   1.214   2.715
10770WAT     H132552   0.366   1.132   2.662
10770WAT     H232553   0.306   1.244   2.764
10771WAT      O32554   8.719   4.983   0.731
10771WAT     H132555   8.759   5.034   0.655
10771WAT     H232556   8.779   4.989   0.810
10772WAT      O32557   8.475   3.061   5.465
10772WAT     H132558   8.545   3.098   5.404
10772WAT     H232559   8.434   2.980   5.424
10773WAT      O32560   9.215   1.015   6.552
10773WAT     H132561   9.282   1.053   6.616
10773WAT     H232562   9.221   0.915   6.553
10774WAT      O32563   3.315   0.428   0.165
10774WAT     H132564   3.364   0.389   0.243
10774WAT     H232565   3.259   0.358   0.122
10775WAT      O32566   8.081   7.931   7.253
10775WAT     H132567   8.139   7.918   7.334
10775WAT     H232568   8.029   7.847   7.236
10776WAT      O32569   9.371   5.262   8.486
10776WAT     H132570   9.358   5.221   8.576
10776WAT     H232571   9.282   5.286   8.447
10777WAT      O32572   2.759   5.456   3.643
10777WAT     H132573   2.683   5.429   3.584
10777WAT     H232574   2.775   5.554   3.634
10778WAT      O32575   1.929   9.705   6.560
10778WAT     H132576   1.992   9.722   6.485
10778WAT     H232577   1.866   9.631   6.534
10779WAT      O32578   4.813   3.502   5.433
10779WAT     H132579   4.753   3.475   5.358
10779WAT     H232580   4.780   3.587   5.474
10780WAT      O32581   2.991   1.068   7.496
10780WAT     H132582   3.023   1.070   7.591
10780WAT     H232583   2.990   0.974   7.463
10781WAT      O32584   2.012   4.663   2.963
10781WAT     H132585   2.072   4.589   2.994
10781WAT     H232586   2.028   4.744   3.019
10782WAT      O32587   7.446   4.751   9.665
10782WAT     H132588   7.531   4.726   9.711
10782WAT     H232589   7.461   4.752   9.566
10783WAT      O32590   0.303   8.236   0.434
10783WAT     H132591   0.367   8.272   0.366
10783WAT     H232592   0.211   8.236   0.396
10784WAT      O32593   3.866   2.192   6.802
10784WAT     H132594   3.900   2.103   6.835
10784WAT     H232595   3.824   2.242   6.877
10785WAT      O32596   2.729   9.060   5.450
10785WAT     H132597   2.755   8.991   5.382
10785WAT     H232598   2.697   9.142   5.403
10786WAT      O32599   6.279   5.293   9.807
10786WAT     H132600   6.217   5.282   9.730
10786WAT     H232601   6.341   5.215   9.812
10787WAT      O32602   8.206   3.350   4.801
10787WAT     H132603   8.242   3.323   4.712
10787WAT     H232604   8.147   3.278   4.836
10788WAT      O32605   9.735   3.749   2.454
10788WAT     H132606   9.700   3.680   2.517
10788WAT     H232607   9.835   3.746   2.454
10789WAT      O32608   0.128   5.545   9.838
10789WAT     H132609   0.031   5.521   9.836
10789WAT     H232610   0.146   5.606   9.915
10790WAT      O32611   0.038   3.590   8.768
10790WAT     H132612   0.007   3.499   8.742
10790WAT     H232613   0.080   3.586   8.859
10791WAT      O32614   4.362   4.640   2.239
10791WAT     H132615   4.410   4.699   2.174
10791WAT     H232616   4.357   4.685   2.328
10792WAT      O32617   6.220   9.070   2.418
10792WAT     H132618   6.136   9.037   2.375
10792WAT     H232619   6.201   9.155   2.466
10793WAT      O32620   0.322   3.919   0.920
10793WAT     H132621   0.316   3.906   1.019
10793WAT     H232622   0.274   4.003   0.894
10794WAT      O32623   8.401   1.210   3.343
10794WAT     H132624   8.344   1.139   3.300
10794WAT     H232625   8.432   1.178   3.433
10795WAT      O32626   6.904   9.372   8.693
10795WAT     H132627   6.838   9.304   8.724
10795WAT     H232628   6.985   9.327   8.657
10796WAT      O32629   1.552   1.772   1.647
10796WAT     H132630   1.486   1.736   1.713
10796WAT     H232631   1.521   1.749   1.554
10797WAT      O32632   7.978   2.688   6.635
10797WAT     H132633   8.053   2.678   6.571
10797WAT     H232634   7.989   2.773   6.687
10798WAT      O32635   5.892   8.765   9.066
10798WAT     H132636   5.915   8.737   8.973
10798WAT     H232637   5.800   8.803   9.068
10799WAT      O32638   0.784   3.017   2.249
10799WAT     H132639   0.712   2.954   2.278
10799WAT     H232640   0.863   3.006   2.309
10800WAT      O32641   0.377   4.753   4.533
10800WAT     H132642   0.387   4.712   4.443
10800WAT     H232643   0.444   4.826   4.544
10801WAT      O32644   5.366   7.477   3.875
10801WAT     H132645   5.383   7.547   3.945
10801WAT     H232646   5.290   7.419   3.903
10802WAT      O32647   8.088   4.883   7.319
10802WAT     H132648   7.995   4.862   7.351
10802WAT     H232649   8.154   4.833   7.374
10803WAT      O32650   4.247   1.012   3.995
10803WAT     H132651   4.278   1.084   4.057
10803WAT     H232652   4.226   1.052   3.906
10804WAT      O32653   3.345   0.418   7.917
10804WAT     H132654   3.306   0.421   8.009
10804WAT     H232655   3.425   0.477   7.913
10805WAT      O32656   3.201   7.596   6.468
10805WAT     H132657   3.274   7.572   6.532
10805WAT     H232658   3.238   7.657   6.398
10806WAT      O32659   1.673   9.625   4.378
10806WAT     H132660   1.682   9.596   4.473
10806WAT     H232661   1.667   9.725   4.374
10807WAT      O32662   6.761   7.498   0.847
10807WAT     H132663   6.720   7.409   0.869
10807WAT     H232664   6.763   7.509   0.747
10808WAT      O32665   2.633   4.620   9.510
10808WAT     H132666   2.575   4.666   9.577
10808WAT     H232667   2.728   4.648   9.523
10809WAT      O32668   8.943   7.074   1.101
10809WAT     H132669   8.897   7.043   1.184
10809WAT     H232670   8.889   7.147   1.059
10810WAT      O32671   0.347   9.073   0.213
10810WAT     H132672   0.273   9.017   0.250
10810WAT     H232673   0.415   9.014   0.170
10811WAT      O32674   7.715   9.546   3.419
10811WAT     H132675   7.771   9.580   3.343
10811WAT     H232676   7.637   9.607   3.433
10812WAT      O32677   5.335   3.266   4.859
10812WAT     H132678   5.298   3.342   4.805
10812WAT     H232679   5.276   3.186   4.849
10813WAT      O32680   9.878   4.637   4.707
10813WAT     H132681   9.974   4.621   4.726
10813WAT     H232682   9.830   4.549   4.701
10814WAT      O32683   7.003   7.748   4.978
10814WAT     H132684   6.966   7.841   4.973
10814WAT     H232685   6.996   7.714   5.071
10815WAT      O32686   8.408   3.097   0.370
10815WAT     H132687   8.383   3.001   0.379
10815WAT     H232688   8.369   3.149   0.446
10816WAT      O32689   9.371   2.243   7.719
10816WAT     H132690   9.453   2.203   7.679
10816WAT     H232691   9.396   2.314   7.784
10817WAT      O32692   9.748   3.869   6.225
10817WAT     H132693   9.763   3.806   6.149
10817WAT     H232694   9.834   3.883   6.274
10818WAT      O32695   8.654   2.840   4.326
10818WAT     H132696   8.733   2.831   4.387
10818WAT     H232697   8.593   2.911   4.360
10819WAT      O32698   0.455   6.980   5.580
10819WAT     H132699   0.544   7.024   5.589
10819WAT     H232700   0.414   6.971   5.671
10820WAT      O32701   1.809   1.518   7.542
10820WAT     H132702   1.826   1.598   7.484
10820WAT     H232703   1.738   1.461   7.500
10821WAT      O32704   0.603   2.144   1.014
10821WAT     H132705   0.685   2.148   0.956
10821WAT     H232706   0.574   2.237   1.037
10822WAT      O32707   7.058   7.753   6.187
10822WAT     H132708   7.012   7.699   6.116
10822WAT     H232709   7.085   7.841   6.149
10823WAT      O32710   9.018   7.234   8.080
10823WAT     H132711   9.002   7.186   7.993
10823WAT     H232712   9.038   7.166   8.151
10824WAT      O32713   1.503   7.310   5.047
10824WAT     H132714   1.569   7.307   5.122
10824WAT     H232715   1.524   7.387   4.987
10825WAT      O32716   6.049   5.228   0.830
10825WAT     H132717   6.075   5.322   0.853
10825WAT     H232718   6.132   5.173   0.818
10826WAT      O32719   6.902   2.419   9.629
10826WAT     H132720   6.888   2.515   9.606
10826WAT     H232721   6.830   2.363   9.588
10827WAT      O32722   0.435   3.611   4.807
10827WAT     H132723   0.483   3.523   4.801
10827WAT     H232724   0.353   3.608   4.750
10828WAT      O32725   4.209   0.292   5.217
10828WAT     H132726   4.208   0.390   5.239
10828WAT     H232727   4.122   0.251   5.247
10829WAT      O32728   8.279   4.398   3.688
10829WAT     H132729   8.193   4.365   3.648
10829WAT     H232730   8.291   4.358   3.779
10830WAT      O32731   3.921   2.070   2.451
10830WAT     H132732   3.899   2.164   2.476
10830WAT     H232733   3.884   2.008   2.521
10831WAT      O32734   2.260   4.564   4.661
10831WAT     H132735   2.230   4.495   4.727
10831WAT     H232736   2.180   4.606   4.618
10832WAT      O32737   4.634   8.585   3.884
10832WAT     H132738   4.556   8.646   3.870
10832WAT     H232739   4.630   8.547   3.977
10833WAT      O32740   2.528   0.775   3.840
10833WAT     H132741   2.466   0.777   3.918
10833WAT     H232742   2.618   0.808   3.867
10834WAT      O32743   5.927   2.685   3.088
10834WAT     H132744   5.928   2.772   3.039
10834WAT     H232745   5.969   2.697   3.178
10835WAT      O32746   0.649   1.444   2.252
10835WAT     H132747   0.682   1.408   2.164
10835WAT     H232748   0.718   1.504   2.292
10836WAT      O32749   2.193   1.580   8.310
10836WAT     H132750   2.263   1.586   8.381
10836WAT     H232751   2.141   1.495   8.321
10837WAT      O32752   5.085   4.086   1.303
10837WAT     H132753   5.157   4.061   1.238
10837WAT     H232754   5.056   4.180   1.285
10838WAT      O32755   5.721   1.738   8.411
10838WAT     H132756   5.739   1.763   8.506
10838WAT     H232757   5.748   1.644   8.395
10839WAT      O32758   9.610   8.768   5.018
10839WAT     H132759   9.595   8.669   5.015
10839WAT     H232760   9.523   8.815   5.030
10840WAT      O32761   7.226   5.910   9.772
10840WAT     H132762   7.285   5.832   9.753
10840WAT     H232763   7.236   5.977   9.698
10841WAT      O32764   4.889   0.126   5.429
10841WAT     H132765   4.852   0.048   5.480
10841WAT     H232766   4.988   0.121   5.429
10842WAT      O32767   3.923   2.497   0.989
10842WAT     H132768   3.909   2.412   1.040
10842WAT     H232769   3.891   2.485   0.895
10843WAT      O32770   6.080   4.275   6.624
10843WAT     H132771   6.173   4.242   6.641
10843WAT     H232772   6.058   4.264   6.527
10844WAT      O32773   6.227   6.164   4.344
10844WAT     H132774   6.141   6.215   4.344
10844WAT     H232775   6.234   6.109   4.261
10845WAT      O32776   2.922   4.305   7.592
10845WAT     H132777   2.962   4.290   7.683
10845WAT     H232778   2.894   4.400   7.583
10846WAT      O32779   8.064   6.472   7.723
10846WAT     H132780   8.023   6.497   7.635
10846WAT     H232781   8.120   6.548   7.757
10847WAT      O32782   1.772   2.690   6.292
10847WAT     H132783   1.805   2.640   6.372
10847WAT     H232784   1.711   2.631   6.238
10848WAT      O32785   0.320   0.376   4.490
10848WAT     H132786   0.404   0.332   4.457
10848WAT     H232787   0.342   0.439   4.564
10849WAT      O32788   5.262   0.303   0.231
10849WAT     H132789   5.348   0.342   0.264
10849WAT     H232790   5.188   0.369   0.246
10850WAT      O32791   2.704   1.535   0.279
10850WAT     H132792   2.668   1.474   0.350
10850WAT     H232793   2.750   1.613   0.322
10851WAT      O32794   3.323   6.689   0.844
10851WAT     H132795   3.408   6.648   0.810
10851WAT     H232796   3.337   6.787   0.859
10852WAT      O32797   8.219   3.583   8.529
10852WAT     H132798   8.140   3.530   8.560
10852WAT     H232799   8.265   3.624   8.608
10853WAT      O32800   0.861   0.568   4.396
10853WAT     H132801   0.790   0.512   4.438
10853WAT     H232802   0.841   0.581   4.299
10854WAT      O32803   6.424   7.618   2.355
10854WAT     H132804   6.437   7.562   2.437
10854WAT     H232805   6.334   7.661   2.359
10855WAT      O32806   0.188   3.365   5.471
10855WAT     H132807   0.182   3.335   5.376
10855WAT     H232808   0.193   3.285   5.531
10856WAT      O32809   4.430   0.017   7.659
10856WAT     H132810   4.401  -0.076   7.636
10856WAT     H232811   4.367   0.056   7.726
10857WAT      O32812   9.290   7.757   8.563
10857WAT     H132813   9.267   7.666   8.597
10857WAT     H232814   9.281   7.824   8.637
10858WAT      O32815   4.637   0.359   3.077
10858WAT     H132816   4.585   0.327   2.998
10858WAT     H232817   4.576   0.362   3.157
10859WAT      O32818   8.522   3.961   6.464
10859WAT     H132819   8.446   4.007   6.511
10859WAT     H232820   8.608   4.000   6.497
10860WAT      O32821   6.743   9.526   2.406
10860WAT     H132822   6.692   9.440   2.415
10860WAT     H232823   6.840   9.506   2.394
10861WAT      O32824   3.617   6.834   0.615
10861WAT     H132825   3.663   6.923   0.609
10861WAT     H232826   3.571   6.814   0.529
10862WAT      O32827   3.656   1.986   3.624
10862WAT     H132828   3.732   2.049   3.612
10862WAT     H232829   3.648   1.961   3.721
10863WAT      O32830   2.739   8.391   0.797
10863WAT     H132831   2.740   8.434   0.887
10863WAT     H232832   2.674   8.438   0.738
10864WAT      O32833   3.532   6.466   2.139
10864WAT     H132834   3.584   6.395   2.185
10864WAT     H232835   3.442   6.430   2.113
10865WAT      O32836   5.059   2.344   9.424
10865WAT     H132837   5.138   2.314   9.478
10865WAT     H232838   5.080   2.432   9.381
10866WAT      O32839   9.615   4.521   9.622
10866WAT     H132840   9.538   4.481   9.670
10866WAT     H232841   9.615   4.620   9.634
10867WAT      O32842   5.083   3.801   0.460
10867WAT     H132843   5.087   3.714   0.508
10867WAT     H232844   5.175   3.827   0.431
10868WAT      O32845   0.249   4.303   6.903
10868WAT     H132846   0.281   4.300   6.809
10868WAT     H232847   0.182   4.231   6.919
10869WAT      O32848   0.477   4.936   3.282
10869WAT     H132849   0.410   4.967   3.349
10869WAT     H232850   0.524   5.015   3.243
10870WAT      O32851   2.511   0.432   7.631
10870WAT     H132852   2.571   0.353   7.625
10870WAT     H232853   2.544   0.504   7.569
10871WAT      O32854   9.866   4.380   3.717
10871WAT     H132855   9.791   4.339   3.666
10871WAT     H232856   9.933   4.309   3.740
10872WAT      O32857   2.015   3.428   6.745
10872WAT     H132858   2.052   3.424   6.652
10872WAT     H232859   2.057   3.503   6.795
10873WAT      O32860   8.066   3.222   7.108
10873WAT     H132861   8.110   3.141   7.070
10873WAT     H232862   8.049   3.208   7.205
10874WAT      O32863   1.937   0.441   7.815
10874WAT     H132864   1.877   0.493   7.877
10874WAT     H232865   2.031   0.445   7.849
10875WAT      O32866   9.254   2.637   5.392
10875WAT     H132867   9.309   2.662   5.472
10875WAT     H232868   9.309   2.645   5.309
10876WAT      O32869   8.520   8.315   3.392
10876WAT     H132870   8.593   8.312   3.323
10876WAT     H232871   8.558   8.349   3.479
10877WAT      O32872   9.582   9.446   4.877
10877WAT     H132873   9.611   9.441   4.973
10877WAT     H232874   9.493   9.402   4.867
10878WAT      O32875   5.515   7.977   8.656
10878WAT     H132876   5.613   7.996   8.654
10878WAT     H232877   5.472   8.016   8.574
10879WAT      O32878   5.172   6.628   0.816
10879WAT     H132879   5.128   6.617   0.727
10879WAT     H232880   5.176   6.725   0.840
10880WAT      O32881   5.748   1.684   2.898
10880WAT     H132882   5.826   1.621   2.894
10880WAT     H232883   5.778   1.770   2.940
10881WAT      O32884   5.401   1.310   0.625
10881WAT     H132885   5.342   1.249   0.678
10881WAT     H232886   5.494   1.273   0.625
10882WAT      O32887   8.653   1.866   3.561
10882WAT     H132888   8.717   1.793   3.583
10882WAT     H232889   8.704   1.949   3.538
10883WAT      O32890   6.680   7.624   2.852
10883WAT     H132891   6.713   7.530   2.849
10883WAT     H232892   6.583   7.626   2.877
10884WAT      O32893   8.275   6.484   2.552
10884WAT     H132894   8.271   6.462   2.454
10884WAT     H232895   8.342   6.557   2.566
10885WAT      O32896   7.217   5.513   7.350
10885WAT     H132897   7.121   5.528   7.324
10885WAT     H232898   7.263   5.602   7.360
10886WAT      O32899   4.793   0.544   8.531
10886WAT     H132900   4.875   0.488   8.543
10886WAT     H232901   4.819   0.636   8.503
10887WAT      O32902   3.689   6.721   2.511
10887WAT     H132903   3.685   6.820   2.508
10887WAT     H232904   3.701   6.684   2.419
10888WAT      O32905   8.109   8.733   5.834
10888WAT     H132906   8.158   8.688   5.760
10888WAT     H232907   8.029   8.781   5.797
10889WAT      O32908   8.994   6.114   3.153
10889WAT     H132909   9.077   6.074   3.191
10889WAT     H232910   8.999   6.114   3.053
10890WAT      O32911   4.233   9.079   5.467
10890WAT     H132912   4.253   9.002   5.407
10890WAT     H232913   4.318   9.128   5.487
10891WAT      O32914   3.142   1.515   4.133
10891WAT     H132915   3.117   1.565   4.050
10891WAT     H232916   3.201   1.439   4.109
10892WAT      O32917   6.167   0.037   2.711
10892WAT     H132918   6.259   0.050   2.747
10892WAT     H232919   6.100   0.076   2.774
10893WAT      O32920   4.611   2.001   6.609
10893WAT     H132921   4.536   1.946   6.645
10893WAT     H232922   4.698   1.962   6.637
10894WAT      O32923   1.665   1.334   5.891
10894WAT     H132924   1.697   1.326   5.985
10894WAT     H232925   1.587   1.396   5.888
10895WAT      O32926   1.283   5.795   1.515
10895WAT     H132927   1.274   5.895   1.524
10895WAT     H232928   1.325   5.758   1.598
10896WAT      O32929   7.940   3.132   2.729
10896WAT     H132930   7.875   3.144   2.654
10896WAT     H232931   7.918   3.047   2.778
10897WAT      O32932   4.959   6.733   2.520
10897WAT     H132933   5.048   6.699   2.548
10897WAT     H232934   4.930   6.806   2.583
10898WAT      O32935   3.482   3.618   8.995
10898WAT     H132936   3.562   3.653   9.043
10898WAT     H232937   3.493   3.633   8.897
10899WAT      O32938   2.699   2.855   8.858
10899WAT     H132939   2.608   2.813   8.864
10899WAT     H232940   2.767   2.790   8.891
10900WAT      O32941   3.907   3.608   5.247
10900WAT     H132942   3.903   3.678   5.318
10900WAT     H232943   4.002   3.596   5.217
10901WAT      O32944   1.800   7.042   3.137
10901WAT     H132945   1.879   6.990   3.171
10901WAT     H232946   1.717   7.007   3.181
10902WAT      O32947   4.598   8.826   8.669
10902WAT     H132948   4.541   8.848   8.747
10902WAT     H232949   4.586   8.895   8.598
10903WAT      O32950   0.853   8.147   1.913
10903WAT     H132951   0.772   8.090   1.898
10903WAT     H232952   0.929   8.112   1.858
10904WAT      O32953   4.955   4.942   8.814
10904WAT     H132954   5.023   5.002   8.854
10904WAT     H232955   4.995   4.893   8.736
10905WAT      O32956   0.260   1.812   0.248
10905WAT     H132957   0.241   1.862   0.333
10905WAT     H232958   0.317   1.868   0.188
10906WAT      O32959   9.777   7.190   4.261
10906WAT     H132960   9.719   7.132   4.205
10906WAT     H232961   9.743   7.284   4.259
10907WAT      O32962   8.165   7.387   2.545
10907WAT     H132963   8.172   7.333   2.630
10907WAT     H232964   8.114   7.471   2.564
10908WAT      O32965   9.082   4.954   8.980
10908WAT     H132966   9.147   4.945   8.905
10908WAT     H232967   9.028   4.870   8.988
10909WAT      O32968   8.769   1.332   0.973
10909WAT     H132969   8.765   1.268   0.895
10909WAT     H232970   8.707   1.408   0.956
10910WAT      O32971   4.069   6.938   7.308
10910WAT     H132972   4.122   6.860   7.275
10910WAT     H232973   4.129   7.017   7.318
10911WAT      O32974   0.864   7.580   8.323
10911WAT     H132975   0.958   7.614   8.331
10911WAT     H232976   0.840   7.571   8.226
10912WAT      O32977   3.244   6.470   8.759
10912WAT     H132978   3.266   6.373   8.750
10912WAT     H232979   3.220   6.507   8.670
10913WAT      O32980   5.978   0.241   4.054
10913WAT     H132981   6.048   0.221   4.122
10913WAT     H232982   5.996   0.330   4.013
10914WAT      O32983   7.227   6.803   2.240
10914WAT     H132984   7.185   6.861   2.310
10914WAT     H232985   7.161   6.736   2.207
10915WAT      O32986   2.403   0.504   0.825
10915WAT     H132987   2.355   0.420   0.799
10915WAT     H232988   2.445   0.544   0.744
10916WAT      O32989   2.559   0.621   4.185
10916WAT     H132990   2.530   0.564   4.262
10916WAT     H232991   2.619   0.693   4.219
10917WAT      O32992   9.617   6.779   4.334
10917WAT     H132993   9.548   6.718   4.295
10917WAT     H232994   9.587   6.810   4.424
10918WAT      O32995   1.959   1.550   4.032
10918WAT     H132996   1.943   1.485   3.957
10918WAT     H232997   1.874   1.599   4.053
10919WAT      O32998   4.107   3.568   5.523
10919WAT     H132999   4.151   3.498   5.579
10919WAT     H233000   4.169   3.646   5.513
10920WAT      O33001   2.234   6.602   9.449
10920WAT     H133002   2.172   6.532   9.483
10920WAT     H233003   2.328   6.569   9.455
10921WAT      O33004   1.717   3.154   7.165
10921WAT     H133005   1.754   3.064   7.144
10921WAT     H233006   1.759   3.223   7.106
10922WAT      O33007   1.295   5.275   0.785
10922WAT     H133008   1.203   5.312   0.793
10922WAT     H233009   1.361   5.340   0.822
10923WAT      O33010   1.514   6.411   4.497
10923WAT     H133011   1.446   6.416   4.425
10923WAT     H233012   1.578   6.337   4.477
10924WAT      O33013   4.850   1.920   0.547
10924WAT     H133014   4.834   2.015   0.521
10924WAT     H233015   4.790   1.896   0.623
10925WAT      O33016   8.312   8.352   2.038
10925WAT     H133017   8.306   8.409   2.120
10925WAT     H233018   8.278   8.404   1.959
10926WAT      O33019   8.978   1.891   2.308
10926WAT     H133020   9.016   1.894   2.400
10926WAT     H233021   8.912   1.816   2.301
10927WAT      O33022   0.781   7.876   1.621
10927WAT     H133023   0.747   7.947   1.683
10927WAT     H233024   0.734   7.789   1.641
10928WAT      O33025   0.243   4.420   1.814
10928WAT     H133026   0.294   4.440   1.730
10928WAT     H233027   0.153   4.463   1.810
10929WAT      O33028   1.247   8.472   8.062
10929WAT     H133029   1.164   8.493   8.115
10929WAT     H233030   1.299   8.401   8.108
10930WAT      O33031   9.103   0.679   3.126
10930WAT     H133032   9.134   0.604   3.068
10930WAT     H233033   9.180   0.740   3.146
10931WAT      O33034   3.017   3.585   9.031
10931WAT     H133035   3.054   3.498   9.061
10931WAT     H233036   2.990   3.578   8.934
10932WAT      O33037   9.756   2.013   5.950
10932WAT     H133038   9.839   1.972   5.912
10932WAT     H233039   9.686   1.943   5.961
10933WAT      O33040   4.534   8.799   8.166
10933WAT     H133041   4.606   8.748   8.212
10933WAT     H233042   4.445   8.768   8.200
10934WAT      O33043   7.016   1.363   1.178
10934WAT     H133044   6.930   1.411   1.160
10934WAT     H233045   7.044   1.379   1.273
10935WAT      O33046   8.669   5.857   4.659
10935WAT     H133047   8.622   5.898   4.581
10935WAT     H233048   8.740   5.920   4.691
10936WAT      O33049   3.536   6.169   2.043
10936WAT     H133050   3.575   6.184   2.134
10936WAT     H233051   3.596   6.207   1.973
10937WAT      O33052   3.911   1.643   2.933
10937WAT     H133053   3.867   1.732   2.938
10937WAT     H233054   3.922   1.617   2.837
10938WAT      O33055   7.904   3.135   6.357
10938WAT     H133056   7.933   3.187   6.277
10938WAT     H233057   7.888   3.198   6.433
10939WAT      O33058   5.895   3.735   4.961
10939WAT     H133059   5.865   3.643   4.935
10939WAT     H233060   5.827   3.802   4.932
10940WAT      O33061   1.870   4.538   6.510
10940WAT     H133062   1.803   4.587   6.565
10940WAT     H233063   1.959   4.539   6.556
10941WAT      O33064   2.502   0.525   0.543
10941WAT     H133065   2.470   0.547   0.451
10941WAT     H233066   2.563   0.597   0.576
10942WAT      O33067   2.053   9.777   7.185
10942WAT     H133068   1.954   9.759   7.181
10942WAT     H233069   2.076   9.816   7.274
10943WAT      O33070   1.129   6.148   9.507
10943WAT     H133071   1.088   6.239   9.498
10943WAT     H233072   1.073   6.081   9.458
10944WAT      O33073   9.491   6.605   3.657
10944WAT     H133074   9.480   6.506   3.670
10944WAT     H233075   9.503   6.649   3.746
10945WAT      O33076   6.306   3.116   1.252
10945WAT     H133077   6.267   3.168   1.176
10945WAT     H233078   6.281   3.019   1.242
10946WAT      O33079   3.209   6.625   6.230
10946WAT     H133080   3.163   6.548   6.187
10946WAT     H233081   3.304   6.628   6.200
10947WAT      O33082   3.162   5.199   9.739
10947WAT     H133083   3.259   5.217   9.757
10947WAT     H233084   3.149   5.103   9.715
10948WAT      O33085   3.885   5.526   1.565
10948WAT     H133086   3.810   5.466   1.536
10948WAT     H233087   3.853   5.587   1.637
10949WAT      O33088   2.281   3.611   7.390
10949WAT     H133089   2.324   3.529   7.354
10949WAT     H233090   2.182   3.608   7.373
10950WAT      O33091   4.142   1.674   0.759
10950WAT     H133092   4.208   1.730   0.809
10950WAT     H233093   4.143   1.699   0.662
10951WAT      O33094   7.060   1.054   3.670
10951WAT     H133095   6.985   1.030   3.608
10951WAT     H233096   7.027   1.052   3.764
10952WAT      O33097   1.342   0.618   3.936
10952WAT     H133098   1.333   0.718   3.929
10952WAT     H233099   1.279   0.583   4.005
10953WAT      O33100   6.849   8.722   1.282
10953WAT     H133101   6.824   8.640   1.332
10953WAT     H233102   6.893   8.697   1.196
10954WAT      O33103   6.138   3.862   7.934
10954WAT     H133104   6.082   3.944   7.921
10954WAT     H233105   6.088   3.798   7.992
10955WAT      O33106   1.879   4.467   8.226
10955WAT     H133107   1.903   4.372   8.243
10955WAT     H233108   1.898   4.521   8.309
10956WAT      O33109   0.136   6.782   1.022
10956WAT     H133110   0.127   6.841   1.102
10956WAT     H233111   0.220   6.728   1.030
10957WAT      O33112   6.993   2.856   5.686
10957WAT     H133113   7.017   2.835   5.591
10957WAT     H233114   6.960   2.951   5.692
10958WAT      O33115   9.426   5.016   2.598
10958WAT     H133116   9.442   5.071   2.680
10958WAT     H233117   9.331   4.987   2.596
10959WAT      O33118   7.285   3.253   1.654
10959WAT     H133119   7.267   3.160   1.620
10959WAT     H233120   7.383   3.267   1.661
10960WAT      O33121   1.778   9.230   1.491
10960WAT     H133122   1.837   9.294   1.540
10960WAT     H233123   1.829   9.189   1.416
10961WAT      O33124   2.704   3.200   2.452
10961WAT     H133125   2.730   3.281   2.401
10961WAT     H233126   2.742   3.205   2.544
10962WAT      O33127   3.152   3.418   8.402
10962WAT     H133128   3.133   3.457   8.492
10962WAT     H233129   3.245   3.380   8.401
10963WAT      O33130   7.645   0.931   5.366
10963WAT     H133131   7.693   0.894   5.446
10963WAT     H233132   7.631   1.029   5.378
10964WAT      O33133   4.527   4.328   4.003
10964WAT     H133134   4.499   4.424   4.001
10964WAT     H233135   4.580   4.310   4.085
10965WAT      O33136   2.066   1.066   3.572
10965WAT     H133137   2.133   1.087   3.644
10965WAT     H233138   2.003   1.143   3.562
10966WAT      O33139   3.303   1.545   1.336
10966WAT     H133140   3.265   1.617   1.395
10966WAT     H233141   3.401   1.538   1.352
10967WAT      O33142   1.365   0.521   9.696
10967WAT     H133143   1.362   0.601   9.756
10967WAT     H233144   1.404   0.443   9.746
10968WAT      O33145   1.382   0.888   1.539
10968WAT     H133146   1.398   0.870   1.636
10968WAT     H233147   1.284   0.879   1.520
10969WAT      O33148   6.278   0.064   2.444
10969WAT     H133149   6.221   0.065   2.526
10969WAT     H233150   6.356   0.125   2.457
10970WAT      O33151   8.293   4.378   4.111
10970WAT     H133152   8.246   4.326   4.040
10970WAT     H233153   8.232   4.390   4.190
10971WAT      O33154   0.391   1.630   9.741
10971WAT     H133155   0.454   1.565   9.781
10971WAT     H233156   0.442   1.705   9.699
10972WAT      O33157   5.374   6.774   6.171
10972WAT     H133158   5.276   6.777   6.152
10972WAT     H233159   5.409   6.867   6.183
10973WAT      O33160   0.740   9.215   6.585
10973WAT     H133161   0.791   9.274   6.523
10973WAT     H233162   0.791   9.205   6.671
10974WAT      O33163   3.519   8.860   1.351
10974WAT     H133164   3.579   8.785   1.324
10974WAT     H233165   3.571   8.946   1.350
10975WAT      O33166   1.993   8.980   4.805
10975WAT     H133167   2.018   9.068   4.766
10975WAT     H233168   1.992   8.986   4.904
10976WAT      O33169   8.257   9.532   1.204
10976WAT     H133170   8.274   9.611   1.145
10976WAT     H233171   8.300   9.451   1.165
10977WAT      O33172   5.738   0.838   4.466
10977WAT     H133173   5.695   0.909   4.411
10977WAT     H233174   5.769   0.877   4.553
10978WAT      O33175   1.843   3.885   7.905
10978WAT     H133176   1.841   3.795   7.949
10978WAT     H233177   1.938   3.916   7.899
10979WAT      O33178   8.160   5.587   8.115
10979WAT     H133179   8.229   5.569   8.185
10979WAT     H233180   8.120   5.501   8.084
10980WAT      O33181   2.701   3.517   2.528
10980WAT     H133182   2.766   3.582   2.567
10980WAT     H233183   2.609   3.554   2.536
10981WAT      O33184   7.694   5.023   8.246
10981WAT     H133185   7.694   5.107   8.299
10981WAT     H233186   7.666   4.946   8.304
10982WAT      O33187   6.521   9.264   4.472
10982WAT     H133188   6.544   9.321   4.393
10982WAT     H233189   6.541   9.168   4.452
10983WAT      O33190   3.404   0.750   6.803
10983WAT     H133191   3.456   0.780   6.884
10983WAT     H233192   3.327   0.812   6.789
10984WAT      O33193   8.524   8.450   7.669
10984WAT     H133194   8.424   8.444   7.664
10984WAT     H233195   8.553   8.543   7.645
10985WAT      O33196   1.760   7.392   8.558
10985WAT     H133197   1.783   7.463   8.625
10985WAT     H233198   1.670   7.354   8.579
10986WAT      O33199   2.878   2.545   7.278
10986WAT     H133200   2.910   2.638   7.262
10986WAT     H233201   2.876   2.527   7.377
10987WAT      O33202   7.830   6.979   4.000
10987WAT     H133203   7.905   7.036   3.967
10987WAT     H233204   7.799   6.919   3.927
10988WAT      O33205   7.476   7.902   8.813
10988WAT     H133206   7.546   7.959   8.771
10988WAT     H233207   7.439   7.948   8.893
10989WAT      O33208   5.734   4.536   7.817
10989WAT     H133209   5.676   4.559   7.738
10989WAT     H233210   5.711   4.596   7.893
10990WAT      O33211   4.009   5.910   0.426
10990WAT     H133212   4.083   5.845   0.442
10990WAT     H233213   3.948   5.911   0.506
10991WAT      O33214   9.059   8.924   0.390
10991WAT     H133215   8.995   8.987   0.435
10991WAT     H233216   9.112   8.875   0.459
10992WAT      O33217   0.351   4.217   1.985
10992WAT     H133218   0.450   4.221   1.967
10992WAT     H233219   0.303   4.274   1.918
10993WAT      O33220   5.562   9.698   3.916
10993WAT     H133221   5.584   9.772   3.852
10993WAT     H233222   5.610   9.615   3.888
10994WAT      O33223   4.684   3.553   9.447
10994WAT     H133224   4.761   3.507   9.401
10994WAT     H233225   4.707   3.567   9.543
10995WAT      O33226   6.314   1.401   6.715
10995WAT     H133227   6.316   1.405   6.815
10995WAT     H233228   6.392   1.450   6.678
10996WAT      O33229   2.280   1.680   2.973
10996WAT     H133230   2.262   1.678   2.874
10996WAT     H233231   2.379   1.670   2.989
10997WAT      O33232   3.822   6.966   8.115
10997WAT     H133233   3.846   6.883   8.066
10997WAT     H233234   3.761   6.944   8.191
10998WAT      O33235   9.824   7.036   7.718
10998WAT     H133236   9.891   7.050   7.645
10998WAT     H233237   9.732   7.041   7.680
10999WAT      O33238   0.436   1.974   9.196
10999WAT     H133239   0.503   1.969   9.122
10999WAT     H233240   0.352   1.928   9.167
11000WAT      O33241   2.859   2.788   6.246
11000WAT     H133242   2.954   2.814   6.225
11000WAT     H233243   2.823   2.850   6.316
11001WAT      O33244   0.811   4.877   3.594
11001WAT     H133245   0.814   4.868   3.694
11001WAT     H233246   0.718   4.858   3.562
11002WAT      O33247   5.122   8.566   0.988
11002WAT     H133248   5.051   8.557   1.057
11002WAT     H233249   5.139   8.477   0.946
11003WAT      O33250   4.793   8.957   9.098
11003WAT     H133251   4.806   8.861   9.123
11003WAT     H233252   4.839   8.975   9.010
11004WAT      O33253   6.732   3.677   1.292
11004WAT     H133254   6.762   3.726   1.211
11004WAT     H233255   6.681   3.595   1.264
11005WAT      O33256   3.716   8.415   3.387
11005WAT     H133257   3.618   8.431   3.388
11005WAT     H233258   3.737   8.335   3.331
11006WAT      O33259   4.818   4.020   9.074
11006WAT     H133260   4.869   4.088   9.021
11006WAT     H233261   4.881   3.951   9.109
11007WAT      O33262   6.620   3.715   9.744
11007WAT     H133263   6.708   3.721   9.698
11007WAT     H233264   6.616   3.780   9.820
11008WAT      O33265   2.501   1.179   8.939
11008WAT     H133266   2.474   1.264   8.985
11008WAT     H233267   2.572   1.200   8.871
11009WAT      O33268   9.137   5.622   5.442
11009WAT     H133269   9.212   5.611   5.507
11009WAT     H233270   9.134   5.543   5.381
11010WAT      O33271   8.108   9.038   6.715
11010WAT     H133272   8.133   9.001   6.805
11010WAT     H233273   8.012   9.017   6.696
11011WAT      O33274   9.571   5.558   4.119
11011WAT     H133275   9.531   5.640   4.077
11011WAT     H233276   9.655   5.583   4.167
11012WAT      O33277   2.124   2.580   3.825
11012WAT     H133278   2.066   2.603   3.747
11012WAT     H233279   2.189   2.654   3.841
11013WAT      O33280   7.552   8.464   1.153
11013WAT     H133281   7.635   8.518   1.143
11013WAT     H233282   7.478   8.506   1.101
11014WAT      O33283   0.013   7.813   8.484
11014WAT     H133284   0.021   7.892   8.423
11014WAT     H233285  -0.080   7.776   8.479
11015WAT      O33286   3.195   9.258   1.933
11015WAT     H133287   3.125   9.322   1.900
11015WAT     H233288   3.229   9.204   1.856
11016WAT      O33289   6.672   5.146   2.037
11016WAT     H133290   6.700   5.079   2.107
11016WAT     H233291   6.738   5.221   2.036
11017WAT      O33292   2.133   0.988   2.203
11017WAT     H133293   2.204   1.021   2.140
11017WAT     H233294   2.164   0.904   2.247
11018WAT      O33295   6.025   6.087   9.882
11018WAT     H133296   6.110   6.138   9.864
11018WAT     H233297   5.999   6.037   9.800
11019WAT      O33298   8.489   8.554   6.906
11019WAT     H133299   8.468   8.636   6.852
11019WAT     H233300   8.469   8.473   6.851
11020WAT      O33301   5.968   8.795   1.812
11020WAT     H133302   6.058   8.758   1.836
11020WAT     H233303   5.909   8.794   1.893
11021WAT      O33304   2.614   2.935   3.448
11021WAT     H133305   2.599   2.929   3.350
11021WAT     H233306   2.544   2.883   3.497
11022WAT      O33307   7.345   9.722   5.849
11022WAT     H133308   7.258   9.722   5.800
11022WAT     H233309   7.332   9.684   5.941
11023WAT      O33310   7.934   4.335   0.214
11023WAT     H133311   7.885   4.413   0.175
11023WAT     H233312   7.873   4.286   0.276
11024WAT      O33313   4.835   4.036   2.577
11024WAT     H133314   4.823   4.045   2.676
11024WAT     H233315   4.911   3.974   2.557
11025WAT      O33316   6.585   8.376   9.609
11025WAT     H133317   6.614   8.302   9.669
11025WAT     H233318   6.660   8.400   9.548
11026WAT      O33319   1.870   6.734   0.605
11026WAT     H133320   1.928   6.815   0.601
11026WAT     H233321   1.920   6.656   0.567
11027WAT      O33322   5.887   3.296   1.388
11027WAT     H133323   5.934   3.342   1.313
11027WAT     H233324   5.799   3.260   1.355
11028WAT      O33325   9.718   1.006   4.581
11028WAT     H133326   9.728   0.947   4.501
11028WAT     H233327   9.702   1.100   4.552
11029WAT      O33328   7.788   0.027   6.550
11029WAT     H133329   7.818  -0.052   6.602
11029WAT     H233330   7.752  -0.003   6.461
11030WAT      O33331   3.268   8.545   2.061
11030WAT     H133332   3.251   8.616   2.130
11030WAT     H233333   3.272   8.587   1.970
11031WAT      O33334   4.513   0.750   1.157
11031WAT     H133335   4.570   0.820   1.114
11031WAT     H233336   4.425   0.789   1.184
11032WAT      O33337   4.125   8.236   9.743
11032WAT     H133338   4.067   8.236   9.824
11032WAT     H233339   4.076   8.278   9.667
11033WAT      O33340   6.187   8.264   5.202
11033WAT     H133341   6.213   8.324   5.126
11033WAT     H233342   6.088   8.258   5.208
11034WAT      O33343   8.258   8.529   8.268
11034WAT     H133344   8.170   8.486   8.247
11034WAT     H233345   8.248   8.629   8.263
11035WAT      O33346   8.940   2.685   2.894
11035WAT     H133347   9.021   2.626   2.895
11035WAT     H233348   8.858   2.628   2.897
11036WAT      O33349   2.104   3.795   9.097
11036WAT     H133350   2.166   3.852   9.151
11036WAT     H233351   2.151   3.761   9.016
11037WAT      O33352   4.292   1.191   1.406
11037WAT     H133353   4.250   1.112   1.451
11037WAT     H233354   4.280   1.272   1.462
11038WAT      O33355   1.859   0.077   6.234
11038WAT     H133356   1.796   0.129   6.176
11038WAT     H233357   1.897   0.001   6.181
11039WAT      O33358   4.904   1.412   0.105
11039WAT     H133359   4.875   1.430   0.199
11039WAT     H233360   4.824   1.419   0.044
11040WAT      O33361   7.779   5.794   0.704
11040WAT     H133362   7.827   5.874   0.739
11040WAT     H233363   7.823   5.711   0.737
11041WAT      O33364   0.906   7.083   6.105
11041WAT     H133365   0.863   7.102   6.193
11041WAT     H233366   1.005   7.094   6.114
11042WAT      O33367   8.802   9.516   3.951
11042WAT     H133368   8.713   9.489   3.914
11042WAT     H233369   8.870   9.445   3.930
11043WAT      O33370   2.738   5.716   9.179
11043WAT     H133371   2.639   5.705   9.173
11043WAT     H233372   2.764   5.807   9.149
11044WAT      O33373   1.168   7.153   4.873
11044WAT     H133374   1.170   7.236   4.817
11044WAT     H233375   1.126   7.079   4.820
11045WAT      O33376   9.839   2.753   0.872
11045WAT     H133377   9.760   2.762   0.812
11045WAT     H233378   9.813   2.702   0.954
11046WAT      O33379   3.724   7.536   0.698
11046WAT     H133380   3.763   7.613   0.749
11046WAT     H233381   3.794   7.465   0.687
11047WAT      O33382   1.994   1.324   8.739
11047WAT     H133383   2.057   1.261   8.786
11047WAT     H233384   1.922   1.272   8.694
11048WAT      O33385   6.191   0.392   8.087
11048WAT     H133386   6.115   0.449   8.057
11048WAT     H233387   6.263   0.450   8.126
11049WAT      O33388   2.837   0.550   0.473
11049WAT     H133389   2.771   0.502   0.415
11049WAT     H233390   2.818   0.529   0.569
11050WAT      O33391   2.188   3.090   8.247
11050WAT     H133392   2.198   3.038   8.163
11050WAT     H233393   2.269   3.147   8.261
11051WAT      O33394   8.910   0.870   0.855
11051WAT     H133395   8.854   0.935   0.803
11051WAT     H233396   8.979   0.921   0.907
11052WAT      O33397   5.885   6.673   3.454
11052WAT     H133398   5.947   6.595   3.445
11052WAT     H233399   5.826   6.679   3.374
11053WAT      O33400   5.066   3.708   7.174
11053WAT     H133401   5.066   3.754   7.085
11053WAT     H233402   5.010   3.626   7.170
11054WAT      O33403   7.698   1.271   9.857
11054WAT     H133404   7.759   1.303   9.930
11054WAT     H233405   7.721   1.317   9.771
11055WAT      O33406   5.644   5.679   7.747
11055WAT     H133407   5.671   5.645   7.657
11055WAT     H233408   5.637   5.602   7.810
11056WAT      O33409   0.104   0.784   8.036
11056WAT     H133410   0.151   0.822   7.956
11056WAT     H233411   0.029   0.726   8.006
11057WAT      O33412   6.475   3.620   4.419
11057WAT     H133413   6.466   3.545   4.354
11057WAT     H233414   6.521   3.588   4.502
11058WAT      O33415   7.384   1.354   1.202
11058WAT     H133416   7.333   1.283   1.154
11058WAT     H233417   7.369   1.442   1.157
11059WAT      O33418   7.403   9.426   2.487
11059WAT     H133419   7.385   9.337   2.444
11059WAT     H233420   7.502   9.441   2.494
11060WAT      O33421   3.243   3.977   2.537
11060WAT     H133422   3.192   4.022   2.610
11060WAT     H233423   3.315   3.921   2.577
11061WAT      O33424   9.728   2.009   1.829
11061WAT     H133425   9.675   2.085   1.867
11061WAT     H233426   9.670   1.927   1.825
11062WAT      O33427   4.287   7.982   4.237
11062WAT     H133428   4.272   7.928   4.320
11062WAT     H233429   4.268   8.078   4.256
11063WAT      O33430   9.585   7.000   9.451
11063WAT     H133431   9.622   7.053   9.528
11063WAT     H233432   9.641   7.018   9.369
11064WAT      O33433   5.642   3.124   2.640
11064WAT     H133434   5.677   3.202   2.588
11064WAT     H233435   5.699   3.043   2.622
11065WAT      O33436   1.162   0.334   9.022
11065WAT     H133437   1.210   0.329   9.109
11065WAT     H233438   1.084   0.271   9.023
11066WAT      O33439   8.035   2.690   7.446
11066WAT     H133440   8.011   2.772   7.395
11066WAT     H233441   7.953   2.637   7.465
11067WAT      O33442   2.450   3.060   6.242
11067WAT     H133443   2.354   3.086   6.245
11067WAT     H233444   2.506   3.131   6.284
11068WAT      O33445   0.428   2.143   0.816
11068WAT     H133446   0.480   2.161   0.900
11068WAT     H233447   0.344   2.197   0.817
11069WAT      O33448   6.616   5.584   4.097
11069WAT     H133449   6.568   5.670   4.115
11069WAT     H233450   6.665   5.591   4.010
11070WAT      O33451   5.022   6.479   8.061
11070WAT     H133452   4.937   6.434   8.088
11070WAT     H233453   5.064   6.521   8.141
11071WAT      O33454   0.454   8.656   1.290
11071WAT     H133455   0.370   8.671   1.343
11071WAT     H233456   0.532   8.695   1.339
11072WAT      O33457   3.164   8.001   1.637
11072WAT     H133458   3.148   7.938   1.561
11072WAT     H233459   3.263   8.010   1.652
11073WAT      O33460   7.938   2.486   1.257
11073WAT     H133461   7.874   2.562   1.242
11073WAT     H233462   7.927   2.419   1.184
11074WAT      O33463   8.985   9.344   3.761
11074WAT     H133464   8.893   9.364   3.730
11074WAT     H233465   9.051   9.390   3.702
11075WAT      O33466   9.678   1.924   0.882
11075WAT     H133467   9.585   1.891   0.893
11075WAT     H233468   9.709   1.907   0.788
11076WAT      O33469   4.567   0.553   8.260
11076WAT     H133470   4.474   0.589   8.270
11076WAT     H233471   4.627   0.624   8.224
11077WAT      O33472   8.656   0.523   2.100
11077WAT     H133473   8.658   0.563   2.192
11077WAT     H233474   8.613   0.433   2.103
11078WAT      O33475   5.375   9.225   3.834
11078WAT     H133476   5.356   9.182   3.745
11078WAT     H233477   5.386   9.154   3.903
11079WAT      O33478   1.413   2.662   7.623
11079WAT     H133479   1.344   2.608   7.671
11079WAT     H233480   1.380   2.756   7.613
11080WAT      O33481   9.350   6.063   7.338
11080WAT     H133482   9.387   6.155   7.329
11080WAT     H233483   9.263   6.066   7.388
11081WAT      O33484   6.612   3.770   2.894
11081WAT     H133485   6.706   3.741   2.876
11081WAT     H233486   6.594   3.855   2.845
11082WAT      O33487   1.151   0.669   4.680
11082WAT     H133488   1.103   0.604   4.738
11082WAT     H233489   1.236   0.698   4.724
11083WAT      O33490   5.132   5.388   7.729
11083WAT     H133491   5.096   5.380   7.821
11083WAT     H233492   5.151   5.484   7.709
11084WAT      O33493   8.042   8.688   0.347
11084WAT     H133494   8.077   8.705   0.440
11084WAT     H233495   8.051   8.591   0.326
11085WAT      O33496   0.319   7.488   3.815
11085WAT     H133497   0.246   7.419   3.815
11085WAT     H233498   0.322   7.533   3.726
11086WAT      O33499   2.514   6.645   7.077
11086WAT     H133500   2.444   6.653   7.147
11086WAT     H233501   2.534   6.548   7.061
11087WAT      O33502   9.834   8.871   3.311
11087WAT     H133503   9.856   8.918   3.397
11087WAT     H233504   9.894   8.904   3.239
11088WAT      O33505   3.174   8.325   2.304
11088WAT     H133506   3.206   8.369   2.221
11088WAT     H233507   3.140   8.394   2.368
11089WAT      O33508   8.582   9.356   2.371
11089WAT     H133509   8.623   9.285   2.313
11089WAT     H233510   8.512   9.406   2.320
11090WAT      O33511   1.554   8.584   2.341
11090WAT     H133512   1.558   8.486   2.322
11090WAT     H233513   1.558   8.599   2.440
11091WAT      O33514   9.287   0.839   1.068
11091WAT     H133515   9.361   0.904   1.051
11091WAT     H233516   9.300   0.757   1.013
11092WAT      O33517   0.188   4.718   3.898
11092WAT     H133518   0.094   4.740   3.874
11092WAT     H233519   0.208   4.624   3.869
11093WAT      O33520   2.066   5.460   1.754
11093WAT     H133521   1.989   5.490   1.698
11093WAT     H233522   2.129   5.406   1.698
11094WAT      O33523   6.021   5.750   8.408
11094WAT     H133524   6.020   5.682   8.335
11094WAT     H233525   5.956   5.823   8.388
11095WAT      O33526   5.118   2.334   8.362
11095WAT     H133527   5.145   2.372   8.450
11095WAT     H233528   5.185   2.358   8.292
11096WAT      O33529   7.944   8.624   7.801
11096WAT     H133530   8.029   8.592   7.842
11096WAT     H233531   7.877   8.644   7.872
11097WAT      O33532   2.596   8.797   3.492
11097WAT     H133533   2.542   8.843   3.421
11097WAT     H233534   2.552   8.811   3.581
11098WAT      O33535   8.634   5.192   6.538
11098WAT     H133536   8.700   5.223   6.608
11098WAT     H233537   8.666   5.106   6.498
11099WAT      O33538   5.542   0.184   0.578
11099WAT     H133539   5.558   0.163   0.675
11099WAT     H233540   5.541   0.099   0.526
11100WAT      O33541   4.085   3.301   0.530
11100WAT     H133542   4.041   3.355   0.459
11100WAT     H233543   4.136   3.226   0.489
11101WAT      O33544   2.188   8.380   9.421
11101WAT     H133545   2.195   8.474   9.390
11101WAT     H233546   2.250   8.322   9.369
11102WAT      O33547   9.757   0.998   6.662
11102WAT     H133548   9.706   1.016   6.577
11102WAT     H233549   9.849   1.035   6.653
11103WAT      O33550   6.204   4.177   2.454
11103WAT     H133551   6.174   4.150   2.362
11103WAT     H233552   6.164   4.265   2.478
11104WAT      O33553   0.317   4.766   5.796
11104WAT     H133554   0.373   4.833   5.844
11104WAT     H233555   0.226   4.762   5.837
11105WAT      O33556   8.392   7.794   8.376
11105WAT     H133557   8.301   7.816   8.340
11105WAT     H233558   8.382   7.761   8.470
11106WAT      O33559   8.908   3.224   2.644
11106WAT     H133560   8.946   3.184   2.727
11106WAT     H233561   8.823   3.273   2.666
11107WAT      O33562   3.379   2.607   9.681
11107WAT     H133563   3.391   2.659   9.596
11107WAT     H233564   3.285   2.573   9.686
11108WAT      O33565   3.936   0.470   2.616
11108WAT     H133566   3.960   0.547   2.675
11108WAT     H233567   3.991   0.473   2.533
11109WAT      O33568   4.214   3.907   9.188
11109WAT     H133569   4.254   3.873   9.102
11109WAT     H233570   4.146   3.842   9.221
11110WAT      O33571   6.094   0.222   0.674
11110WAT     H133572   6.031   0.144   0.679
11110WAT     H233573   6.041   0.307   0.682
11111WAT      O33574   8.274   7.192   7.306
11111WAT     H133575   8.229   7.206   7.217
11111WAT     H233576   8.345   7.123   7.296
11112WAT      O33577   3.604   7.631   9.259
11112WAT     H133578   3.565   7.689   9.331
11112WAT     H233579   3.600   7.536   9.287
11113WAT      O33580   4.259   9.784   2.579
11113WAT     H133581   4.242   9.751   2.486
11113WAT     H233582   4.172   9.808   2.622
11114WAT      O33583   3.823   0.529   3.626
11114WAT     H133584   3.850   0.565   3.715
11114WAT     H233585   3.812   0.430   3.632
11115WAT      O33586   8.317   9.600   2.971
11115WAT     H133587   8.247   9.669   2.989
11115WAT     H233588   8.366   9.579   3.055
11116WAT      O33589   5.768   0.143   1.540
11116WAT     H133590   5.808   0.215   1.484
11116WAT     H233591   5.837   0.073   1.558
11117WAT      O33592   8.457   4.582   3.602
11117WAT     H133593   8.432   4.675   3.630
11117WAT     H233594   8.379   4.521   3.616
11118WAT      O33595   1.052   0.067   5.635
11118WAT     H133596   1.019   0.121   5.558
11118WAT     H233597   1.014  -0.025   5.631
11119WAT      O33598   3.822   7.983   4.811
11119WAT     H133599   3.773   8.051   4.866
11119WAT     H233600   3.765   7.902   4.800
11120WAT      O33601   2.242   9.575   9.162
11120WAT     H133602   2.152   9.545   9.129
11120WAT     H233603   2.305   9.498   9.161
11121WAT      O33604   5.991   6.738   4.426
11121WAT     H133605   5.902   6.714   4.465
11121WAT     H233606   6.062   6.730   4.496
11122WAT      O33607   0.897   3.491   1.006
11122WAT     H133608   0.842   3.518   0.927
11122WAT     H233609   0.949   3.569   1.039
11123WAT      O33610   1.272   9.537   1.866
11123WAT     H133611   1.202   9.484   1.914
11123WAT     H233612   1.228   9.593   1.795
11124WAT      O33613   4.505   7.254   4.379
11124WAT     H133614   4.426   7.245   4.440
11124WAT     H233615   4.589   7.250   4.431
11125WAT      O33616   4.484   8.442   6.300
11125WAT     H133617   4.547   8.515   6.326
11125WAT     H233618   4.391   8.467   6.330
11126WAT      O33619   4.075   0.413   5.510
11126WAT     H133620   4.069   0.479   5.435
11126WAT     H233621   3.997   0.424   5.572
11127WAT      O33622   6.729   8.766   9.386
11127WAT     H133623   6.650   8.763   9.448
11127WAT     H233624   6.696   8.766   9.291
11128WAT      O33625   6.827   3.061   1.170
11128WAT     H133626   6.733   3.092   1.164
11128WAT     H233627   6.851   3.011   1.087
11129WAT      O33628   2.262   7.569   0.680
11129WAT     H133629   2.301   7.489   0.726
11129WAT     H233630   2.164   7.554   0.664
11130WAT      O33631   0.901   1.993   3.067
11130WAT     H133632   0.987   1.951   3.039
11130WAT     H233633   0.837   1.922   3.097
11131WAT      O33634   2.117   5.526   3.964
11131WAT     H133635   2.197   5.499   3.911
11131WAT     H233636   2.047   5.455   3.959
11132WAT      O33637   5.413   1.115   1.969
11132WAT     H133638   5.510   1.131   1.991
11132WAT     H233639   5.359   1.194   1.998
11133WAT      O33640   2.209   8.102   0.376
11133WAT     H133641   2.230   8.096   0.279
11133WAT     H233642   2.257   8.181   0.416
11134WAT      O33643   0.396   5.075   7.519
11134WAT     H133644   0.304   5.065   7.557
11134WAT     H233645   0.434   4.985   7.499
11135WAT      O33646   6.322   9.575   4.921
11135WAT     H133647   6.417   9.568   4.951
11135WAT     H233648   6.273   9.637   4.981
11136WAT      O33649   0.781   5.696   0.696
11136WAT     H133650   0.789   5.690   0.596
11136WAT     H233651   0.696   5.650   0.724
11137WAT      O33652   0.045   8.193   0.337
11137WAT     H133653  -0.017   8.146   0.400
11137WAT     H233654   0.030   8.157   0.244
11138WAT      O33655   5.877   7.132   4.733
11138WAT     H133656   5.903   7.218   4.776
11138WAT     H233657   5.777   7.125   4.729
11139WAT      O33658   4.339   4.772   0.567
11139WAT     H133659   4.415   4.815   0.616
11139WAT     H233660   4.372   4.691   0.518
11140WAT      O33661   7.657   6.074   6.787
11140WAT     H133662   7.659   6.107   6.881
11140WAT     H233663   7.696   5.982   6.782
11141WAT      O33664   1.052   6.910   0.716
11141WAT     H133665   1.145   6.935   0.742
11141WAT     H233666   1.017   6.840   0.779
11142WAT      O33667   0.518   2.311   7.493
11142WAT     H133668   0.494   2.264   7.578
11142WAT     H233669   0.442   2.370   7.465
11143WAT      O33670   3.968   0.522   8.401
11143WAT     H133671   3.996   0.546   8.309
11143WAT     H233672   4.000   0.592   8.465
11144WAT      O33673   0.294   9.226   2.868
11144WAT     H133674   0.206   9.267   2.893
11144WAT     H233675   0.353   9.295   2.827
11145WAT      O33676   1.302   8.398   3.974
11145WAT     H133677   1.339   8.335   4.043
11145WAT     H233678   1.255   8.346   3.903
11146WAT      O33679   4.111   8.149   1.795
11146WAT     H133680   4.110   8.246   1.773
11146WAT     H233681   4.202   8.111   1.776
11147WAT      O33682   9.195   6.653   2.388
11147WAT     H133683   9.156   6.620   2.474
11147WAT     H233684   9.145   6.614   2.311
11148WAT      O33685   6.894   9.652   4.531
11148WAT     H133686   6.812   9.605   4.562
11148WAT     H233687   6.895   9.655   4.431
11149WAT      O33688   5.054   5.114   7.685
11149WAT     H133689   5.076   5.212   7.685
11149WAT     H233690   4.974   5.098   7.743
11150WAT      O33691   2.461   6.981   7.033
11150WAT     H133692   2.534   7.014   7.094
11150WAT     H233693   2.444   7.050   6.963
11151WAT      O33694   5.595   3.354   5.110
11151WAT     H133695   5.537   3.274   5.126
11151WAT     H233696   5.541   3.437   5.125
11152WAT      O33697   4.729   3.489   0.511
11152WAT     H133698   4.813   3.449   0.475
11152WAT     H233699   4.722   3.584   0.480
11153WAT      O33700   3.071   2.426   8.950
11153WAT     H133701   3.131   2.501   8.924
11153WAT     H233702   3.067   2.419   9.049
11154WAT      O33703   2.717   1.451   0.964
11154WAT     H133704   2.618   1.455   0.951
11154WAT     H233705   2.738   1.473   1.059
11155WAT      O33706   7.847   4.449   0.935
11155WAT     H133707   7.880   4.356   0.917
11155WAT     H233708   7.777   4.473   0.867
11156WAT      O33709   3.239   8.075   5.541
11156WAT     H133710   3.231   7.986   5.586
11156WAT     H233711   3.173   8.138   5.582
11157WAT      O33712   4.166   0.076   2.889
11157WAT     H133713   4.153   0.165   2.931
11157WAT     H233714   4.077   0.030   2.880
11158WAT      O33715   3.269   7.216   5.941
11158WAT     H133716   3.368   7.234   5.939
11158WAT     H233717   3.222   7.297   5.977
11159WAT      O33718   4.140   5.624   7.188
11159WAT     H133719   4.193   5.539   7.187
11159WAT     H233720   4.172   5.682   7.263
11160WAT      O33721   4.496   6.726   4.281
11160WAT     H133722   4.568   6.676   4.232
11160WAT     H233723   4.508   6.824   4.265
11161WAT      O33724   7.535   2.688   9.328
11161WAT     H133725   7.516   2.590   9.321
11161WAT     H233726   7.555   2.712   9.423
11162WAT      O33727   7.043   5.757   0.002
11162WAT     H133728   7.055   5.775   0.100
11162WAT     H233729   7.098   5.821  -0.051
11163WAT      O33730   6.935   4.456   7.932
11163WAT     H133731   6.938   4.514   8.014
11163WAT     H233732   6.909   4.512   7.853
11164WAT      O33733   2.878   3.380   6.913
11164WAT     H133734   2.801   3.398   6.974
11164WAT     H233735   2.957   3.350   6.967
11165WAT      O33736   2.683   9.792   1.436
11165WAT     H133737   2.594   9.829   1.460
11165WAT     H233738   2.723   9.747   1.515
11166WAT      O33739   8.629   2.513   5.851
11166WAT     H133740   8.575   2.582   5.900
11166WAT     H233741   8.583   2.490   5.765
11167WAT      O33742   3.717   8.486   2.193
11167WAT     H133743   3.643   8.419   2.197
11167WAT     H233744   3.686   8.565   2.140
11168WAT      O33745   0.808   3.378   6.519
11168WAT     H133746   0.907   3.365   6.519
11168WAT     H233747   0.763   3.290   6.534
11169WAT      O33748   5.201   7.334   5.201
11169WAT     H133749   5.275   7.326   5.267
11169WAT     H233750   5.144   7.252   5.204
11170WAT      O33751   0.801   2.288   7.638
11170WAT     H133752   0.720   2.315   7.587
11170WAT     H233753   0.856   2.226   7.583
11171WAT      O33754   0.945   1.952   8.562
11171WAT     H133755   0.871   1.999   8.610
11171WAT     H233756   0.969   1.869   8.611
11172WAT      O33757   8.671   7.068   6.869
11172WAT     H133758   8.721   6.991   6.909
11172WAT     H233759   8.651   7.136   6.941
11173WAT      O33760   4.707   7.387   7.757
11173WAT     H133761   4.765   7.394   7.676
11173WAT     H233762   4.714   7.471   7.810
11174WAT      O33763   8.816   1.512   9.307
11174WAT     H133764   8.907   1.474   9.289
11174WAT     H233765   8.824   1.593   9.365
11175WAT      O33766   0.757   3.720   6.801
11175WAT     H133767   0.729   3.624   6.793
11175WAT     H233768   0.819   3.744   6.726
11176WAT      O33769   7.638   8.774   4.655
11176WAT     H133770   7.611   8.679   4.638
11176WAT     H233771   7.640   8.790   4.754
11177WAT      O33772   3.911   3.182   3.097
11177WAT     H133773   3.852   3.224   3.166
11177WAT     H233774   3.880   3.208   3.006
11178WAT      O33775   4.540   3.526   2.695
11178WAT     H133776   4.548   3.526   2.596
11178WAT     H233777   4.443   3.523   2.721
11179WAT      O33778   8.346   3.615   1.804
11179WAT     H133779   8.409   3.645   1.732
11179WAT     H233780   8.352   3.678   1.882
11180WAT      O33781   8.356   4.022   7.032
11180WAT     H133782   8.280   4.003   6.969
11180WAT     H233783   8.325   4.009   7.126
11181WAT      O33784   6.430   4.091   1.125
11181WAT     H133785   6.460   4.028   1.198
11181WAT     H233786   6.429   4.042   1.038
11182WAT      O33787   5.597   2.288   1.023
11182WAT     H133788   5.590   2.385   1.002
11182WAT     H233789   5.562   2.270   1.115
11183WAT      O33790   5.484   6.276   5.450
11183WAT     H133791   5.555   6.342   5.476
11183WAT     H233792   5.469   6.280   5.351
11184WAT      O33793   3.843   1.646   8.377
11184WAT     H133794   3.854   1.551   8.347
11184WAT     H233795   3.800   1.648   8.467
11185WAT      O33796   8.081   2.270   5.493
11185WAT     H133797   8.181   2.266   5.493
11185WAT     H233798   8.048   2.276   5.587
11186WAT      O33799   7.247   0.135   1.556
11186WAT     H133800   7.226   0.082   1.474
11186WAT     H233801   7.226   0.231   1.541
11187WAT      O33802   0.167   0.266   4.290
11187WAT     H133803   0.220   0.194   4.245
11187WAT     H233804   0.225   0.316   4.354
11188WAT      O33805   5.253   5.066   2.905
11188WAT     H133806   5.310   5.014   2.969
11188WAT     H233807   5.311   5.114   2.840
11189WAT      O33808   3.433   0.920   3.220
11189WAT     H133809   3.365   0.957   3.285
11189WAT     H233810   3.442   0.983   3.143
11190WAT      O33811   7.049   3.533   2.997
11190WAT     H133812   7.112   3.587   3.053
11190WAT     H233813   7.043   3.440   3.035
11191WAT      O33814   2.391   3.780   6.822
11191WAT     H133815   2.428   3.735   6.741
11191WAT     H233816   2.460   3.841   6.860
11192WAT      O33817   3.117   2.418   2.703
11192WAT     H133818   3.121   2.337   2.761
11192WAT     H233819   3.022   2.440   2.682
11193WAT      O33820   1.112   9.238   4.447
11193WAT     H133821   1.012   9.247   4.449
11193WAT     H233822   1.154   9.329   4.454
11194WAT      O33823   3.341   6.410   3.681
11194WAT     H133824   3.400   6.340   3.721
11194WAT     H233825   3.397   6.487   3.650
11195WAT      O33826   6.422   4.276   8.487
11195WAT     H133827   6.511   4.283   8.441
11195WAT     H233828   6.422   4.195   8.546
11196WAT      O33829   8.421   5.281   2.319
11196WAT     H133830   8.449   5.372   2.287
11196WAT     H233831   8.433   5.215   2.244
11197WAT      O33832   3.725   5.211   1.688
11197WAT     H133833   3.732   5.115   1.660
11197WAT     H233834   3.802   5.234   1.748
11198WAT      O33835   0.672   1.814   4.375
11198WAT     H133836   0.690   1.791   4.471
11198WAT     H233837   0.759   1.820   4.326
11199WAT      O33838   1.000   3.622   7.637
11199WAT     H133839   1.085   3.620   7.691
11199WAT     H233840   0.921   3.622   7.698
11200WAT      O33841   9.729   6.962   3.800
11200WAT     H133842   9.646   6.998   3.758
11200WAT     H233843   9.802   6.958   3.732
11201WAT      O33844   9.064   2.142   1.079
11201WAT     H133845   9.044   2.143   1.177
11201WAT     H233846   8.978   2.135   1.028
11202WAT      O33847   6.020   3.597   1.375
11202WAT     H133848   6.030   3.693   1.350
11202WAT     H233849   6.090   3.543   1.328
11203WAT      O33850   2.444   7.119   2.749
11203WAT     H133851   2.471   7.213   2.731
11203WAT     H233852   2.348   7.117   2.779
11204WAT      O33853   3.947   2.923   2.769
11204WAT     H133854   3.989   2.993   2.712
11204WAT     H233855   3.869   2.962   2.818
11205WAT      O33856   5.241   1.148   9.571
11205WAT     H133857   5.143   1.144   9.551
11205WAT     H233858   5.258   1.221   9.636
11206WAT      O33859   5.346   5.186   9.396
11206WAT     H133860   5.338   5.087   9.409
11206WAT     H233861   5.302   5.233   9.472
11207WAT      O33862   7.243   3.786   6.931
11207WAT     H133863   7.161   3.778   6.986
11207WAT     H233864   7.278   3.694   6.909
11208WAT      O33865   6.782   1.060   6.396
11208WAT     H133866   6.794   1.017   6.486
11208WAT     H233867   6.686   1.080   6.381
11209WAT      O33868   5.220   1.214   7.949
11209WAT     H133869   5.191   1.138   7.890
11209WAT     H233870   5.146   1.280   7.955
11210WAT      O33871   3.695   5.097   3.058
11210WAT     H133872   3.719   5.108   2.962
11210WAT     H233873   3.731   5.174   3.111
11211WAT      O33874   0.448   5.814   1.417
11211WAT     H133875   0.445   5.787   1.514
11211WAT     H233876   0.371   5.772   1.369
11212WAT      O33877   0.120   1.695   4.823
11212WAT     H133878   0.191   1.631   4.792
11212WAT     H233879   0.104   1.682   4.920
11213WAT      O33880   2.381   9.082   2.709
11213WAT     H133881   2.324   9.011   2.751
11213WAT     H233882   2.446   9.116   2.777
11214WAT      O33883   1.292   6.855   6.527
11214WAT     H133884   1.269   6.873   6.432
11214WAT     H233885   1.237   6.779   6.561
11215WAT      O33886   9.624   4.806   6.657
11215WAT     H133887   9.636   4.891   6.708
11215WAT     H233888   9.680   4.808   6.574
11216WAT      O33889   3.214   8.640   9.221
11216WAT     H133890   3.186   8.555   9.176
11216WAT     H233891   3.142   8.709   9.210
11217WAT      O33892   8.130   7.365   6.550
11217WAT     H133893   8.205   7.312   6.589
11217WAT     H233894   8.140   7.461   6.576
11218WAT      O33895   1.242   6.683   7.638
11218WAT     H133896   1.323   6.657   7.690
11218WAT     H233897   1.270   6.719   7.548
11219WAT      O33898   0.272   5.901   5.772
11219WAT     H133899   0.300   5.806   5.781
11219WAT     H233900   0.350   5.961   5.788
11220WAT      O33901   7.266   9.195   7.672
11220WAT     H133902   7.289   9.132   7.746
11220WAT     H233903   7.327   9.178   7.594
11221WAT      O33904   5.715   0.686   1.933
11221WAT     H133905   5.773   0.643   2.002
11221WAT     H233906   5.676   0.771   1.971
11222WAT      O33907   6.792   4.804   0.176
11222WAT     H133908   6.694   4.822   0.170
11222WAT     H233909   6.829   4.849   0.258
11223WAT      O33910   8.204   5.502   1.090
11223WAT     H133911   8.221   5.559   1.171
11223WAT     H233912   8.151   5.421   1.117
11224WAT      O33913   2.633   1.070   4.234
11224WAT     H133914   2.673   1.159   4.253
11224WAT     H233915   2.571   1.076   4.156
11225WAT      O33916   1.585   5.715   3.966
11225WAT     H133917   1.640   5.766   3.899
11225WAT     H233918   1.506   5.675   3.920
11226WAT      O33919   2.574   4.779   2.037
11226WAT     H133920   2.669   4.780   2.006
11226WAT     H233921   2.523   4.850   1.989
11227WAT      O33922   9.577   1.135   0.445
11227WAT     H133923   9.483   1.163   0.427
11227WAT     H233924   9.640   1.194   0.395
11228WAT      O33925   9.879   9.208   6.592
11228WAT     H133926   9.838   9.130   6.545
11228WAT     H233927   9.962   9.179   6.639
11229WAT      O33928   5.052   4.109   4.184
11229WAT     H133929   5.091   4.128   4.274
11229WAT     H233930   5.125   4.109   4.116
11230WAT      O33931   5.611   8.796   7.930
11230WAT     H133932   5.568   8.844   7.853
11230WAT     H233933   5.564   8.708   7.944
11231WAT      O33934   4.021   5.126   1.532
11231WAT     H133935   4.031   5.027   1.543
11231WAT     H233936   3.981   5.146   1.443
11232WAT      O33937   5.748   4.095   1.754
11232WAT     H133938   5.734   4.140   1.842
11232WAT     H233939   5.781   4.002   1.770
11233WAT      O33940   2.920   0.885   8.265
11233WAT     H133941   2.901   0.881   8.364
11233WAT     H233942   2.900   0.796   8.224
11234WAT      O33943   8.448   1.285   7.280
11234WAT     H133944   8.450   1.198   7.329
11234WAT     H233945   8.471   1.359   7.343
11235WAT      O33946   4.524   6.909   1.792
11235WAT     H133947   4.508   6.857   1.876
11235WAT     H233948   4.463   6.875   1.720
11236WAT      O33949   8.944   4.813   1.455
11236WAT     H133950   8.894   4.871   1.391
11236WAT     H233951   8.986   4.869   1.526
11237WAT      O33952   8.436   2.991   7.093
11237WAT     H133953   8.362   2.924   7.084
11237WAT     H233954   8.410   3.076   7.046
11238WAT      O33955   2.479   6.541   8.174
11238WAT     H133956   2.575   6.518   8.189
11238WAT     H233957   2.421   6.473   8.218
11239WAT      O33958   3.925   0.715   5.311
11239WAT     H133959   4.012   0.666   5.316
11239WAT     H233960   3.859   0.673   5.374
11240WAT      O33961   4.379   7.610   8.705
11240WAT     H133962   4.372   7.524   8.653
11240WAT     H233963   4.446   7.670   8.661
11241WAT      O33964   1.267   8.535   8.869
11241WAT     H133965   1.237   8.629   8.887
11241WAT     H233966   1.264   8.482   8.954
11242WAT      O33967   5.309   8.324   1.458
11242WAT     H133968   5.399   8.368   1.452
11242WAT     H233969   5.243   8.378   1.404
11243WAT      O33970   3.669   0.818   8.244
11243WAT     H133971   3.682   0.805   8.343
11243WAT     H233972   3.725   0.894   8.213
11244WAT      O33973   1.413   6.434   8.293
11244WAT     H133974   1.396   6.346   8.250
11244WAT     H233975   1.463   6.421   8.379
11245WAT      O33976   0.979   5.073   0.058
11245WAT     H133977   0.942   5.146   0.115
11245WAT     H233978   1.008   4.996   0.115
11246WAT      O33979   0.615   6.592   8.953
11246WAT     H133980   0.641   6.677   8.998
11246WAT     H233981   0.688   6.524   8.965
11247WAT      O33982   9.367   3.821   1.335
11247WAT     H133983   9.389   3.918   1.344
11247WAT     H233984   9.298   3.796   1.403
11248WAT      O33985   6.096   4.456   8.969
11248WAT     H133986   6.164   4.383   8.972
11248WAT     H233987   6.074   4.476   8.874
11249WAT      O33988   8.937   2.833   2.148
11249WAT     H133989   8.923   2.920   2.101
11249WAT     H233990   8.851   2.802   2.188
11250WAT      O33991   6.749   9.113   4.371
11250WAT     H133992   6.772   9.168   4.290
11250WAT     H233993   6.824   9.119   4.436
11251WAT      O33994   1.735   4.165   4.605
11251WAT     H133995   1.642   4.127   4.606
11251WAT     H233996   1.733   4.257   4.565
11252WAT      O33997   4.575   2.313   8.995
11252WAT     H133998   4.499   2.328   8.932
11252WAT     H233999   4.571   2.382   9.068
11253WAT      O34000   1.060   2.864   2.059
11253WAT     H134001   0.974   2.905   2.026
11253WAT     H234002   1.044   2.820   2.147
11254WAT      O34003   2.149   5.610   0.451
11254WAT     H134004   2.172   5.517   0.422
11254WAT     H234005   2.120   5.663   0.371
11255WAT      O34006   2.126   4.703   8.255
11255WAT     H134007   2.044   4.680   8.307
11255WAT     H234008   2.189   4.755   8.312
11256WAT      O34009   9.781   2.462   9.505
11256WAT     H134010   9.761   2.495   9.413
11256WAT     H234011   9.696   2.442   9.553
11257WAT      O34012   5.667   2.883   7.067
11257WAT     H134013   5.603   2.955   7.095
11257WAT     H234014   5.623   2.822   7.001
11258WAT      O34015   8.238   2.752   4.375
11258WAT     H134016   8.155   2.793   4.414
11258WAT     H234017   8.233   2.756   4.275
11259WAT      O34018   6.911   4.731   7.009
11259WAT     H134019   6.900   4.719   6.910
11259WAT     H234020   6.866   4.815   7.038
11260WAT      O34021   8.142   3.529   0.725
11260WAT     H134022   8.181   3.509   0.635
11260WAT     H234023   8.049   3.565   0.714
11261WAT      O34024   2.842   7.617   4.813
11261WAT     H134025   2.812   7.685   4.746
11261WAT     H234026   2.933   7.642   4.847
11262WAT      O34027   6.361   8.347   8.401
11262WAT     H134028   6.435   8.296   8.444
11262WAT     H234029   6.296   8.284   8.359
11263WAT      O34030   7.037   1.442   2.044
11263WAT     H134031   6.958   1.449   1.984
11263WAT     H234032   7.024   1.365   2.108
11264WAT      O34033   0.867   5.301   4.563
11264WAT     H134034   0.875   5.372   4.493
11264WAT     H234035   0.859   5.343   4.653
11265WAT      O34036   2.486   7.204   7.310
11265WAT     H134037   2.396   7.213   7.267
11265WAT     H234038   2.495   7.273   7.381
11266WAT      O34039   5.985   2.681   0.446
11266WAT     H134040   6.025   2.764   0.486
11266WAT     H234041   5.957   2.701   0.352
11267WAT      O34042   4.716   5.443   3.604
11267WAT     H134043   4.694   5.452   3.507
11267WAT     H234044   4.742   5.348   3.624
11268WAT      O34045   0.556   6.874   4.455
11268WAT     H134046   0.507   6.959   4.476
11268WAT     H234047   0.492   6.807   4.416
11269WAT      O34048   3.348   7.452   5.153
11269WAT     H134049   3.254   7.472   5.182
11269WAT     H234050   3.412   7.493   5.218
11270WAT      O34051   2.968   7.296   4.748
11270WAT     H134052   2.870   7.311   4.755
11270WAT     H234053   3.006   7.354   4.675
11271WAT      O34054   2.917   1.316   6.988
11271WAT     H134055   3.013   1.303   6.963
11271WAT     H234056   2.911   1.359   7.078
11272WAT      O34057   4.450   0.274   0.226
11272WAT     H134058   4.411   0.361   0.197
11272WAT     H234059   4.518   0.290   0.298
11273WAT      O34060   9.321   5.756   3.659
11273WAT     H134061   9.410   5.791   3.631
11273WAT     H234062   9.275   5.825   3.716
11274WAT      O34063   8.423   9.553   3.211
11274WAT     H134064   8.469   9.466   3.225
11274WAT     H234065   8.341   9.557   3.268
11275WAT      O34066   4.780   2.436   7.141
11275WAT     H134067   4.779   2.533   7.116
11275WAT     H234068   4.688   2.408   7.169
11276WAT      O34069   5.823   6.369   4.808
11276WAT     H134070   5.800   6.308   4.732
11276WAT     H234071   5.893   6.434   4.779
11277WAT      O34072   9.036   0.325   4.351
11277WAT     H134073   9.044   0.342   4.449
11277WAT     H234074   9.057   0.409   4.300
11278WAT      O34075   8.364   0.836   2.186
11278WAT     H134076   8.433   0.881   2.242
11278WAT     H234077   8.407   0.801   2.102
11279WAT      O34078   8.157   1.064   3.510
11279WAT     H134079   8.203   1.152   3.514
11279WAT     H234080   8.216   0.993   3.550
11280WAT      O34081   0.503   9.438   0.724
11280WAT     H134082   0.599   9.417   0.706
11280WAT     H234083   0.463   9.365   0.779
11281WAT      O34084   1.718   5.764   2.644
11281WAT     H134085   1.677   5.740   2.732
11281WAT     H234086   1.699   5.692   2.577
11282WAT      O34087   6.792   3.803   8.458
11282WAT     H134088   6.711   3.861   8.465
11282WAT     H234089   6.768   3.716   8.415
11283WAT      O34090   6.271   2.348   3.443
11283WAT     H134091   6.187   2.401   3.429
11283WAT     H234092   6.325   2.349   3.359
11284WAT      O34093   8.242   7.855   7.451
11284WAT     H134094   8.180   7.821   7.522
11284WAT     H234095   8.326   7.888   7.493
11285WAT      O34096   8.085   5.076   5.822
11285WAT     H134097   8.041   5.076   5.911
11285WAT     H234098   8.017   5.060   5.750
11286WAT      O34099   4.844   1.008   3.702
11286WAT     H134100   4.909   1.084   3.705
11286WAT     H234101   4.887   0.929   3.659
11287WAT      O34102   5.730   3.511   2.162
11287WAT     H134103   5.706   3.605   2.139
11287WAT     H234104   5.762   3.463   2.080
11288WAT      O34105   0.699   9.371   4.254
11288WAT     H134106   0.742   9.355   4.166
11288WAT     H234107   0.618   9.429   4.242
11289WAT      O34108   6.700   8.401   8.480
11289WAT     H134109   6.704   8.485   8.426
11289WAT     H234110   6.782   8.345   8.462
11290WAT      O34111   7.940   8.221   6.558
11290WAT     H134112   7.881   8.175   6.491
11290WAT     H234113   7.932   8.174   6.646
11291WAT      O34114   3.274   4.451   6.593
11291WAT     H134115   3.254   4.528   6.532
11291WAT     H234116   3.320   4.484   6.675
11292WAT      O34117   6.479   0.197   0.153
11292WAT     H134118   6.454   0.255   0.076
11292WAT     H234119   6.414   0.212   0.228
11293WAT      O34120   2.102   1.301   4.873
11293WAT     H134121   2.049   1.322   4.791
11293WAT     H234122   2.200   1.314   4.853
11294WAT      O34123   2.690   6.900   4.151
11294WAT     H134124   2.630   6.927   4.076
11294WAT     H234125   2.751   6.976   4.174
11295WAT      O34126   3.636   6.450   1.486
11295WAT     H134127   3.719   6.469   1.433
11295WAT     H234128   3.648   6.364   1.535
11296WAT      O34129   2.324   6.682   8.631
11296WAT     H134130   2.288   6.590   8.614
11296WAT     H234131   2.401   6.700   8.569
11297WAT      O34132   8.677   7.981   2.497
11297WAT     H134133   8.735   7.901   2.510
11297WAT     H234134   8.725   8.063   2.528
11298WAT      O34135   2.454   3.005   2.074
11298WAT     H134136   2.429   2.948   2.153
11298WAT     H234137   2.372   3.048   2.037
11299WAT      O34138   2.765   9.688   7.283
11299WAT     H134139   2.760   9.787   7.268
11299WAT     H234140   2.853   9.654   7.249
11300WAT      O34141   6.204   7.006   5.514
11300WAT     H134142   6.180   7.032   5.607
11300WAT     H234143   6.269   6.930   5.515
11301WAT      O34144   2.352   2.658   3.021
11301WAT     H134145   2.282   2.706   3.073
11301WAT     H234146   2.386   2.717   2.948
11302WAT      O34147   1.214   3.659   6.892
11302WAT     H134148   1.116   3.661   6.915
11302WAT     H234149   1.261   3.597   6.955
11303WAT      O34150   7.756   5.816   4.735
11303WAT     H134151   7.808   5.899   4.716
11303WAT     H234152   7.689   5.834   4.807
11304WAT      O34153   7.761   3.418   2.483
11304WAT     H134154   7.802   3.335   2.521
11304WAT     H234155   7.708   3.395   2.402
11305WAT      O34156   4.217   5.702   9.545
11305WAT     H134157   4.268   5.768   9.490
11305WAT     H234158   4.272   5.619   9.557
11306WAT      O34159   5.617   3.455   8.794
11306WAT     H134160   5.570   3.428   8.878
11306WAT     H234161   5.616   3.379   8.729
11307WAT      O34162   0.899   4.602   4.271
11307WAT     H134163   0.961   4.591   4.194
11307WAT     H234164   0.930   4.545   4.348
11308WAT      O34165   6.550   6.034   5.693
11308WAT     H134166   6.643   6.037   5.728
11308WAT     H234167   6.510   6.126   5.693
11309WAT      O34168   0.118   4.992   4.583
11309WAT     H134169   0.210   4.999   4.621
11309WAT     H234170   0.123   4.950   4.492
11310WAT      O34171   8.292   9.498   7.049
11310WAT     H134172   8.377   9.550   7.059
11310WAT     H234173   8.313   9.410   7.006
11311WAT      O34174   7.799   1.535   2.018
11311WAT     H134175   7.758   1.497   1.935
11311WAT     H234176   7.898   1.529   2.012
11312WAT      O34177   7.342   7.602   5.876
11312WAT     H134178   7.416   7.613   5.809
11312WAT     H234179   7.327   7.505   5.893
11313WAT      O34180   8.244   4.040   7.714
11313WAT     H134181   8.329   4.082   7.741
11313WAT     H234182   8.177   4.048   7.787
11314WAT      O34183   4.220   4.986   4.660
11314WAT     H134184   4.287   5.007   4.731
11314WAT     H234185   4.160   5.064   4.647
11315WAT      O34186   8.519   8.347   9.772
11315WAT     H134187   8.492   8.301   9.687
11315WAT     H234188   8.503   8.445   9.764
11316WAT      O34189   2.368   2.511   5.500
11316WAT     H134190   2.426   2.586   5.532
11316WAT     H234191   2.311   2.478   5.576
11317WAT      O34192   1.854   9.218   6.489
11317WAT     H134193   1.928   9.192   6.551
11317WAT     H234194   1.881   9.201   6.395
11318WAT      O34195   2.840   9.594   2.108
11318WAT     H134196   2.862   9.509   2.061
11318WAT     H234197   2.792   9.573   2.193
11319WAT      O34198   4.709   5.824   8.964
11319WAT     H134199   4.664   5.881   8.895
11319WAT     H234200   4.752   5.883   9.033
11320WAT      O34201   5.761   3.510   4.980
11320WAT     H134202   5.743   3.469   4.890
11320WAT     H234203   5.713   3.458   5.051
11321WAT      O34204   4.831   2.215   1.197
11321WAT     H134205   4.779   2.275   1.259
11321WAT     H234206   4.850   2.263   1.112
11322WAT      O34207   5.049   1.218   9.236
11322WAT     H134208   5.128   1.170   9.198
11322WAT     H234209   4.990   1.152   9.282
11323WAT      O34210   6.335   4.490   0.860
11323WAT     H134211   6.261   4.514   0.797
11323WAT     H234212   6.417   4.467   0.807
11324WAT      O34213   6.634   1.502   2.056
11324WAT     H134214   6.537   1.525   2.065
11324WAT     H234215   6.654   1.420   2.110
11325WAT      O34216   2.596   8.978   1.153
11325WAT     H134217   2.565   9.063   1.109
11325WAT     H234218   2.600   8.991   1.252
11326WAT      O34219   2.439   7.936   2.664
11326WAT     H134220   2.517   7.973   2.614
11326WAT     H234221   2.443   7.836   2.661
11327WAT      O34222   9.671   4.335   9.427
11327WAT     H134223   9.751   4.288   9.464
11327WAT     H234224   9.650   4.414   9.484
11328WAT      O34225   0.075   9.182   1.341
11328WAT     H134226   0.151   9.125   1.373
11328WAT     H234227   0.039   9.145   1.255
11329WAT      O34228   6.155   7.222   3.115
11329WAT     H134229   6.102   7.209   3.031
11329WAT     H234230   6.113   7.171   3.190
11330WAT      O34231   5.346   9.807   6.899
11330WAT     H134232   5.313   9.813   6.804
11330WAT     H234233   5.271   9.827   6.961
11331WAT      O34234   5.761   6.896   6.121
11331WAT     H134235   5.837   6.870   6.180
11331WAT     H234236   5.796   6.947   6.042
11332WAT      O34237   9.237   4.601   0.758
11332WAT     H134238   9.305   4.658   0.711
11332WAT     H234239   9.154   4.654   0.774
11333WAT      O34240   1.807   5.376   7.092
11333WAT     H134241   1.778   5.366   6.997
11333WAT     H234242   1.771   5.462   7.129
11334WAT      O34243   0.507   4.352   5.350
11334WAT     H134244   0.448   4.433   5.361
11334WAT     H234245   0.600   4.382   5.331
11335WAT      O34246   4.819   3.349   9.280
11335WAT     H134247   4.869   3.272   9.241
11335WAT     H234248   4.739   3.369   9.224
11336WAT      O34249   2.246   4.375   3.870
11336WAT     H134250   2.261   4.454   3.930
11336WAT     H234251   2.153   4.341   3.883
11337WAT      O34252   1.208   4.717   1.893
11337WAT     H134253   1.279   4.679   1.834
11337WAT     H234254   1.121   4.719   1.843
11338WAT      O34255   6.041   1.379   8.733
11338WAT     H134256   6.072   1.467   8.697
11338WAT     H234257   6.093   1.357   8.816
11339WAT      O34258   2.305   6.482   0.193
11339WAT     H134259   2.369   6.527   0.131
11339WAT     H234260   2.316   6.519   0.286
11340WAT      O34261   7.766   1.373   7.848
11340WAT     H134262   7.754   1.449   7.785
11340WAT     H234263   7.677   1.346   7.886
11341WAT      O34264   7.014   0.234   7.707
11341WAT     H134265   7.056   0.189   7.628
11341WAT     H234266   7.071   0.219   7.788
11342WAT      O34267   2.056   6.101   1.996
11342WAT     H134268   2.076   6.168   2.067
11342WAT     H234269   2.101   6.014   2.018
11343WAT      O34270   9.568   6.237   5.454
11343WAT     H134271   9.656   6.282   5.471
11343WAT     H234272   9.561   6.215   5.356
11344WAT      O34273   4.781   6.916   6.211
11344WAT     H134274   4.774   6.875   6.120
11344WAT     H234275   4.826   7.005   6.204
11345WAT      O34276   5.619   6.127   8.825
11345WAT     H134277   5.679   6.056   8.861
11345WAT     H234278   5.635   6.138   8.727
11346WAT      O34279   4.303   3.540   7.777
11346WAT     H134280   4.301   3.528   7.876
11346WAT     H234281   4.210   3.548   7.742
11347WAT      O34282   5.533   6.064   8.251
11347WAT     H134283   5.568   6.154   8.276
11347WAT     H234284   5.441   6.073   8.212
11348WAT      O34285   3.652   9.162   0.270
11348WAT     H134286   3.647   9.073   0.315
11348WAT     H234287   3.747   9.193   0.268
11349WAT      O34288   5.797   8.671   6.430
11349WAT     H134289   5.881   8.617   6.437
11349WAT     H234290   5.728   8.619   6.378
11350WAT      O34291   9.178   8.327   9.845
11350WAT     H134292   9.201   8.245   9.793
11350WAT     H234293   9.257   8.389   9.847
11351WAT      O34294   6.604   8.756   7.846
11351WAT     H134295   6.640   8.831   7.790
11351WAT     H234296   6.505   8.757   7.844
11352WAT      O34297   3.115   1.593   7.032
11352WAT     H134298   3.103   1.533   6.953
11352WAT     H234299   3.176   1.549   7.098
11353WAT      O34300   8.938   0.765   5.925
11353WAT     H134301   8.877   0.752   6.004
11353WAT     H234302   8.887   0.805   5.849
11354WAT      O34303   5.105   7.058   2.579
11354WAT     H134304   5.070   7.032   2.490
11354WAT     H234305   5.145   7.149   2.574
11355WAT      O34306   5.335   6.503   5.218
11355WAT     H134307   5.236   6.510   5.233
11355WAT     H234308   5.352   6.436   5.145
11356WAT      O34309   4.445   0.487   4.388
11356WAT     H134310   4.435   0.555   4.315
11356WAT     H234311   4.455   0.534   4.475
11357WAT      O34312   0.569   8.259   1.685
11357WAT     H134313   0.655   8.225   1.647
11357WAT     H234314   0.521   8.185   1.733
11358WAT      O34315   8.469   1.145   2.191
11358WAT     H134316   8.444   1.230   2.146
11358WAT     H234317   8.537   1.163   2.262
11359WAT      O34318   5.930   6.864   4.774
11359WAT     H134319   5.924   6.963   4.757
11359WAT     H234320   5.840   6.823   4.766
11360WAT      O34321   7.145   1.979   5.864
11360WAT     H134322   7.086   1.914   5.816
11360WAT     H234323   7.214   2.015   5.801
11361WAT      O34324   1.073   5.612   3.728
11361WAT     H134325   1.095   5.536   3.789
11361WAT     H234326   0.989   5.591   3.678
11362WAT      O34327   3.641   7.869   3.348
11362WAT     H134328   3.632   7.800   3.419
11362WAT     H234329   3.611   7.957   3.382
11363WAT      O34330   1.862   7.437   9.292
11363WAT     H134331   1.841   7.441   9.195
11363WAT     H234332   1.789   7.483   9.343
11364WAT      O34333   1.984   8.836   6.446
11364WAT     H134334   2.021   8.917   6.491
11364WAT     H234335   1.937   8.862   6.362
11365WAT      O34336   1.686   5.616   7.152
11365WAT     H134337   1.686   5.714   7.133
11365WAT     H234338   1.688   5.602   7.251
11366WAT      O34339   7.675   5.115   3.154
11366WAT     H134340   7.582   5.109   3.189
11366WAT     H234341   7.736   5.060   3.212
11367WAT      O34342   3.097   2.055   7.369
11367WAT     H134343   3.187   2.028   7.335
11367WAT     H234344   3.038   1.974   7.375
11368WAT      O34345   3.582   4.134   3.291
11368WAT     H134346   3.600   4.227   3.258
11368WAT     H234347   3.510   4.136   3.360
11369WAT      O34348   1.315   8.502   3.639
11369WAT     H134349   1.275   8.428   3.585
11369WAT     H234350   1.243   8.554   3.684
11370WAT      O34351   2.212   2.634   9.802
11370WAT     H134352   2.129   2.667   9.757
11370WAT     H234353   2.293   2.672   9.757
11371WAT      O34354   1.805   2.065   8.853
11371WAT     H134355   1.845   2.049   8.763
11371WAT     H234356   1.835   1.994   8.917
11372WAT      O34357   8.542   6.812   9.568
11372WAT     H134358   8.505   6.904   9.555
11372WAT     H234359   8.495   6.768   9.645
11373WAT      O34360   5.246   4.695   5.741
11373WAT     H134361   5.285   4.686   5.649
11373WAT     H234362   5.301   4.644   5.806
11374WAT      O34363   1.605   2.028   7.415
11374WAT     H134364   1.548   2.017   7.334
11374WAT     H234365   1.549   2.064   7.490
11375WAT      O34366   5.979   3.257   1.832
11375WAT     H134367   6.071   3.229   1.860
11375WAT     H234368   5.942   3.189   1.769
11376WAT      O34369   8.782   5.397   3.402
11376WAT     H134370   8.852   5.465   3.422
11376WAT     H234371   8.694   5.428   3.438
11377WAT      O34372   3.282   0.613   9.805
11377WAT     H134373   3.276   0.709   9.832
11377WAT     H234374   3.307   0.557   9.884
11378WAT      O34375   9.212   5.954   3.794
11378WAT     H134376   9.119   5.983   3.819
11378WAT     H234377   9.273   5.969   3.872
11379WAT      O34378   4.160   5.724   5.098
11379WAT     H134379   4.239   5.755   5.045
11379WAT     H234380   4.076   5.761   5.059
11380WAT      O34381   9.450   4.987   6.953
11380WAT     H134382   9.407   5.048   7.019
11380WAT     H234383   9.445   5.029   6.862
11381WAT      O34384   6.928   6.763   5.459
11381WAT     H134385   6.967   6.684   5.412
11381WAT     H234386   6.959   6.847   5.415
11382WAT      O34387   2.182   5.864   2.120
11382WAT     H134388   2.163   5.890   2.215
11382WAT     H234389   2.132   5.780   2.098
11383WAT      O34390   9.292   3.227   2.519
11383WAT     H134391   9.249   3.139   2.538
11383WAT     H234392   9.228   3.300   2.543
11384WAT      O34393   7.269   4.135   9.302
11384WAT     H134394   7.357   4.095   9.328
11384WAT     H234395   7.272   4.159   9.205
11385WAT      O34396   0.410   6.000   6.830
11385WAT     H134397   0.426   5.902   6.818
11385WAT     H234398   0.416   6.046   6.742
11386WAT      O34399   9.807   4.859   5.184
11386WAT     H134400   9.755   4.800   5.122
11386WAT     H234401   9.863   4.803   5.245
11387WAT      O34402   8.306   8.248   0.912
11387WAT     H134403   8.303   8.148   0.902
11387WAT     H234404   8.212   8.284   0.912
11388WAT      O34405   2.410   3.080   7.825
11388WAT     H134406   2.385   3.118   7.736
11388WAT     H234407   2.508   3.061   7.827
11389WAT      O34408   1.639   4.425   4.829
11389WAT     H134409   1.609   4.406   4.922
11389WAT     H234410   1.738   4.437   4.827
11390WAT      O34411   6.542   5.512   9.126
11390WAT     H134412   6.637   5.515   9.095
11390WAT     H234413   6.501   5.603   9.117
11391WAT      O34414   5.796   4.085   3.529
11391WAT     H134415   5.744   4.052   3.450
11391WAT     H234416   5.879   4.131   3.498
11392WAT      O34417   6.997   0.652   0.579
11392WAT     H134418   6.949   0.706   0.648
11392WAT     H234419   7.018   0.561   0.616
11393WAT      O34420   8.145   8.522   3.184
11393WAT     H134421   8.146   8.600   3.247
11393WAT     H234422   8.228   8.524   3.129
11394WAT      O34423   6.205   2.238   4.373
11394WAT     H134424   6.115   2.198   4.357
11394WAT     H234425   6.201   2.298   4.453
11395WAT      O34426   1.782   5.516   5.895
11395WAT     H134427   1.840   5.445   5.935
11395WAT     H234428   1.788   5.599   5.951
11396WAT      O34429   3.279   4.531   2.882
11396WAT     H134430   3.190   4.502   2.847
11396WAT     H234431   3.347   4.461   2.862
11397WAT      O34432   7.895   4.469   8.221
11397WAT     H134433   7.914   4.515   8.135
11397WAT     H234434   7.814   4.412   8.211
11398WAT      O34435   9.085   2.633   6.440
11398WAT     H134436   9.062   2.727   6.416
11398WAT     H234437   9.020   2.600   6.510
11399WAT      O34438   3.201   8.704   8.817
11399WAT     H134439   3.297   8.680   8.833
11399WAT     H234440   3.153   8.625   8.779
11400WAT      O34441   9.549   6.049   0.117
11400WAT     H134442   9.583   6.041   0.210
11400WAT     H234443   9.522   6.144   0.099
11401WAT      O34444   0.699   1.587   5.528
11401WAT     H134445   0.717   1.489   5.537
11401WAT     H234446   0.770   1.638   5.577
11402WAT      O34447   7.665   4.456   4.236
11402WAT     H134448   7.674   4.456   4.336
11402WAT     H234449   7.737   4.512   4.196
11403WAT      O34450   8.320   1.641   2.679
11403WAT     H134451   8.404   1.685   2.710
11403WAT     H234452   8.315   1.549   2.716
11404WAT      O34453   6.352   9.372   8.689
11404WAT     H134454   6.285   9.393   8.618
11404WAT     H234455   6.312   9.388   8.779
11405WAT      O34456   0.694   1.724   9.456
11405WAT     H134457   0.744   1.684   9.379
11405WAT     H234458   0.711   1.670   9.539
11406WAT      O34459   8.191   3.587   3.752
11406WAT     H134460   8.144   3.607   3.666
11406WAT     H234461   8.141   3.516   3.801
11407WAT      O34462   1.832   8.540   2.554
11407WAT     H134463   1.733   8.536   2.571
11407WAT     H234464   1.875   8.455   2.584
11408WAT      O34465   3.613   7.351   0.084
11408WAT     H134466   3.514   7.354   0.100
11408WAT     H234467   3.661   7.385   0.165
11409WAT      O34468   3.856   1.786   3.262
11409WAT     H134469   3.908   1.872   3.270
11409WAT     H234470   3.766   1.798   3.305
11410WAT      O34471   8.795   1.059   0.349
11410WAT     H134472   8.697   1.068   0.367
11410WAT     H234473   8.845   1.132   0.397
11411WAT      O34474   2.698   2.164   0.381
11411WAT     H134475   2.643   2.223   0.322
11411WAT     H234476   2.790   2.202   0.390
11412WAT      O34477   6.226   8.527   1.402
11412WAT     H134478   6.212   8.584   1.321
11412WAT     H234479   6.252   8.585   1.479
11413WAT      O34480   8.133   0.850   0.324
11413WAT     H134481   8.089   0.810   0.243
11413WAT     H234482   8.232   0.847   0.313
11414WAT      O34483   1.263   5.607   0.702
11414WAT     H134484   1.215   5.674   0.646
11414WAT     H234485   1.197   5.540   0.738
11415WAT      O34486   4.652   3.773   7.567
11415WAT     H134487   4.616   3.862   7.540
11415WAT     H234488   4.616   3.748   7.657
11416WAT      O34489   1.302   2.507   3.799
11416WAT     H134490   1.380   2.569   3.798
11416WAT     H234491   1.264   2.499   3.707
11417WAT      O34492   5.074   6.362   8.682
11417WAT     H134493   5.009   6.310   8.626
11417WAT     H234494   5.026   6.436   8.729
11418WAT      O34495   9.501   0.603   2.360
11418WAT     H134496   9.595   0.617   2.391
11418WAT     H234497   9.471   0.512   2.385
11419WAT      O34498   1.014   7.782   5.816
11419WAT     H134499   0.922   7.759   5.848
11419WAT     H234500   1.035   7.729   5.734
11420WAT      O34501   3.440   1.591   7.648
11420WAT     H134502   3.516   1.628   7.594
11420WAT     H234503   3.354   1.630   7.614
11421WAT      O34504   7.986   1.148   6.681
11421WAT     H134505   8.031   1.227   6.640
11421WAT     H234506   8.051   1.097   6.736
11422WAT      O34507   9.133   7.647   0.039
11422WAT     H134508   9.106   7.555   0.071
11422WAT     H234509   9.228   7.664   0.064
11423WAT      O34510   5.496   7.825   6.656
11423WAT     H134511   5.415   7.866   6.613
11423WAT     H234512   5.519   7.740   6.608
11424WAT      O34513   0.858   4.654   5.590
11424WAT     H134514   0.884   4.750   5.595
11424WAT     H234515   0.939   4.598   5.576
11425WAT      O34516   7.064   5.407   6.469
11425WAT     H134517   7.049   5.506   6.477
11425WAT     H234518   7.118   5.375   6.547
11426WAT      O34519   1.241   9.433   4.666
11426WAT     H134520   1.189   9.495   4.608
11426WAT     H234521   1.328   9.412   4.622
11427WAT      O34522   6.833   3.336   8.250
11427WAT     H134523   6.790   3.267   8.307
11427WAT     H234524   6.811   3.318   8.154
11428WAT      O34525   0.819   8.073   0.837
11428WAT     H134526   0.759   8.073   0.917
11428WAT     H234527   0.763   8.066   0.754
11429WAT      O34528   3.960   3.692   8.984
11429WAT     H134529   3.944   3.616   8.921
11429WAT     H234530   3.964   3.777   8.933
11430WAT      O34531   7.174   7.465   1.899
11430WAT     H134532   7.154   7.383   1.845
11430WAT     H234533   7.119   7.465   1.982
11431WAT      O34534   9.742   1.281   1.176
11431WAT     H134535   9.773   1.377   1.178
11431WAT     H234536   9.727   1.254   1.081
11432WAT      O34537   4.944   6.503   4.545
11432WAT     H134538   5.035   6.509   4.587
11432WAT     H234539   4.888   6.581   4.575
11433WAT      O34540   9.781   9.613   1.914
11433WAT     H134541   9.876   9.620   1.884
11433WAT     H234542   9.740   9.704   1.917
11434WAT      O34543   8.487   0.069   3.882
11434WAT     H134544   8.578   0.027   3.884
11434WAT     H234545   8.491   0.155   3.832
11435WAT      O34546   4.383   0.729   5.533
11435WAT     H134547   4.329   0.655   5.574
11435WAT     H234548   4.474   0.695   5.509
11436WAT      O34549   2.166   9.155   1.194
11436WAT     H134550   2.198   9.085   1.258
11436WAT     H234551   2.228   9.233   1.196
11437WAT      O34552   6.141   3.994   7.268
11437WAT     H134553   6.159   4.092   7.256
11437WAT     H234554   6.204   3.941   7.212
11438WAT      O34555   1.735   9.104   7.767
11438WAT     H134556   1.691   9.191   7.790
11438WAT     H234557   1.824   9.122   7.725
11439WAT      O34558   7.437   8.099   2.026
11439WAT     H134559   7.462   8.159   1.950
11439WAT     H234560   7.341   8.071   2.016
11440WAT      O34561   7.851   3.359   3.218
11440WAT     H134562   7.786   3.379   3.144
11440WAT     H234563   7.847   3.262   3.241
11441WAT      O34564   4.835   5.147   1.779
11441WAT     H134565   4.846   5.131   1.680
11441WAT     H234566   4.810   5.061   1.824
11442WAT      O34567   4.116   4.784   9.411
11442WAT     H134568   4.044   4.834   9.363
11442WAT     H234569   4.193   4.769   9.350
11443WAT      O34570   2.860   5.053   2.528
11443WAT     H134571   2.829   5.016   2.616
11443WAT     H234572   2.954   5.021   2.510
11444WAT      O34573   6.814   6.900   4.038
11444WAT     H134574   6.813   6.804   4.065
11444WAT     H234575   6.762   6.955   4.104
11445WAT      O34576   1.562   0.776   7.174
11445WAT     H134577   1.614   0.727   7.103
11445WAT     H234578   1.591   0.745   7.264
11446WAT      O34579   4.308   5.514   1.763
11446WAT     H134580   4.363   5.480   1.839
11446WAT     H234581   4.213   5.529   1.793
11447WAT      O34582   3.043   4.098   2.094
11447WAT     H134583   3.039   3.998   2.103
11447WAT     H234584   3.063   4.139   2.183
11448WAT      O34585   5.500   3.321   1.163
11448WAT     H134586   5.582   3.266   1.182
11448WAT     H234587   5.528   3.412   1.133
11449WAT      O34588   5.895   0.282   7.237
11449WAT     H134589   5.893   0.382   7.239
11449WAT     H234590   5.946   0.252   7.157
11450WAT      O34591   4.439   1.034   3.018
11450WAT     H134592   4.444   1.040   2.919
11450WAT     H234593   4.488   1.111   3.059
11451WAT      O34594   7.846   9.623   6.619
11451WAT     H134595   7.931   9.569   6.618
11451WAT     H234596   7.788   9.591   6.693
11452WAT      O34597   8.357   5.604   7.922
11452WAT     H134598   8.366   5.688   7.868
11452WAT     H234599   8.310   5.624   8.008
11453WAT      O34600   3.946   4.771   6.610
11453WAT     H134601   3.877   4.702   6.629
11453WAT     H234602   4.025   4.728   6.567
11454WAT      O34603   1.210   2.690   5.822
11454WAT     H134604   1.113   2.695   5.846
11454WAT     H234605   1.249   2.782   5.824
11455WAT      O34606   0.082   8.557   3.857
11455WAT     H134607   0.174   8.551   3.817
11455WAT     H234608   0.075   8.495   3.934
11456WAT      O34609   7.948   4.921   1.184
11456WAT     H134610   7.911   5.014   1.179
11456WAT     H234611   8.038   4.918   1.141
11457WAT      O34612   8.289   1.370   6.868
11457WAT     H134613   8.207   1.335   6.912
11457WAT     H234614   8.264   1.434   6.795
11458WAT      O34615   1.817   0.065   5.727
11458WAT     H134616   1.729   0.018   5.718
11458WAT     H234617   1.856   0.046   5.817
11459WAT      O34618   0.268   0.462   3.862
11459WAT     H134619   0.186   0.469   3.806
11459WAT     H234620   0.243   0.440   3.956
11460WAT      O34621   1.087   8.413   8.507
11460WAT     H134622   1.150   8.353   8.458
11460WAT     H234623   1.052   8.367   8.588
11461WAT      O34624   9.151   2.987   2.528
11461WAT     H134625   9.197   2.935   2.457
11461WAT     H234626   9.052   2.981   2.516
11462WAT      O34627   5.708   7.035   5.599
11462WAT     H134628   5.762   7.014   5.517
11462WAT     H234629   5.635   6.968   5.609
11463WAT      O34630   7.094   8.606   6.503
11463WAT     H134631   7.132   8.697   6.521
11463WAT     H234632   7.058   8.567   6.588
11464WAT      O34633   3.624   6.997   2.453
11464WAT     H134634   3.547   7.017   2.514
11464WAT     H234635   3.703   7.051   2.481
11465WAT      O34636   4.646   9.645   6.563
11465WAT     H134637   4.579   9.638   6.637
11465WAT     H234638   4.598   9.654   6.476
11466WAT      O34639   4.620   8.070   0.636
11466WAT     H134640   4.659   7.985   0.600
11466WAT     H234641   4.561   8.049   0.714
11467WAT      O34642   5.294   7.244   1.951
11467WAT     H134643   5.251   7.153   1.952
11467WAT     H234644   5.240   7.305   1.893
11468WAT      O34645   9.049   0.038   2.225
11468WAT     H134646   9.121  -0.031   2.212
11468WAT     H234647   9.049   0.102   2.148
11469WAT      O34648   6.940   9.569   5.189
11469WAT     H134649   6.909   9.485   5.233
11469WAT     H234650   7.028   9.553   5.145
11470WAT      O34651   3.813   9.571   5.545
11470WAT     H134652   3.804   9.540   5.450
11470WAT     H234653   3.818   9.492   5.606
11471WAT      O34654   7.037   3.382   9.830
11471WAT     H134655   7.039   3.334   9.918
11471WAT     H234656   6.999   3.321   9.760
11472WAT      O34657   1.379   3.235   9.618
11472WAT     H134658   1.335   3.209   9.532
11472WAT     H234659   1.436   3.316   9.603
11473WAT      O34660   7.461   4.843   0.562
11473WAT     H134661   7.473   4.940   0.582
11473WAT     H234662   7.483   4.826   0.466
11474WAT      O34663   3.522   3.264   7.106
11474WAT     H134664   3.482   3.278   7.015
11474WAT     H234665   3.621   3.275   7.102
11475WAT      O34666   7.838   3.244   8.107
11475WAT     H134667   7.752   3.284   8.137
11475WAT     H234668   7.820   3.165   8.048
11476WAT      O34669   1.760   8.753   3.546
11476WAT     H134670   1.768   8.807   3.631
11476WAT     H234671   1.686   8.687   3.555
11477WAT      O34672   1.462   6.785   0.180
11477WAT     H134673   1.390   6.775   0.111
11477WAT     H234674   1.552   6.781   0.135
11478WAT      O34675   4.444   1.807   6.719
11478WAT     H134676   4.362   1.865   6.725
11478WAT     H234677   4.429   1.736   6.651
11479WAT      O34678   9.116   5.015   0.373
11479WAT     H134679   9.133   5.004   0.275
11479WAT     H234680   9.086   5.108   0.392
11480WAT      O34681   5.065   9.637   8.542
11480WAT     H134682   5.149   9.584   8.555
11480WAT     H234683   4.992   9.597   8.596
11481WAT      O34684   1.816   3.065   2.636
11481WAT     H134685   1.759   3.130   2.686
11481WAT     H234686   1.909   3.101   2.629
11482WAT      O34687   6.724   5.428   1.066
11482WAT     H134688   6.741   5.518   1.106
11482WAT     H234689   6.789   5.412   0.992
11483WAT      O34690   5.310   8.156   2.951
11483WAT     H134691   5.400   8.181   2.915
11483WAT     H234692   5.303   8.057   2.958
11484WAT      O34693   0.471   2.169   3.725
11484WAT     H134694   0.491   2.091   3.665
11484WAT     H234695   0.373   2.184   3.728
11485WAT      O34696   3.865   7.721   0.833
11485WAT     H134697   3.892   7.694   0.926
11485WAT     H234698   3.838   7.817   0.833
11486WAT      O34699   6.202   5.872   0.820
11486WAT     H134700   6.117   5.829   0.790
11486WAT     H234701   6.210   5.865   0.920
11487WAT      O34702   7.154   1.511   3.572
11487WAT     H134703   7.131   1.473   3.662
11487WAT     H234704   7.124   1.606   3.567
11488WAT      O34705   1.606   7.960   9.398
11488WAT     H134706   1.548   8.037   9.371
11488WAT     H234707   1.569   7.876   9.360
11489WAT      O34708   2.317   4.912   3.821
11489WAT     H134709   2.332   4.914   3.722
11489WAT     H234710   2.371   4.837   3.861
11490WAT      O34711   5.512   8.085   6.411
11490WAT     H134712   5.476   8.119   6.324
11490WAT     H234713   5.606   8.053   6.399
11491WAT      O34714   4.587   7.455   6.693
11491WAT     H134715   4.529   7.394   6.639
11491WAT     H234716   4.674   7.409   6.712
11492WAT      O34717   4.616   6.709   2.903
11492WAT     H134718   4.688   6.656   2.948
11492WAT     H234719   4.580   6.659   2.825
11493WAT      O34720   1.610   0.480   3.105
11493WAT     H134721   1.660   0.472   3.192
11493WAT     H234722   1.625   0.571   3.067
11494WAT      O34723   4.654   0.539   7.713
11494WAT     H134724   4.681   0.478   7.788
11494WAT     H234725   4.734   0.558   7.655
11495WAT      O34726   6.554   6.085   9.868
11495WAT     H134727   6.506   6.060   9.783
11495WAT     H234728   6.487   6.106   9.939
11496WAT      O34729   1.771   6.199   3.351
11496WAT     H134730   1.729   6.289   3.349
11496WAT     H234731   1.716   6.135   3.297
11497WAT      O34732   6.690   7.875   9.839
11497WAT     H134733   6.616   7.856   9.775
11497WAT     H234734   6.713   7.792   9.890
11498WAT      O34735   6.774   7.549   2.429
11498WAT     H134736   6.686   7.549   2.477
11498WAT     H234737   6.812   7.457   2.429
11499WAT      O34738   0.780   1.263   4.456
11499WAT     H134739   0.874   1.285   4.432
11499WAT     H234740   0.758   1.171   4.424
11500WAT      O34741   2.299   9.810   5.515
11500WAT     H134742   2.299   9.890   5.576
11500WAT     H234743   2.276   9.728   5.568
11501WAT      O34744   1.349   2.556   1.956
11501WAT     H134745   1.301   2.468   1.964
11501WAT     H234746   1.427   2.545   1.895
11502WAT      O34747   7.472   3.608   7.071
11502WAT     H134748   7.428   3.534   7.021
11502WAT     H234749   7.419   3.630   7.153
11503WAT      O34750   8.117   3.391   8.183
11503WAT     H134751   8.108   3.477   8.134
11503WAT     H234752   8.189   3.398   8.252
11504WAT      O34753   3.379   1.960   2.157
11504WAT     H134754   3.326   1.906   2.092
11504WAT     H234755   3.472   1.971   2.124
11505WAT      O34756   1.687   1.378   3.241
11505WAT     H134757   1.655   1.336   3.156
11505WAT     H234758   1.783   1.406   3.230
11506WAT      O34759   7.078   6.561   2.386
11506WAT     H134760   7.033   6.608   2.310
11506WAT     H234761   7.012   6.546   2.460
11507WAT      O34762   6.316   8.900   9.260
11507WAT     H134763   6.324   8.976   9.195
11507WAT     H234764   6.335   8.814   9.213
11508WAT      O34765   0.482   1.630   6.820
11508WAT     H134766   0.395   1.581   6.819
11508WAT     H234767   0.543   1.591   6.751
11509WAT      O34768   9.641   1.567   5.440
11509WAT     H134769   9.561   1.616   5.404
11509WAT     H234770   9.616   1.521   5.525
11510WAT      O34771   2.248   0.211   7.181
11510WAT     H134772   2.199   0.295   7.159
11510WAT     H234773   2.256   0.202   7.280
11511WAT      O34774   0.188   6.977   3.468
11511WAT     H134775   0.124   6.999   3.394
11511WAT     H234776   0.138   6.936   3.544
11512WAT      O34777   2.669   9.092   9.699
11512WAT     H134778   2.672   9.190   9.720
11512WAT     H234779   2.575   9.060   9.701
11513WAT      O34780   0.659   6.143   5.607
11513WAT     H134781   0.721   6.222   5.604
11513WAT     H234782   0.642   6.110   5.515
11514WAT      O34783   4.850   4.499   5.539
11514WAT     H134784   4.771   4.508   5.477
11514WAT     H234785   4.900   4.586   5.542
11515WAT      O34786   6.697   6.159   3.364
11515WAT     H134787   6.663   6.103   3.440
11515WAT     H234788   6.732   6.246   3.400
11516WAT      O34789   3.780   7.562   7.638
11516WAT     H134790   3.748   7.486   7.695
11516WAT     H234791   3.702   7.617   7.609
11517WAT      O34792   6.010   2.869   1.811
11517WAT     H134793   5.923   2.825   1.790
11517WAT     H234794   6.073   2.857   1.734
11518WAT      O34795   8.991   8.734   4.407
11518WAT     H134796   8.898   8.710   4.434
11518WAT     H234797   9.007   8.706   4.312
11519WAT      O34798   3.216   9.578   6.971
11519WAT     H134799   3.247   9.485   6.991
11519WAT     H234800   3.283   9.643   7.007
11520WAT      O34801   2.788   8.279   5.057
11520WAT     H134802   2.870   8.313   5.012
11520WAT     H234803   2.803   8.186   5.090
11521WAT      O34804   1.929   8.889   4.397
11521WAT     H134805   1.943   8.826   4.474
11521WAT     H234806   1.986   8.862   4.320
11522WAT      O34807   7.051   6.986   6.094
11522WAT     H134808   7.139   6.943   6.114
11522WAT     H234809   7.023   6.961   6.001
11523WAT      O34810   6.925   7.190   2.184
11523WAT     H134811   6.979   7.120   2.137
11523WAT     H234812   6.828   7.180   2.159
11524WAT      O34813   8.527   0.974   8.955
11524WAT     H134814   8.437   0.997   8.919
11524WAT     H234815   8.597   1.019   8.900
11525WAT      O34816   4.528   1.332   7.290
11525WAT     H134817   4.487   1.390   7.220
11525WAT     H234818   4.494   1.238   7.280
11526WAT      O34819   3.975   1.922   0.572
11526WAT     H134820   3.948   1.921   0.668
11526WAT     H234821   3.895   1.944   0.516
11527WAT      O34822   2.322   4.176   9.582
11527WAT     H134823   2.376   4.258   9.599
11527WAT     H234824   2.228   4.191   9.613
11528WAT      O34825   7.295   2.868   4.239
11528WAT     H134826   7.269   2.884   4.334
11528WAT     H234827   7.389   2.900   4.225
11529WAT      O34828   8.628   8.382   0.650
11529WAT     H134829   8.651   8.400   0.554
11529WAT     H234830   8.711   8.380   0.705
11530WAT      O34831   1.542   9.790   6.986
11530WAT     H134832   1.481   9.749   7.053
11530WAT     H234833   1.502   9.783   6.895
11531WAT      O34834   5.445   4.350   8.182
11531WAT     H134835   5.392   4.273   8.145
11531WAT     H234836   5.533   4.354   8.136
11532WAT      O34837   9.574   4.951   3.282
11532WAT     H134838   9.493   4.919   3.332
11532WAT     H234839   9.557   4.943   3.184
11533WAT      O34840   9.844   2.551   6.750
11533WAT     H134841   9.904   2.495   6.808
11533WAT     H234842   9.752   2.550   6.787
11534WAT      O34843   4.125   6.330   4.685
11534WAT     H134844   4.055   6.258   4.690
11534WAT     H234845   4.097   6.399   4.619
11535WAT      O34846   2.090   3.975   7.899
11535WAT     H134847   2.159   3.945   7.964
11535WAT     H234848   2.081   4.075   7.903
11536WAT      O34849   3.654   1.677   8.869
11536WAT     H134850   3.730   1.663   8.933
11536WAT     H234851   3.572   1.631   8.905
11537WAT      O34852   8.410   5.974   2.170
11537WAT     H134853   8.336   5.993   2.234
11537WAT     H234854   8.381   5.996   2.077
11538WAT      O34855   0.343   0.157   2.299
11538WAT     H134856   0.439   0.133   2.285
11538WAT     H234857   0.286   0.076   2.285
11539WAT      O34858   2.946   9.554   8.962
11539WAT     H134859   2.913   9.627   8.901
11539WAT     H234860   2.975   9.476   8.907
11540WAT      O34861   9.540   7.116   8.038
11540WAT     H134862   9.576   7.182   7.972
11540WAT     H234863   9.462   7.157   8.086
11541WAT      O34864   1.334   7.084   1.001
11541WAT     H134865   1.419   7.045   1.035
11541WAT     H234866   1.310   7.044   0.913
11542WAT      O34867   5.817   1.866   6.967
11542WAT     H134868   5.860   1.825   6.887
11542WAT     H234869   5.810   1.965   6.954
11543WAT      O34870   7.956   0.263   2.164
11543WAT     H134871   7.994   0.355   2.161
11543WAT     H234872   8.025   0.199   2.196
11544WAT      O34873   3.165   5.100   0.907
11544WAT     H134874   3.081   5.152   0.922
11544WAT     H234875   3.156   5.009   0.947
11545WAT      O34876   5.317   8.749   2.351
11545WAT     H134877   5.282   8.823   2.294
11545WAT     H234878   5.268   8.747   2.438
11546WAT      O34879   9.693   6.326   6.098
11546WAT     H134880   9.675   6.282   6.186
11546WAT     H234881   9.745   6.410   6.113
11547WAT      O34882   0.580   8.494   4.520
11547WAT     H134883   0.611   8.516   4.613
11547WAT     H234884   0.564   8.396   4.512
11548WAT      O34885   6.574   7.780   9.347
11548WAT     H134886   6.477   7.756   9.337
11548WAT     H234887   6.619   7.769   9.258
11549WAT      O34888   0.769   7.705   5.210
11549WAT     H134889   0.693   7.759   5.174
11549WAT     H234890   0.838   7.766   5.248
11550WAT      O34891   7.987   5.916   9.505
11550WAT     H134892   8.026   5.984   9.443
11550WAT     H234893   8.027   5.925   9.595
11551WAT      O34894   1.773   3.267   6.619
11551WAT     H134895   1.782   3.167   6.622
11551WAT     H234896   1.829   3.306   6.693
11552WAT      O34897   3.620   0.849   6.390
11552WAT     H134898   3.694   0.803   6.439
11552WAT     H234899   3.654   0.935   6.352
11553WAT      O34900   6.183   5.866   1.819
11553WAT     H134901   6.224   5.901   1.735
11553WAT     H234902   6.236   5.897   1.898
11554WAT      O34903   7.740   3.118   5.010
11554WAT     H134904   7.779   3.034   4.972
11554WAT     H234905   7.806   3.158   5.075
11555WAT      O34906   3.590   1.244   3.126
11555WAT     H134907   3.570   1.342   3.123
11555WAT     H234908   3.672   1.228   3.180
11556WAT      O34909   8.496   7.033   7.275
11556WAT     H134910   8.498   6.934   7.262
11556WAT     H234911   8.575   7.061   7.330
11557WAT      O34912   8.425   4.752   6.767
11557WAT     H134913   8.450   4.657   6.788
11557WAT     H234914   8.463   4.813   6.837
11558WAT      O34915   7.037   0.516   7.446
11558WAT     H134916   7.092   0.549   7.369
11558WAT     H234917   6.986   0.435   7.418
11559WAT      O34918   6.683   9.209   9.114
11559WAT     H134919   6.678   9.307   9.136
11559WAT     H234920   6.618   9.159   9.171
11560WAT      O34921   4.083   4.106   5.990
11560WAT     H134922   4.123   4.176   5.931
11560WAT     H234923   4.081   4.018   5.942
11561WAT      O34924   4.318   6.183   7.732
11561WAT     H134925   4.282   6.215   7.644
11561WAT     H234926   4.262   6.221   7.806
11562WAT      O34927   2.472   5.218   9.775
11562WAT     H134928   2.558   5.265   9.753
11562WAT     H234929   2.427   5.189   9.691
11563WAT      O34930   2.885   3.607   1.595
11563WAT     H134931   2.818   3.556   1.648
11563WAT     H234932   2.839   3.667   1.530
11564WAT      O34933   3.033   7.248   7.971
11564WAT     H134934   3.023   7.347   7.979
11564WAT     H234935   3.063   7.211   8.059
11565WAT      O34936   7.514   2.666   3.442
11565WAT     H134937   7.518   2.703   3.349
11565WAT     H234938   7.421   2.635   3.462
11566WAT      O34939   4.404   8.398   7.286
11566WAT     H134940   4.466   8.475   7.273
11566WAT     H234941   4.424   8.326   7.220
11567WAT      O34942   5.695   2.762   3.979
11567WAT     H134943   5.630   2.781   4.052
11567WAT     H234944   5.763   2.696   4.011
11568WAT      O34945   9.044   9.006   4.328
11568WAT     H134946   9.114   8.988   4.258
11568WAT     H234947   9.044   8.932   4.395
11569WAT      O34948   0.484   0.327   3.919
11569WAT     H134949   0.399   0.366   3.883
11569WAT     H234950   0.533   0.280   3.845
11570WAT      O34951   1.085   7.786   1.101
11570WAT     H134952   1.104   7.709   1.161
11570WAT     H234953   1.172   7.822   1.065
11571WAT      O34954   4.793   4.122   1.554
11571WAT     H134955   4.793   4.220   1.539
11571WAT     H234956   4.861   4.099   1.624
11572WAT      O34957   6.405   1.280   5.864
11572WAT     H134958   6.394   1.310   5.958
11572WAT     H234959   6.331   1.216   5.840
11573WAT      O34960   7.715   0.668   2.297
11573WAT     H134961   7.727   0.588   2.355
11573WAT     H234962   7.768   0.744   2.333
11574WAT      O34963   2.166   8.900   2.810
11574WAT     H134964   2.125   8.878   2.722
11574WAT     H234965   2.185   8.815   2.860
11575WAT      O34966   8.288   5.007   2.157
11575WAT     H134967   8.330   4.972   2.240
11575WAT     H234968   8.188   5.005   2.167
11576WAT      O34969   2.984   0.911   7.897
11576WAT     H134970   3.023   0.827   7.935
11576WAT     H234971   2.894   0.891   7.859
11577WAT      O34972   9.308   4.576   1.759
11577WAT     H134973   9.254   4.506   1.807
11577WAT     H234974   9.293   4.567   1.660
11578WAT      O34975   7.227   6.820   4.709
11578WAT     H134976   7.223   6.720   4.705
11578WAT     H234977   7.168   6.859   4.639
11579WAT      O34978   3.118   4.215   6.517
11579WAT     H134979   3.035   4.263   6.489
11579WAT     H234980   3.190   4.282   6.535
11580WAT      O34981   2.168   9.718   1.481
11580WAT     H134982   2.131   9.770   1.404
11580WAT     H234983   2.118   9.742   1.564
11581WAT      O34984   8.160   7.209   9.856
11581WAT     H134985   8.083   7.256   9.813
11581WAT     H234986   8.188   7.131   9.799
11582WAT      O34987   0.960   6.052   3.623
11582WAT     H134988   0.894   5.980   3.602
11582WAT     H234989   0.944   6.130   3.563
11583WAT      O34990   3.636   4.427   6.458
11583WAT     H134991   3.715   4.366   6.457
11583WAT     H234992   3.553   4.373   6.441
11584WAT      O34993   1.818   2.371   8.878
11584WAT     H134994   1.851   2.449   8.824
11584WAT     H234995   1.826   2.288   8.823
11585WAT      O34996   4.316   2.291   8.874
11585WAT     H134997   4.251   2.286   8.950
11585WAT     H234998   4.266   2.284   8.787
11586WAT      O34999   1.527   6.750   5.669
11586WAT     H135000   1.529   6.767   5.768
11586WAT     H235001   1.602   6.688   5.645
11587WAT      O35002   3.135   1.754   6.503
11587WAT     H135003   3.050   1.710   6.472
11587WAT     H235004   3.213   1.707   6.463
11588WAT      O35005   8.221   6.473   5.252
11588WAT     H135006   8.263   6.549   5.202
11588WAT     H235007   8.293   6.415   5.290
11589WAT      O35008   6.769   6.285   5.282
11589WAT     H135009   6.711   6.347   5.334
11589WAT     H235010   6.814   6.336   5.208
11590WAT      O35011   2.640   8.582   9.208
11590WAT     H135012   2.658   8.561   9.112
11590WAT     H235013   2.713   8.543   9.265
11591WAT      O35014   9.562   7.671   2.443
11591WAT     H135015   9.611   7.756   2.460
11591WAT     H235016   9.580   7.641   2.349
11592WAT      O35017   1.536   1.817   6.543
11592WAT     H135018   1.536   1.791   6.447
11592WAT     H235019   1.613   1.773   6.590
11593WAT      O35020   4.809   9.294   0.132
11593WAT     H135021   4.724   9.314   0.084
11593WAT     H235022   4.848   9.379   0.168
11594WAT      O35023   3.572   0.275   9.578
11594WAT     H135024   3.566   0.176   9.567
11594WAT     H235025   3.622   0.314   9.500
11595WAT      O35026   6.965   0.923   5.616
11595WAT     H135027   6.980   0.914   5.517
11595WAT     H235028   6.997   0.841   5.662
11596WAT      O35029   5.577   5.377   9.853
11596WAT     H135030   5.639   5.451   9.828
11596WAT     H235031   5.596   5.297   9.795
11597WAT      O35032   8.505   1.509   5.856
11597WAT     H135033   8.432   1.451   5.821
11597WAT     H235034   8.499   1.514   5.955
11598WAT      O35035   0.322   2.005   6.952
11598WAT     H135036   0.265   1.944   7.007
11598WAT     H235037   0.264   2.071   6.904
11599WAT      O35038   3.353   4.160   2.884
11599WAT     H135039   3.422   4.229   2.866
11599WAT     H235040   3.285   4.160   2.811
11600WAT      O35041   7.670   4.912   6.977
11600WAT     H135042   7.598   4.871   7.032
11600WAT     H235043   7.757   4.904   7.026
11601WAT      O35044   4.998   3.812   3.256
11601WAT     H135045   5.006   3.718   3.289
11601WAT     H235046   4.921   3.856   3.301
11602WAT      O35047   9.303   6.092   8.215
11602WAT     H135048   9.370   6.046   8.273
11602WAT     H235049   9.310   6.056   8.122
11603WAT      O35050   7.068   7.631   2.314
11603WAT     H135051   6.982   7.663   2.355
11603WAT     H235052   7.128   7.710   2.300
11604WAT      O35053   7.530   0.236   3.856
11604WAT     H135054   7.433   0.256   3.869
11604WAT     H235055   7.580   0.321   3.838
11605WAT      O35056   3.588   4.726   6.819
11605WAT     H135057   3.622   4.750   6.910
11605WAT     H235058   3.579   4.808   6.763
11606WAT      O35059   8.391   0.318   0.982
11606WAT     H135060   8.301   0.360   0.994
11606WAT     H235061   8.383   0.238   0.922
11607WAT      O35062   8.779   4.923   2.615
11607WAT     H135063   8.785   4.825   2.629
11607WAT     H235064   8.684   4.953   2.626
11608WAT      O35065   3.339   3.713   1.096
11608WAT     H135066   3.241   3.706   1.074
11608WAT     H235067   3.351   3.705   1.195
11609WAT      O35068   5.535   4.602   4.421
11609WAT     H135069   5.572   4.536   4.486
11609WAT     H235070   5.533   4.693   4.463
11610WAT      O35071   5.263   0.044   6.340
11610WAT     H135072   5.361   0.023   6.334
11610WAT     H235073   5.246   0.097   6.423
11611WAT      O35074   5.764   4.432   4.952
11611WAT     H135075   5.826   4.356   4.975
11611WAT     H235076   5.807   4.490   4.882
11612WAT      O35077   6.774   7.162   8.865
11612WAT     H135078   6.717   7.242   8.882
11612WAT     H235079   6.864   7.175   8.906
11613WAT      O35080   3.430   3.607   8.319
11613WAT     H135081   3.378   3.652   8.247
11613WAT     H235082   3.369   3.582   8.394
11614WAT      O35083   9.573   2.181   1.931
11614WAT     H135084   9.553   2.186   2.029
11614WAT     H235085   9.558   2.270   1.888
11615WAT      O35086   1.945   2.363   3.869
11615WAT     H135087   1.967   2.294   3.800
11615WAT     H235088   1.994   2.447   3.849
11616WAT      O35089   1.734   7.315   0.351
11616WAT     H135090   1.744   7.292   0.254
11616WAT     H235091   1.643   7.353   0.367
11617WAT      O35092   5.726   7.360   7.921
11617WAT     H135093   5.718   7.395   7.827
11617WAT     H235094   5.643   7.384   7.972
11618WAT      O35095   0.484   4.316   3.345
11618WAT     H135096   0.563   4.319   3.284
11618WAT     H235097   0.489   4.233   3.401
11619WAT      O35098   3.427   8.597   9.382
11619WAT     H135099   3.501   8.595   9.315
11619WAT     H235100   3.339   8.611   9.336
11620WAT      O35101   5.679   7.621   2.095
11620WAT     H135102   5.598   7.651   2.043
11620WAT     H235103   5.664   7.638   2.193
11621WAT      O35104   6.512   0.627   9.158
11621WAT     H135105   6.459   0.614   9.242
11621WAT     H235106   6.549   0.719   9.155
11622WAT      O35107   2.432   3.113   7.038
11622WAT     H135108   2.517   3.134   7.085
11622WAT     H235109   2.425   3.166   6.953
11623WAT      O35110   2.537   6.124   8.750
11623WAT     H135111   2.628   6.085   8.735
11623WAT     H235112   2.542   6.196   8.819
11624WAT      O35113   4.869   3.088   7.585
11624WAT     H135114   4.953   3.112   7.634
11624WAT     H235115   4.796   3.151   7.612
11625WAT      O35116   5.675   5.138   8.171
11625WAT     H135117   5.721   5.051   8.152
11625WAT     H235118   5.633   5.173   8.088
11626WAT      O35119   9.014   1.416   0.684
11626WAT     H135120   9.099   1.468   0.686
11626WAT     H235121   9.033   1.320   0.705
11627WAT      O35122   3.075   3.866   8.718
11627WAT     H135123   3.030   3.936   8.774
11627WAT     H235124   3.159   3.836   8.763
11628WAT      O35125   5.782   3.621   8.910
11628WAT     H135126   5.733   3.641   8.995
11628WAT     H235127   5.718   3.585   8.843
11629WAT      O35128   9.232   6.821   9.316
11629WAT     H135129   9.165   6.868   9.258
11629WAT     H235130   9.215   6.843   9.412
11630WAT      O35131   9.666   0.484   1.033
11630WAT     H135132   9.690   0.387   1.023
11630WAT     H235133   9.642   0.502   1.129
11631WAT      O35134   8.459   4.236   6.336
11631WAT     H135135   8.492   4.150   6.374
11631WAT     H235136   8.427   4.220   6.242
11632WAT      O35137   1.389   4.423   1.421
11632WAT     H135138   1.419   4.333   1.388
11632WAT     H235139   1.355   4.477   1.345
11633WAT      O35140   1.859   2.842   9.091
11633WAT     H135141   1.906   2.766   9.136
11633WAT     H235142   1.777   2.866   9.142
11634WAT      O35143   0.378   7.704   9.663
11634WAT     H135144   0.329   7.700   9.750
11634WAT     H235145   0.417   7.615   9.642
11635WAT      O35146   7.425   7.305   8.556
11635WAT     H135147   7.393   7.253   8.635
11635WAT     H235148   7.352   7.313   8.489
11636WAT      O35149   3.353   4.739   4.146
11636WAT     H135150   3.255   4.717   4.141
11636WAT     H235151   3.390   4.704   4.232
11637WAT      O35152   7.338   3.412   3.400
11637WAT     H135153   7.296   3.501   3.386
11637WAT     H235154   7.337   3.389   3.498
11638WAT      O35155   7.066   5.374   8.134
11638WAT     H135156   7.003   5.413   8.067
11638WAT     H235157   7.112   5.294   8.094
11639WAT      O35158   7.136   8.259   2.507
11639WAT     H135159   7.043   8.284   2.479
11639WAT     H235160   7.133   8.212   2.595
11640WAT      O35161   7.840   7.919   4.560
11640WAT     H135162   7.751   7.956   4.534
11640WAT     H235163   7.831   7.822   4.582
11641WAT      O35164   8.408   0.498   4.006
11641WAT     H135165   8.338   0.519   3.937
11641WAT     H235166   8.428   0.581   4.059
11642WAT      O35167   4.494   2.960   4.054
11642WAT     H135168   4.582   2.977   4.100
11642WAT     H235169   4.505   2.976   3.956
11643WAT      O35170   3.180   8.142   2.062
11643WAT     H135171   3.085   8.151   2.033
11643WAT     H235172   3.193   8.187   2.151
11644WAT      O35173   3.166   1.609   2.696
11644WAT     H135174   3.084   1.663   2.713
11644WAT     H235175   3.148   1.542   2.625
11645WAT      O35176   8.887   2.353   5.832
11645WAT     H135177   8.919   2.409   5.755
11645WAT     H235178   8.806   2.394   5.872
11646WAT      O35179   4.278   0.496   7.595
11646WAT     H135180   4.253   0.425   7.661
11646WAT     H235181   4.294   0.582   7.644
11647WAT      O35182   0.462   0.751   5.156
11647WAT     H135183   0.496   0.698   5.234
11647WAT     H235184   0.532   0.816   5.128
11648WAT      O35185   0.625   2.205   1.296
11648WAT     H135186   0.593   2.150   1.219
11648WAT     H235187   0.681   2.148   1.356
11649WAT      O35188   6.028   7.512   5.266
11649WAT     H135189   6.090   7.586   5.291
11649WAT     H235190   6.004   7.519   5.170
11650WAT      O35191   0.462   3.730   1.348
11650WAT     H135192   0.520   3.764   1.422
11650WAT     H235193   0.519   3.694   1.274
11651WAT      O35194   1.894   7.561   8.762
11651WAT     H135195   1.954   7.482   8.768
11651WAT     H235196   1.942   7.636   8.716
11652WAT      O35197   9.606   4.257   2.612
11652WAT     H135198   9.667   4.183   2.640
11652WAT     H235199   9.527   4.261   2.674
11653WAT      O35200   0.328   1.416   6.556
11653WAT     H135201   0.280   1.412   6.644
11653WAT     H235202   0.412   1.362   6.562
11654WAT      O35203   1.111   5.843   0.017
11654WAT     H135204   1.087   5.936  -0.013
11654WAT     H235205   1.100   5.779  -0.059
11655WAT      O35206   4.267   5.832   7.346
11655WAT     H135207   4.234   5.864   7.435
11655WAT     H235208   4.353   5.782   7.360
11656WAT      O35209   2.696   3.524   6.580
11656WAT     H135210   2.703   3.520   6.480
11656WAT     H235211   2.642   3.604   6.606
11657WAT      O35212   2.327   3.764   1.846
11657WAT     H135213   2.261   3.836   1.824
11657WAT     H235214   2.414   3.807   1.873
11658WAT      O35215   6.605   4.032   5.330
11658WAT     H135216   6.526   4.070   5.282
11658WAT     H235217   6.689   4.076   5.297
11659WAT      O35218   9.347   6.688   1.681
11659WAT     H135219   9.352   6.691   1.582
11659WAT     H235220   9.350   6.781   1.718
11660WAT      O35221   1.890   8.452   5.536
11660WAT     H135222   1.810   8.415   5.490
11660WAT     H235223   1.908   8.401   5.620
11661WAT      O35224   6.246   7.326   8.223
11661WAT     H135225   6.152   7.312   8.254
11661WAT     H235226   6.265   7.424   8.218
11662WAT      O35227   5.926   7.248   8.348
11662WAT     H135228   5.879   7.227   8.433
11662WAT     H235229   5.958   7.163   8.306
11663WAT      O35230   1.321   6.280   2.167
11663WAT     H135231   1.326   6.198   2.224
11663WAT     H235232   1.414   6.309   2.143
11664WAT      O35233   5.710   0.419   5.966
11664WAT     H135234   5.735   0.509   5.931
11664WAT     H235235   5.776   0.391   6.036
11665WAT      O35236   4.459   7.273   3.545
11665WAT     H135237   4.431   7.369   3.539
11665WAT     H235238   4.531   7.264   3.614
11666WAT      O35239   8.515   1.616   8.660
11666WAT     H135240   8.493   1.603   8.756
11666WAT     H235241   8.570   1.699   8.649
11667WAT      O35242   4.756   3.815   4.415
11667WAT     H135243   4.744   3.887   4.347
11667WAT     H235244   4.853   3.803   4.435
11668WAT      O35245   3.144   5.065   4.895
11668WAT     H135246   3.112   5.134   4.831
11668WAT     H235247   3.158   4.978   4.847
11669WAT      O35248   2.501   8.452   3.927
11669WAT     H135249   2.582   8.417   3.973
11669WAT     H235250   2.526   8.488   3.837
11670WAT      O35251   2.443   1.937   8.552
11670WAT     H135252   2.493   1.922   8.637
11670WAT     H235253   2.347   1.915   8.565
11671WAT      O35254   5.880   7.229   4.997
11671WAT     H135255   5.791   7.205   5.035
11671WAT     H235256   5.944   7.154   5.012
11672WAT      O35257   4.686   8.900   5.175
11672WAT     H135258   4.725   8.833   5.239
11672WAT     H235259   4.656   8.981   5.226
11673WAT      O35260   0.491   5.747   1.668
11673WAT     H135261   0.511   5.649   1.669
11673WAT     H235262   0.563   5.796   1.716
11674WAT      O35263   1.209   6.976   1.264
11674WAT     H135264   1.258   6.949   1.347
11674WAT     H235265   1.228   7.072   1.244
11675WAT      O35266   5.446   8.801   4.347
11675WAT     H135267   5.545   8.804   4.362
11675WAT     H235268   5.399   8.838   4.427
11676WAT      O35269   1.855   5.723   0.972
11676WAT     H135270   1.828   5.712   0.877
11676WAT     H235271   1.952   5.703   0.982
11677WAT      O35272   9.255   3.953   9.550
11677WAT     H135273   9.199   3.929   9.471
11677WAT     H235274   9.225   4.040   9.589
11678WAT      O35275   8.944   0.867   1.346
11678WAT     H135276   8.944   0.767   1.334
11678WAT     H235277   8.961   0.911   1.258
11679WAT      O35278   8.012   5.613   6.456
11679WAT     H135279   8.097   5.658   6.483
11679WAT     H235280   8.029   5.516   6.440
11680WAT      O35281   1.590   1.058   9.111
11680WAT     H135282   1.505   1.075   9.161
11680WAT     H235283   1.568   1.034   9.016
11681WAT      O35284   2.005   8.665   3.512
11681WAT     H135285   1.912   8.700   3.518
11681WAT     H235286   2.014   8.583   3.568
11682WAT      O35287   7.764   6.201   1.741
11682WAT     H135288   7.805   6.132   1.801
11682WAT     H235289   7.733   6.158   1.657
11683WAT      O35290   2.838   7.038   5.618
11683WAT     H135291   2.926   6.991   5.607
11683WAT     H235292   2.827   7.105   5.545
11684WAT      O35293   3.071   9.184   7.674
11684WAT     H135294   2.995   9.119   7.664
11684WAT     H235295   3.116   9.196   7.586
11685WAT      O35296   5.304   9.510   4.526
11685WAT     H135297   5.232   9.523   4.594
11685WAT     H235298   5.320   9.596   4.478
11686WAT      O35299   9.664   9.413   8.728
11686WAT     H135300   9.737   9.362   8.684
11686WAT     H235301   9.704   9.480   8.791
11687WAT      O35302   5.318   6.887   9.538
11687WAT     H135303   5.350   6.969   9.489
11687WAT     H235304   5.357   6.805   9.495
11688WAT      O35305   8.405   2.498   0.860
11688WAT     H135306   8.387   2.399   0.854
11688WAT     H235307   8.503   2.513   0.871
11689WAT      O35308   1.173   3.287   2.797
11689WAT     H135309   1.104   3.228   2.754
11689WAT     H235310   1.222   3.235   2.867
11690WAT      O35311   1.162   6.729   1.144
11690WAT     H135312   1.188   6.820   1.176
11690WAT     H235313   1.072   6.705   1.180
11691WAT      O35314   3.874   4.774   4.789
11691WAT     H135315   3.961   4.778   4.839
11691WAT     H235316   3.852   4.864   4.754
11692WAT      O35317   9.697   7.133   2.553
11692WAT     H135318   9.751   7.100   2.476
11692WAT     H235319   9.737   7.217   2.589
11693WAT      O35320   3.492   9.049   4.182
11693WAT     H135321   3.468   8.962   4.140
11693WAT     H235322   3.439   9.122   4.139
11694WAT      O35323   0.189   0.033   8.556
11694WAT     H135324   0.266  -0.031   8.552
11694WAT     H235325   0.113  -0.002   8.501
11695WAT      O35326   0.182   0.170   1.210
11695WAT     H135327   0.142   0.177   1.302
11695WAT     H235328   0.217   0.259   1.183
11696WAT      O35329   4.056   2.429   1.532
11696WAT     H135330   4.086   2.515   1.574
11696WAT     H235331   3.965   2.442   1.492
11697WAT      O35332   4.915   1.271   1.992
11697WAT     H135333   4.960   1.250   2.078
11697WAT     H235334   4.848   1.199   1.971
11698WAT      O35335   7.794   9.272   5.693
11698WAT     H135336   7.872   9.225   5.651
11698WAT     H235337   7.803   9.371   5.679
11699WAT      O35338   3.073   6.094   6.910
11699WAT     H135339   3.136   6.140   6.847
11699WAT     H235340   3.011   6.035   6.858
11700WAT      O35341   7.093   0.812   7.193
11700WAT     H135342   7.127   0.718   7.193
11700WAT     H235343   7.153   0.870   7.138
11701WAT      O35344   2.655   8.136   3.210
11701WAT     H135345   2.704   8.055   3.179
11701WAT     H235346   2.717   8.214   3.212
11702WAT      O35347   1.772   7.903   0.788
11702WAT     H135348   1.843   7.833   0.800
11702WAT     H235349   1.751   7.944   0.877
11703WAT      O35350   9.725   9.514   1.388
11703WAT     H135351   9.728   9.432   1.445
11703WAT     H235352   9.647   9.509   1.326
11704WAT      O35353   6.343   2.386   2.858
11704WAT     H135354   6.348   2.287   2.854
11704WAT     H235355   6.426   2.422   2.902
11705WAT      O35356   8.890   2.129   8.758
11705WAT     H135357   8.893   2.180   8.844
11705WAT     H235358   8.799   2.137   8.717
11706WAT      O35359   5.669   6.128   0.657
11706WAT     H135360   5.591   6.124   0.596
11706WAT     H235361   5.740   6.188   0.618
11707WAT      O35362   9.244   8.503   7.904
11707WAT     H135363   9.164   8.562   7.917
11707WAT     H235364   9.293   8.532   7.822
11708WAT      O35365   0.789   5.700   9.624
11708WAT     H135366   0.877   5.685   9.668
11708WAT     H235367   0.732   5.757   9.683
11709WAT      O35368   3.784   7.431   0.296
11709WAT     H135369   3.875   7.418   0.256
11709WAT     H235370   3.775   7.525   0.328
11710WAT      O35371   5.058   7.038   7.407
11710WAT     H135372   5.090   6.946   7.429
11710WAT     H235373   5.016   7.079   7.488
11711WAT      O35374   9.752   8.445   2.727
11711WAT     H135375   9.790   8.427   2.637
11711WAT     H235376   9.655   8.420   2.727
11712WAT      O35377   0.895   4.706   0.909
11712WAT     H135378   0.920   4.801   0.890
11712WAT     H235379   0.904   4.688   1.007
11713WAT      O35380   4.921   9.392   3.794
11713WAT     H135381   4.887   9.485   3.808
11713WAT     H235382   4.872   9.329   3.853
11714WAT      O35383   8.050   7.635   2.603
11714WAT     H135384   8.082   7.730   2.605
11714WAT     H235385   8.028   7.606   2.696
11715WAT      O35386   6.373   1.330   4.811
11715WAT     H135387   6.410   1.241   4.836
11715WAT     H235388   6.434   1.374   4.744
11716WAT      O35389   7.089   4.415   2.796
11716WAT     H135390   7.168   4.439   2.852
11716WAT     H235391   7.117   4.357   2.721
11717WAT      O35392   3.317   1.535   4.341
11717WAT     H135393   3.405   1.511   4.300
11717WAT     H235394   3.244   1.514   4.276
11718WAT      O35395   7.788   0.216   5.590
11718WAT     H135396   7.742   0.162   5.519
11718WAT     H235397   7.801   0.309   5.556
11719WAT      O35398   3.659   6.722   3.638
11719WAT     H135399   3.747   6.744   3.596
11719WAT     H235400   3.599   6.681   3.570
11720WAT      O35401   6.303   5.152   6.150
11720WAT     H135402   6.349   5.130   6.064
11720WAT     H235403   6.365   5.205   6.209
11721WAT      O35404   8.064   3.306   6.207
11721WAT     H135405   8.079   3.254   6.123
11721WAT     H235406   8.153   3.327   6.250
11722WAT      O35407   4.558   9.584   3.323
11722WAT     H135408   4.609   9.589   3.409
11722WAT     H235409   4.616   9.543   3.252
11723WAT      O35410   6.661   6.580   7.429
11723WAT     H135411   6.588   6.512   7.428
11723WAT     H235412   6.748   6.536   7.449
11724WAT      O35413   7.432   7.617   0.048
11724WAT     H135414   7.428   7.702   0.100
11724WAT     H235415   7.348   7.565   0.062
11725WAT      O35416   2.033   9.245   5.115
11725WAT     H135417   2.058   9.259   5.211
11725WAT     H235418   1.983   9.158   5.107
11726WAT      O35419   2.902   3.270   1.101
11726WAT     H135420   2.888   3.301   1.195
11726WAT     H235421   2.815   3.270   1.052
11727WAT      O35422   9.500   4.855   5.338
11727WAT     H135423   9.466   4.949   5.331
11727WAT     H235424   9.515   4.817   5.247
11728WAT      O35425   7.928   8.349   3.252
11728WAT     H135426   7.879   8.313   3.173
11728WAT     H235427   7.998   8.413   3.222
11729WAT      O35428   1.782   1.808   1.195
11729WAT     H135429   1.798   1.880   1.263
11729WAT     H235430   1.753   1.850   1.109
11730WAT      O35431   3.117   7.421   9.686
11730WAT     H135432   3.194   7.436   9.624
11730WAT     H235433   3.141   7.455   9.777
11731WAT      O35434   3.413   0.044   2.993
11731WAT     H135435   3.507   0.011   2.989
11731WAT     H235436   3.405   0.113   3.065
11732WAT      O35437   5.924   7.475   9.257
11732WAT     H135438   6.015   7.451   9.223
11732WAT     H235439   5.873   7.523   9.185
11733WAT      O35440   8.798   3.586   2.041
11733WAT     H135441   8.769   3.598   1.946
11733WAT     H235442   8.718   3.578   2.099
11734WAT      O35443   7.278   5.656   7.012
11734WAT     H135444   7.266   5.649   6.913
11734WAT     H235445   7.374   5.640   7.035
11735WAT      O35446   6.388   2.447   9.420
11735WAT     H135447   6.342   2.455   9.332
11735WAT     H235448   6.410   2.538   9.456
11736WAT      O35449   2.145   7.964   4.886
11736WAT     H135450   2.065   7.921   4.845
11736WAT     H235451   2.198   7.895   4.935
11737WAT      O35452   9.104   8.563   1.356
11737WAT     H135453   9.083   8.561   1.454
11737WAT     H235454   9.019   8.554   1.304
11738WAT      O35455   9.025   3.561   9.715
11738WAT     H135456   9.084   3.641   9.706
11738WAT     H235457   9.061   3.501   9.787
11739WAT      O35458   0.601   0.995   6.672
11739WAT     H135459   0.640   0.920   6.618
11739WAT     H235460   0.519   0.963   6.719
11740WAT      O35461   9.253   6.597   5.411
11740WAT     H135462   9.242   6.630   5.505
11740WAT     H235463   9.247   6.675   5.348
11741WAT      O35464   0.239   4.190   4.342
11741WAT     H135465   0.170   4.227   4.279
11741WAT     H235466   0.261   4.096   4.316
11742WAT      O35467   1.622   6.282   3.740
11742WAT     H135468   1.569   6.224   3.802
11742WAT     H235469   1.651   6.365   3.788
11743WAT      O35470   7.938   7.516   0.566
11743WAT     H135471   7.892   7.461   0.635
11743WAT     H235472   7.904   7.492   0.475
11744WAT      O35473   9.204   1.826   8.993
11744WAT     H135474   9.295   1.789   9.011
11744WAT     H235475   9.151   1.761   8.939
11745WAT      O35476   1.613   6.326   0.669
11745WAT     H135477   1.558   6.347   0.588
11745WAT     H235478   1.554   6.315   0.748
11746WAT      O35479   6.460   6.699   9.277
11746WAT     H135480   6.556   6.716   9.255
11746WAT     H235481   6.409   6.679   9.193
11747WAT      O35482   2.405   0.100   2.025
11747WAT     H135483   2.330   0.085   1.962
11747WAT     H235484   2.379   0.069   2.117
11748WAT      O35485   9.178   4.558   4.875
11748WAT     H135486   9.116   4.635   4.858
11748WAT     H235487   9.149   4.510   4.958
11749WAT      O35488   6.526   6.353   4.882
11749WAT     H135489   6.488   6.275   4.932
11749WAT     H235490   6.624   6.338   4.867
11750WAT      O35491   3.565   8.633   0.773
11750WAT     H135492   3.518   8.642   0.860
11750WAT     H235493   3.633   8.559   0.779
11751WAT      O35494   7.627   9.623   9.281
11751WAT     H135495   7.652   9.540   9.231
11751WAT     H235496   7.561   9.675   9.228
11752WAT      O35497   3.596   8.736   1.805
11752WAT     H135498   3.539   8.793   1.746
11752WAT     H235499   3.571   8.640   1.793
11753WAT      O35500   6.884   6.643   5.099
11753WAT     H135501   6.902   6.573   5.168
11753WAT     H235502   6.950   6.717   5.108
11754WAT      O35503   1.907   0.031   3.879
11754WAT     H135504   1.958  -0.053   3.890
11754WAT     H235505   1.899   0.054   3.782
11755WAT      O35506   0.843   8.123   1.331
11755WAT     H135507   0.869   8.029   1.351
11755WAT     H235508   0.926   8.179   1.323
11756WAT      O35509   7.336   2.416   6.814
11756WAT     H135510   7.291   2.425   6.726
11756WAT     H235511   7.345   2.319   6.838
11757WAT      O35512   0.278   1.958   7.387
11757WAT     H135513   0.346   1.886   7.401
11757WAT     H235514   0.214   1.959   7.463
11758WAT      O35515   8.215   1.041   7.533
11758WAT     H135516   8.144   1.110   7.517
11758WAT     H235517   8.180   0.973   7.597
11759WAT      O35518   3.118   9.562   0.181
11759WAT     H135519   3.042   9.625   0.198
11759WAT     H235520   3.099   9.475   0.226
11760WAT      O35521   0.552   1.478   0.039
11760WAT     H135522   0.545   1.380   0.024
11760WAT     H235523   0.647   1.503   0.057
11761WAT      O35524   0.595   7.999   4.302
11761WAT     H135525   0.616   7.910   4.342
11761WAT     H235526   0.498   8.003   4.278
11762WAT      O35527   4.385   8.822   9.127
11762WAT     H135528   4.413   8.796   9.035
11762WAT     H235529   4.427   8.760   9.194
11763WAT      O35530   2.376   1.540   8.535
11763WAT     H135531   2.283   1.526   8.570
11763WAT     H235532   2.428   1.593   8.602
11764WAT      O35533   1.359   5.978   3.386
11764WAT     H135534   1.315   6.050   3.439
11764WAT     H235535   1.439   5.944   3.436
11765WAT      O35536   7.411   6.509   0.161
11765WAT     H135537   7.403   6.417   0.122
11765WAT     H235538   7.463   6.567   0.098
11766WAT      O35539   6.593   4.154   9.746
11766WAT     H135540   6.574   4.198   9.834
11766WAT     H235541   6.647   4.215   9.689
11767WAT      O35542   8.807   9.353   3.397
11767WAT     H135543   8.901   9.320   3.399
11767WAT     H235544   8.771   9.355   3.490
11768WAT      O35545   0.925   1.027   6.352
11768WAT     H135546   0.910   1.017   6.450
11768WAT     H235547   0.839   1.052   6.307
11769WAT      O35548   6.022   6.719   3.167
11769WAT     H135549   6.050   6.756   3.078
11769WAT     H235550   6.096   6.661   3.203
11770WAT      O35551   2.253   0.106   3.839
11770WAT     H135552   2.254   0.025   3.780
11770WAT     H235553   2.260   0.189   3.782
11771WAT      O35554   5.404   3.424   6.897
11771WAT     H135555   5.412   3.487   6.819
11771WAT     H235556   5.309   3.419   6.926
11772WAT      O35557   6.297   5.358   8.183
11772WAT     H135558   6.248   5.271   8.176
11772WAT     H235559   6.230   5.433   8.183
11773WAT      O35560   8.910   4.354   6.534
11773WAT     H135561   8.859   4.405   6.465
11773WAT     H235562   8.995   4.402   6.556
11774WAT      O35563   2.282   8.006   5.683
11774WAT     H135564   2.291   8.025   5.780
11774WAT     H235565   2.213   8.066   5.643
11775WAT      O35566   4.319   9.779   2.025
11775WAT     H135567   4.304   9.680   2.022
11775WAT     H235568   4.417   9.797   2.035
11776WAT      O35569   7.075   7.252   1.687
11776WAT     H135570   7.148   7.219   1.628
11776WAT     H235571   7.019   7.318   1.637
11777WAT      O35572   9.628   9.740   5.407
11777WAT     H135573   9.608   9.819   5.466
11777WAT     H235574   9.591   9.756   5.316
11778WAT      O35575   9.528   5.420   1.894
11778WAT     H135576   9.570   5.408   1.984
11778WAT     H235577   9.566   5.502   1.850
11779WAT      O35578   2.703   8.778   9.634
11779WAT     H135579   2.645   8.839   9.580
11779WAT     H235580   2.647   8.728   9.700
11780WAT      O35581   2.614   1.820   1.853
11780WAT     H135582   2.598   1.913   1.885
11780WAT     H235583   2.712   1.807   1.836
11781WAT      O35584   7.131   5.139   9.848
11781WAT     H135585   7.056   5.131   9.914
11781WAT     H235586   7.191   5.215   9.875
11782WAT      O35587   0.023   4.379   6.473
11782WAT     H135588  -0.021   4.346   6.389
11782WAT     H235589  -0.021   4.464   6.501
11783WAT      O35590   7.682   4.750   6.260
11783WAT     H135591   7.707   4.671   6.316
11783WAT     H235592   7.608   4.724   6.198
11784WAT      O35593   2.392   9.540   4.963
11784WAT     H135594   2.350   9.457   4.927
11784WAT     H235595   2.405   9.532   5.061
11785WAT      O35596   8.369   6.845   2.290
11785WAT     H135597   8.377   6.823   2.193
11785WAT     H235598   8.448   6.901   2.317
11786WAT      O35599   6.781   0.220   5.045
11786WAT     H135600   6.753   0.205   4.951
11786WAT     H235601   6.845   0.298   5.049
11787WAT      O35602   8.581   7.776   2.271
11787WAT     H135603   8.501   7.818   2.312
11787WAT     H235604   8.636   7.731   2.342
11788WAT      O35605   0.749   0.800   4.951
11788WAT     H135606   0.748   0.895   4.921
11788WAT     H235607   0.840   0.777   4.984
11789WAT      O35608   9.351   9.108   5.459
11789WAT     H135609   9.418   9.119   5.386
11789WAT     H235610   9.342   9.194   5.509
11790WAT      O35611   4.231   9.775   3.378
11790WAT     H135612   4.327   9.802   3.387
11790WAT     H235613   4.203   9.721   3.457
11791WAT      O35614   8.784   4.671   7.529
11791WAT     H135615   8.763   4.660   7.432
11791WAT     H235616   8.734   4.602   7.582
11792WAT      O35617   8.236   5.066   2.506
11792WAT     H135618   8.333   5.068   2.483
11792WAT     H235619   8.189   5.143   2.462
11793WAT      O35620   8.323   4.818   9.122
11793WAT     H135621   8.228   4.849   9.122
11793WAT     H235622   8.382   4.890   9.158
11794WAT      O35623   5.386   9.773   9.284
11794WAT     H135624   5.332   9.777   9.368
11794WAT     H235625   5.473   9.727   9.303
11795WAT      O35626   0.695   5.332   2.821
11795WAT     H135627   0.718   5.311   2.726
11795WAT     H235628   0.734   5.420   2.846
11796WAT      O35629   2.756   5.898   6.129
11796WAT     H135630   2.740   5.840   6.208
11796WAT     H235631   2.669   5.929   6.091
11797WAT      O35632   7.268   5.544   3.986
11797WAT     H135633   7.292   5.642   3.985
11797WAT     H235634   7.351   5.490   4.003
11798WAT      O35635   1.993   2.118   5.964
11798WAT     H135636   2.038   2.090   6.048
11798WAT     H235637   2.033   2.204   5.932
11799WAT      O35638   1.966   3.810   6.635
11799WAT     H135639   1.949   3.875   6.562
11799WAT     H235640   1.892   3.744   6.639
11800WAT      O35641   7.887   0.502   8.550
11800WAT     H135642   7.960   0.522   8.615
11800WAT     H235643   7.894   0.408   8.519
11801WAT      O35644   2.059   8.948   2.516
11801WAT     H135645   2.158   8.934   2.508
11801WAT     H235646   2.018   8.953   2.425
11802WAT      O35647   0.296   2.842   4.523
11802WAT     H135648   0.270   2.746   4.523
11802WAT     H235649   0.221   2.897   4.486
11803WAT      O35650   1.769   5.471   9.642
11803WAT     H135651   1.695   5.430   9.589
11803WAT     H235652   1.739   5.559   9.679
11804WAT      O35653   6.755   6.484   6.070
11804WAT     H135654   6.746   6.435   5.983
11804WAT     H235655   6.838   6.454   6.117
11805WAT      O35656   3.400   5.346   6.281
11805WAT     H135657   3.435   5.308   6.366
11805WAT     H235658   3.473   5.352   6.214
11806WAT      O35659   7.813   8.033   6.344
11806WAT     H135660   7.720   8.008   6.318
11806WAT     H235661   7.853   7.961   6.400
11807WAT      O35662   0.792   8.706   7.316
11807WAT     H135663   0.862   8.755   7.264
11807WAT     H235664   0.791   8.739   7.411
11808WAT      O35665   1.790   3.393   3.240
11808WAT     H135666   1.754   3.482   3.215
11808WAT     H235667   1.744   3.321   3.188
11809WAT      O35668   2.942   6.077   4.817
11809WAT     H135669   2.962   6.018   4.896
11809WAT     H235670   2.858   6.128   4.835
11810WAT      O35671   1.066   4.901   9.624
11810WAT     H135672   1.144   4.908   9.563
11810WAT     H235673   1.040   4.992   9.657
11811WAT      O35674   1.765   1.349   6.172
11811WAT     H135675   1.811   1.432   6.139
11811WAT     H235676   1.824   1.303   6.238
11812WAT      O35677   9.188   7.129   8.586
11812WAT     H135678   9.121   7.185   8.537
11812WAT     H235679   9.251   7.088   8.520
11813WAT      O35680   4.892   8.454   6.432
11813WAT     H135681   4.806   8.504   6.430
11813WAT     H235682   4.962   8.511   6.475
11814WAT      O35683   5.433   0.440   1.196
11814WAT     H135684   5.428   0.407   1.290
11814WAT     H235685   5.346   0.426   1.150
11815WAT      O35686   6.802   1.544   6.972
11815WAT     H135687   6.873   1.564   7.040
11815WAT     H235688   6.825   1.590   6.886
11816WAT      O35689   4.661   7.032   6.785
11816WAT     H135690   4.702   7.100   6.724
11816WAT     H235691   4.625   6.957   6.730
11817WAT      O35692   7.838   4.554   6.370
11817WAT     H135693   7.802   4.466   6.340
11817WAT     H235694   7.915   4.539   6.431
11818WAT      O35695   0.269   8.083   4.514
11818WAT     H135696   0.366   8.105   4.523
11818WAT     H235697   0.220   8.164   4.481
11819WAT      O35698   0.707   6.371   4.655
11819WAT     H135699   0.699   6.407   4.562
11819WAT     H235700   0.724   6.272   4.651
11820WAT      O35701   8.405   5.596   1.966
11820WAT     H135702   8.310   5.612   1.991
11820WAT     H235703   8.410   5.552   1.877
11821WAT      O35704   0.593   6.466   7.207
11821WAT     H135705   0.675   6.515   7.177
11821WAT     H235706   0.526   6.464   7.132
11822WAT      O35707   1.459   2.778   2.417
11822WAT     H135708   1.534   2.725   2.456
11822WAT     H235709   1.429   2.736   2.331
11823WAT      O35710   9.287   2.810   6.151
11823WAT     H135711   9.337   2.897   6.148
11823WAT     H235712   9.209   2.819   6.213
11824WAT      O35713   6.146   7.327   6.203
11824WAT     H135714   6.076   7.381   6.156
11824WAT     H235715   6.209   7.287   6.136
11825WAT      O35716   5.069   2.353   4.404
11825WAT     H135717   4.983   2.354   4.353
11825WAT     H235718   5.127   2.429   4.373
11826WAT      O35719   5.846   0.365   2.073
11826WAT     H135720   5.873   0.341   1.980
11826WAT     H235721   5.866   0.289   2.135
11827WAT      O35722   4.182   8.570   0.198
11827WAT     H135723   4.123   8.507   0.247
11827WAT     H235724   4.192   8.540   0.103
11828WAT      O35725   6.346   0.430   7.130
11828WAT     H135726   6.429   0.385   7.097
11828WAT     H235727   6.298   0.369   7.194
11829WAT      O35728   4.988   6.651   9.595
11829WAT     H135729   4.942   6.687   9.675
11829WAT     H235730   5.081   6.623   9.619
11830WAT      O35731   4.323   1.880   9.604
11830WAT     H135732   4.255   1.857   9.674
11830WAT     H235733   4.414   1.882   9.645
11831WAT      O35734   7.334   4.461   2.956
11831WAT     H135735   7.365   4.400   2.883
11831WAT     H235736   7.317   4.408   3.039
11832WAT      O35737   5.252   1.647   4.648
11832WAT     H135738   5.160   1.611   4.635
11832WAT     H235739   5.248   1.729   4.705
11833WAT      O35740   0.416   7.828   5.293
11833WAT     H135741   0.480   7.871   5.229
11833WAT     H235742   0.332   7.803   5.245
11834WAT      O35743   8.272   8.425   4.228
11834WAT     H135744   8.319   8.468   4.150
11834WAT     H235745   8.275   8.487   4.306
11835WAT      O35746   9.162   3.607   9.096
11835WAT     H135747   9.204   3.679   9.042
11835WAT     H235748   9.197   3.609   9.189
11836WAT      O35749   8.788   8.731   3.237
11836WAT     H135750   8.872   8.783   3.252
11836WAT     H235751   8.809   8.633   3.238
11837WAT      O35752   5.733   4.025   2.355
11837WAT     H135753   5.779   3.940   2.382
11837WAT     H235754   5.703   4.074   2.437
11838WAT      O35755   2.998   0.304   9.557
11838WAT     H135756   3.089   0.263   9.550
11838WAT     H235757   3.001   0.380   9.623
11839WAT      O35758   2.026   8.097   5.301
11839WAT     H135759   1.958   8.114   5.373
11839WAT     H235760   2.112   8.141   5.325
11840WAT      O35761   2.945   1.103   6.672
11840WAT     H135762   2.894   1.071   6.593
11840WAT     H235763   2.994   1.186   6.648
11841WAT      O35764   1.785   9.773   8.392
11841WAT     H135765   1.859   9.752   8.327
11841WAT     H235766   1.749   9.864   8.373
11842WAT      O35767   4.041   0.219   3.860
11842WAT     H135768   4.099   0.138   3.846
11842WAT     H235769   3.984   0.206   3.941
11843WAT      O35770   5.543   9.248   2.107
11843WAT     H135771   5.598   9.166   2.092
11843WAT     H235772   5.576   9.295   2.189
11844WAT      O35773   0.878   0.776   1.955
11844WAT     H135774   0.842   0.770   1.862
11844WAT     H235775   0.940   0.854   1.962
11845WAT      O35776   7.120   0.885   2.654
11845WAT     H135777   7.103   0.931   2.742
11845WAT     H235778   7.109   0.787   2.666
11846WAT      O35779   6.510   0.808   5.583
11846WAT     H135780   6.463   0.874   5.524
11846WAT     H235781   6.584   0.854   5.632
11847WAT      O35782   2.951   1.090   8.103
11847WAT     H135783   2.981   1.058   8.013
11847WAT     H235784   2.930   1.011   8.160
11848WAT      O35785   8.323   2.485   4.134
11848WAT     H135786   8.339   2.387   4.125
11848WAT     H235787   8.392   2.525   4.194
11849WAT      O35788   1.134   4.566   0.402
11849WAT     H135789   1.138   4.480   0.452
11849WAT     H235790   1.207   4.627   0.435
11850WAT      O35791   6.948   6.333   0.043
11850WAT     H135792   6.886   6.405   0.073
11850WAT     H235793   6.902   6.245   0.049
11851WAT      O35794   5.917   9.655   6.875
11851WAT     H135795   5.924   9.558   6.849
11851WAT     H235796   5.874   9.706   6.801
11852WAT      O35797   9.744   0.058   4.641
11852WAT     H135798   9.676   0.099   4.703
11852WAT     H235799   9.792   0.130   4.592
11853WAT      O35800   4.437   2.591   1.574
11853WAT     H135801   4.507   2.584   1.503
11853WAT     H235802   4.482   2.600   1.663
11854WAT      O35803   1.577   6.793   9.525
11854WAT     H135804   1.612   6.848   9.449
11854WAT     H235805   1.554   6.702   9.492
11855WAT      O35806   3.669   7.000   2.803
11855WAT     H135807   3.698   7.082   2.755
11855WAT     H235808   3.748   6.943   2.825
11856WAT      O35809   5.793   7.161   8.565
11856WAT     H135810   5.783   7.256   8.596
11856WAT     H235811   5.708   7.131   8.522
11857WAT      O35812   0.004   6.150   3.907
11857WAT     H135813  -0.078   6.199   3.937
11857WAT     H235814   0.020   6.072   3.968
11858WAT      O35815   8.709   9.091   1.620
11858WAT     H135816   8.701   9.190   1.608
11858WAT     H235817   8.637   9.059   1.683
11859WAT      O35818   2.288   9.266   2.552
11859WAT     H135819   2.325   9.179   2.586
11859WAT     H235820   2.189   9.259   2.542
11860WAT      O35821   8.887   4.856   0.349
11860WAT     H135822   8.973   4.907   0.353
11860WAT     H235823   8.855   4.839   0.442
11861WAT      O35824   8.207   6.967   9.612
11861WAT     H135825   8.295   7.013   9.600
11861WAT     H235826   8.143   6.997   9.542
11862WAT      O35827   4.139   3.659   7.020
11862WAT     H135828   4.101   3.620   7.104
11862WAT     H235829   4.227   3.701   7.040
11863WAT      O35830   2.526   0.145   9.414
11863WAT     H135831   2.515   0.064   9.472
11863WAT     H235832   2.506   0.227   9.468
11864WAT      O35833   1.605   2.654   0.402
11864WAT     H135834   1.672   2.729   0.408
11864WAT     H235835   1.549   2.654   0.485
11865WAT      O35836   2.534   8.793   0.488
11865WAT     H135837   2.554   8.870   0.549
11865WAT     H235838   2.447   8.810   0.441
11866WAT      O35839   1.853   7.407   3.822
11866WAT     H135840   1.840   7.436   3.727
11866WAT     H235841   1.809   7.318   3.836
11867WAT      O35842   7.692   4.311   8.113
11867WAT     H135843   7.612   4.274   8.161
11867WAT     H235844   7.732   4.239   8.056
11868WAT      O35845   5.922   2.099   3.093
11868WAT     H135846   5.940   2.198   3.093
11868WAT     H235847   5.902   2.069   3.186
11869WAT      O35848   6.115   1.123   5.238
11869WAT     H135849   6.148   1.159   5.151
11869WAT     H235850   6.157   1.172   5.314
11870WAT      O35851   1.414   8.983   8.887
11870WAT     H135852   1.372   9.072   8.869
11870WAT     H235853   1.412   8.927   8.804
11871WAT      O35854   3.253   0.422   7.500
11871WAT     H135855   3.247   0.512   7.543
11871WAT     H235856   3.346   0.409   7.464
11872WAT      O35857   4.464   9.269   9.040
11872WAT     H135858   4.475   9.269   8.941
11872WAT     H235859   4.498   9.182   9.077
11873WAT      O35860   2.405   9.805   6.089
11873WAT     H135861   2.433   9.896   6.118
11873WAT     H235862   2.424   9.740   6.163
11874WAT      O35863   7.349   1.604   2.359
11874WAT     H135864   7.284   1.612   2.283
11874WAT     H235865   7.443   1.603   2.323
11875WAT      O35866   6.039   4.105   9.536
11875WAT     H135867   6.042   4.037   9.610
11875WAT     H235868   6.133   4.131   9.511
11876WAT      O35869   9.793   7.085   2.890
11876WAT     H135870   9.731   7.027   2.943
11876WAT     H235871   9.740   7.156   2.844
11877WAT      O35872   9.140   6.192   9.797
11877WAT     H135873   9.165   6.110   9.747
11877WAT     H235874   9.117   6.266   9.733
11878WAT      O35875   8.178   5.406   0.152
11878WAT     H135876   8.203   5.414   0.249
11878WAT     H235877   8.087   5.364   0.145
11879WAT      O35878   4.990   8.852   0.499
11879WAT     H135879   4.937   8.836   0.583
11879WAT     H235880   5.002   8.950   0.485
11880WAT      O35881   4.225   2.710   8.762
11880WAT     H135882   4.205   2.629   8.706
11880WAT     H235883   4.143   2.736   8.814
11881WAT      O35884   9.636   4.282   3.579
11881WAT     H135885   9.566   4.286   3.651
11881WAT     H235886   9.625   4.197   3.528
11882WAT      O35887   1.118   1.587   5.559
11882WAT     H135888   1.185   1.537   5.614
11882WAT     H235889   1.160   1.671   5.523
11883WAT      O35890   3.480   6.946   4.225
11883WAT     H135891   3.455   6.926   4.320
11883WAT     H235892   3.399   6.980   4.176
11884WAT      O35893   0.853   7.604   7.622
11884WAT     H135894   0.931   7.662   7.647
11884WAT     H235895   0.884   7.532   7.560
11885WAT      O35896   6.265   3.656   8.486
11885WAT     H135897   6.170   3.668   8.514
11885WAT     H235898   6.308   3.746   8.474
11886WAT      O35899   1.523   2.134   4.435
11886WAT     H135900   1.442   2.104   4.384
11886WAT     H235901   1.597   2.155   4.370
11887WAT      O35902   2.745   0.459   1.275
11887WAT     H135903   2.671   0.526   1.279
11887WAT     H235904   2.805   0.481   1.198
11888WAT      O35905   0.475   9.737   7.773
11888WAT     H135906   0.395   9.736   7.834
11888WAT     H235907   0.445   9.756   7.680
11889WAT      O35908   7.615   7.954   6.601
11889WAT     H135909   7.539   7.896   6.572
11889WAT     H235910   7.684   7.898   6.646
11890WAT      O35911   1.834   4.042   8.892
11890WAT     H135912   1.841   4.139   8.916
11890WAT     H235913   1.812   3.989   8.973
11891WAT      O35914   3.679   7.893   7.242
11891WAT     H135915   3.598   7.872   7.297
11891WAT     H235916   3.758   7.906   7.303
11892WAT      O35917   8.891   2.905   2.722
11892WAT     H135918   8.793   2.884   2.725
11892WAT     H235919   8.943   2.826   2.756
11893WAT      O35920   0.075   6.037   2.326
11893WAT     H135921   0.019   6.072   2.251
11893WAT     H235922   0.168   6.070   2.317
11894WAT      O35923   4.368   8.455   0.563
11894WAT     H135924   4.282   8.504   0.547
11894WAT     H235925   4.356   8.359   0.538
11895WAT      O35926   0.394   1.192   1.680
11895WAT     H135927   0.301   1.229   1.678
11895WAT     H235928   0.400   1.123   1.753
11896WAT      O35929   8.215   1.944   6.570
11896WAT     H135930   8.264   1.987   6.494
11896WAT     H235931   8.243   1.985   6.656
11897WAT      O35932   5.594   6.421   4.433
11897WAT     H135933   5.601   6.401   4.335
11897WAT     H235934   5.660   6.365   4.483
11898WAT      O35935   4.527   8.534   5.423
11898WAT     H135936   4.576   8.454   5.457
11898WAT     H235937   4.483   8.512   5.336
11899WAT      O35938   7.400   4.581   6.882
11899WAT     H135939   7.479   4.563   6.824
11899WAT     H235940   7.336   4.504   6.876
11900WAT      O35941   1.037   9.172   2.363
11900WAT     H135942   1.066   9.085   2.402
11900WAT     H235943   1.086   9.247   2.408
11901WAT      O35944   2.099   1.222   0.874
11901WAT     H135945   2.078   1.304   0.820
11901WAT     H235946   2.169   1.168   0.826
11902WAT      O35947   7.508   2.730   1.899
11902WAT     H135948   7.533   2.717   1.995
11902WAT     H235949   7.470   2.822   1.886
11903WAT      O35950   3.236   0.415   4.168
11903WAT     H135951   3.243   0.458   4.078
11903WAT     H235952   3.146   0.433   4.207
11904WAT      O35953   8.204   7.541   3.113
11904WAT     H135954   8.276   7.496   3.059
11904WAT     H235955   8.219   7.520   3.210
11905WAT      O35956   3.726   8.843   0.378
11905WAT     H135957   3.764   8.877   0.292
11905WAT     H235958   3.627   8.832   0.369
11906WAT      O35959   4.779   4.240   2.403
11906WAT     H135960   4.789   4.160   2.463
11906WAT     H235961   4.863   4.252   2.350
11907WAT      O35962   4.395   3.937   8.580
11907WAT     H135963   4.353   3.954   8.669
11907WAT     H235964   4.478   3.991   8.572
11908WAT      O35965   3.962   5.364   7.010
11908WAT     H135966   4.023   5.364   6.931
11908WAT     H235967   4.015   5.357   7.094
11909WAT      O35968   0.848   1.055   2.215
11909WAT     H135969   0.779   1.000   2.261
11909WAT     H235970   0.804   1.125   2.159
11910WAT      O35971   7.625   5.232   3.602
11910WAT     H135972   7.560   5.264   3.671
11910WAT     H235973   7.709   5.286   3.608
11911WAT      O35974   4.892   2.789   4.284
11911WAT     H135975   4.973   2.847   4.272
11911WAT     H235976   4.811   2.847   4.290
11912WAT      O35977   5.401   7.021   3.643
11912WAT     H135978   5.331   7.081   3.603
11912WAT     H235979   5.438   6.961   3.572
11913WAT      O35980   1.052   5.760   5.942
11913WAT     H135981   1.011   5.740   6.031
11913WAT     H235982   1.140   5.715   5.935
11914WAT      O35983   9.401   2.654   5.161
11914WAT     H135984   9.483   2.601   5.138
11914WAT     H235985   9.350   2.675   5.078
11915WAT      O35986   1.968   8.715   5.888
11915WAT     H135987   2.031   8.647   5.851
11915WAT     H235988   1.893   8.729   5.823
11916WAT      O35989   4.090   7.738   9.257
11916WAT     H135990   4.087   7.821   9.202
11916WAT     H235991   4.028   7.670   9.220
11917WAT      O35992   6.117   6.474   8.722
11917WAT     H135993   6.031   6.430   8.748
11917WAT     H235994   6.097   6.554   8.666
11918WAT      O35995   1.362   9.434   8.664
11918WAT     H135996   1.269   9.430   8.627
11918WAT     H235997   1.427   9.446   8.589
11919WAT      O35998   7.861   1.826   2.721
11919WAT     H135999   7.785   1.763   2.735
11919WAT     H236000   7.834   1.897   2.656
11920WAT      O36001   2.631   9.089   4.687
11920WAT     H136002   2.576   9.039   4.620
11920WAT     H236003   2.697   9.147   4.639
11921WAT      O36004   1.416   5.012   4.888
11921WAT     H136005   1.440   4.920   4.921
11921WAT     H236006   1.368   5.005   4.801
11922WAT      O36007   4.988   5.313   7.467
11922WAT     H136008   4.941   5.367   7.537
11922WAT     H236009   4.996   5.218   7.499
11923WAT      O36010   4.676   5.192   5.895
11923WAT     H136011   4.738   5.185   5.816
11923WAT     H236012   4.597   5.132   5.881
11924WAT      O36013   1.277   7.834   1.574
11924WAT     H136014   1.296   7.931   1.593
11924WAT     H236015   1.225   7.795   1.650
11925WAT      O36016   2.127   5.595   4.745
11925WAT     H136017   2.188   5.577   4.822
11925WAT     H236018   2.125   5.516   4.684
11926WAT      O36019   0.366   6.253   2.042
11926WAT     H136020   0.357   6.330   1.977
11926WAT     H236021   0.428   6.185   2.004
11927WAT      O36022   9.564   7.060   7.580
11927WAT     H136023   9.504   7.140   7.589
11927WAT     H236024   9.514   6.978   7.605
11928WAT      O36025   2.197   0.147   9.705
11928WAT     H136026   2.276   0.194   9.744
11928WAT     H236027   2.120   0.210   9.698
11929WAT      O36028   3.604   6.637   6.281
11929WAT     H136029   3.644   6.568   6.342
11929WAT     H236030   3.591   6.722   6.331
11930WAT      O36031   8.467   2.357   8.486
11930WAT     H136032   8.420   2.271   8.508
11930WAT     H236033   8.526   2.343   8.406
11931WAT      O36034   8.341   3.146   4.362
11931WAT     H136035   8.384   3.059   4.388
11931WAT     H236036   8.375   3.174   4.273
11932WAT      O36037   6.231   8.475   4.465
11932WAT     H136038   6.132   8.484   4.454
11932WAT     H236039   6.257   8.378   4.459
11933WAT      O36040   7.250   0.070   8.804
11933WAT     H136041   7.335   0.116   8.829
11933WAT     H236042   7.213   0.023   8.884
11934WAT      O36043   3.796   4.911   6.029
11934WAT     H136044   3.697   4.915   6.021
11934WAT     H236045   3.833   5.004   6.033
11935WAT      O36046   4.039   9.256   2.302
11935WAT     H136047   4.055   9.174   2.247
11935WAT     H236048   4.024   9.229   2.397
11936WAT      O36049   3.076   6.815   8.949
11936WAT     H136050   3.090   6.787   8.854
11936WAT     H236051   3.118   6.905   8.964
11937WAT      O36052   5.783   3.536   7.038
11937WAT     H136053   5.753   3.538   7.134
11937WAT     H236054   5.703   3.523   6.979
11938WAT      O36055   7.320   2.125   3.988
11938WAT     H136056   7.278   2.169   4.068
11938WAT     H236057   7.333   2.027   4.008
11939WAT      O36058   8.745   6.619   6.769
11939WAT     H136059   8.671   6.621   6.701
11939WAT     H236060   8.708   6.645   6.859
11940WAT      O36061   3.732   0.780   8.976
11940WAT     H136062   3.800   0.711   8.949
11940WAT     H236063   3.641   0.739   8.972
11941WAT      O36064   1.342   9.133   7.679
11941WAT     H136065   1.326   9.213   7.737
11941WAT     H236066   1.258   9.109   7.632
11942WAT      O36067   8.481   9.194   5.662
11942WAT     H136068   8.468   9.259   5.737
11942WAT     H236069   8.579   9.175   5.651
11943WAT      O36070   7.947   3.788   5.208
11943WAT     H136071   7.885   3.855   5.168
11943WAT     H236072   7.970   3.815   5.302
11944WAT      O36073   3.273   0.817   5.460
11944WAT     H136074   3.175   0.820   5.480
11944WAT     H236075   3.288   0.820   5.362
11945WAT      O36076   3.979   9.509   2.215
11945WAT     H136077   3.934   9.497   2.126
11945WAT     H236078   4.000   9.419   2.254
11946WAT      O36079   8.284   4.725   7.450
11946WAT     H136080   8.338   4.773   7.518
11946WAT     H236081   8.338   4.650   7.411
11947WAT      O36082   6.459   1.792   1.715
11947WAT     H136083   6.555   1.801   1.687
11947WAT     H236084   6.419   1.883   1.722
11948WAT      O36085   5.572   0.132   9.064
11948WAT     H136086   5.599   0.226   9.043
11948WAT     H236087   5.473   0.123   9.050
11949WAT      O36088   0.204   2.707   3.869
11949WAT     H136089   0.259   2.638   3.915
11949WAT     H236090   0.116   2.669   3.844
11950WAT      O36091   4.383   5.190   3.912
11950WAT     H136092   4.287   5.181   3.937
11950WAT     H236093   4.439   5.139   3.977
11951WAT      O36094   9.706   3.235   6.156
11951WAT     H136095   9.709   3.158   6.092
11951WAT     H236096   9.799   3.259   6.184
11952WAT      O36097   4.921   7.643   5.020
11952WAT     H136098   4.874   7.691   4.947
11952WAT     H236099   5.004   7.599   4.984
11953WAT      O36100   7.526   0.699   1.039
11953WAT     H136101   7.617   0.730   1.010
11953WAT     H236102   7.534   0.646   1.124
11954WAT      O36103   2.442   7.483   4.889
11954WAT     H136104   2.397   7.429   4.960
11954WAT     H236105   2.378   7.501   4.815
11955WAT      O36106   7.613   0.440   8.304
11955WAT     H136107   7.527   0.393   8.283
11955WAT     H236108   7.654   0.400   8.386
11956WAT      O36109   6.099   7.514   5.667
11956WAT     H136110   6.161   7.531   5.590
11956WAT     H236111   6.117   7.580   5.739
11957WAT      O36112   2.212   2.967   6.542
11957WAT     H136113   2.281   2.901   6.512
11957WAT     H236114   2.212   2.972   6.642
11958WAT      O36115   5.124   2.753   7.245
11958WAT     H136116   5.055   2.725   7.312
11958WAT     H236117   5.206   2.785   7.293
11959WAT      O36118   6.474   8.766   9.498
11959WAT     H136119   6.484   8.865   9.511
11959WAT     H236120   6.421   8.749   9.415
11960WAT      O36121   3.164   2.593   0.094
11960WAT     H136122   3.107   2.514   0.070
11960WAT     H236123   3.160   2.607   0.193
11961WAT      O36124   7.175   5.335   0.982
11961WAT     H136125   7.249   5.276   1.014
11961WAT     H236126   7.092   5.315   1.034
11962WAT      O36127   1.937   2.901   0.094
11962WAT     H136128   1.926   2.805   0.118
11962WAT     H236129   1.990   2.909   0.009
11963WAT      O36130   1.751   2.814   2.764
11963WAT     H136131   1.845   2.800   2.796
11963WAT     H236132   1.748   2.895   2.705
11964WAT      O36133   0.813   8.408   2.770
11964WAT     H136134   0.819   8.344   2.848
11964WAT     H236135   0.809   8.356   2.685
11965WAT      O36136   9.816   2.930   5.300
11965WAT     H136137   9.910   2.917   5.270
11965WAT     H236138   9.758   2.948   5.220
11966WAT      O36139   9.508   0.115   5.535
11966WAT     H136140   9.500   0.161   5.446
11966WAT     H236141   9.554   0.177   5.600
11967WAT      O36142   3.226   7.784   6.250
11967WAT     H136143   3.157   7.849   6.220
11967WAT     H236144   3.282   7.757   6.172
11968WAT      O36145   5.452   9.752   5.278
11968WAT     H136146   5.518   9.691   5.323
11968WAT     H236147   5.502   9.819   5.224
11969WAT      O36148   1.234   7.273   1.924
11969WAT     H136149   1.176   7.251   1.846
11969WAT     H236150   1.218   7.206   1.997
11970WAT      O36151   9.862   6.632   3.114
11970WAT     H136152   9.789   6.568   3.091
11970WAT     H236153   9.898   6.673   3.030
11971WAT      O36154   9.019   7.288   8.456
11971WAT     H136155   8.952   7.271   8.528
11971WAT     H236156   8.980   7.350   8.388
11972WAT      O36157   6.843   8.805   7.069
11972WAT     H136158   6.757   8.756   7.084
11972WAT     H236159   6.920   8.744   7.088
11973WAT      O36160   9.786   4.074   2.163
11973WAT     H136161   9.877   4.090   2.202
11973WAT     H236162   9.719   4.129   2.212
11974WAT      O36163   7.404   1.295   7.304
11974WAT     H136164   7.430   1.212   7.354
11974WAT     H236165   7.321   1.277   7.251
11975WAT      O36166   8.075   0.750   0.826
11975WAT     H136167   8.058   0.769   0.729
11975WAT     H236168   8.080   0.837   0.876
11976WAT      O36169   2.865   5.157   1.170
11976WAT     H136170   2.819   5.071   1.194
11976WAT     H236171   2.899   5.152   1.077
11977WAT      O36172   1.589   6.847   2.489
11977WAT     H136173   1.529   6.924   2.466
11977WAT     H236174   1.672   6.852   2.432
11978WAT      O36175   6.090   1.459   6.553
11978WAT     H136176   6.181   1.463   6.593
11978WAT     H236177   6.095   1.480   6.455
11979WAT      O36178   8.794   3.099   4.361
11979WAT     H136179   8.831   3.023   4.414
11979WAT     H236180   8.834   3.185   4.393
11980WAT      O36181   9.839   4.250   9.634
11980WAT     H136182   9.802   4.291   9.717
11980WAT     H236183   9.815   4.153   9.631
11981WAT      O36184   6.671   9.621   8.769
11981WAT     H136185   6.698   9.679   8.846
11981WAT     H236186   6.584   9.653   8.731
11982WAT      O36187   3.185   3.931   6.139
11982WAT     H136188   3.247   3.945   6.062
11982WAT     H236189   3.237   3.936   6.225
11983WAT      O36190   4.300   2.816   3.594
11983WAT     H136191   4.353   2.804   3.510
11983WAT     H236192   4.263   2.727   3.623
11984WAT      O36193   5.638   8.467   5.944
11984WAT     H136194   5.610   8.382   5.989
11984WAT     H236195   5.560   8.529   5.938
11985WAT      O36196   4.318   1.289   0.956
11985WAT     H136197   4.291   1.224   1.027
11985WAT     H236198   4.386   1.352   0.993
11986WAT      O36199   9.237   6.957   6.091
11986WAT     H136200   9.327   6.912   6.085
11986WAT     H236201   9.246   7.052   6.063
11987WAT      O36202   6.099   2.990   5.650
11987WAT     H136203   6.010   2.982   5.607
11987WAT     H236204   6.134   2.898   5.672
11988WAT      O36205   5.861   1.691   8.870
11988WAT     H136206   5.809   1.609   8.893
11988WAT     H236207   5.882   1.742   8.953
11989WAT      O36208   5.277   0.542   3.398
11989WAT     H136209   5.215   0.583   3.331
11989WAT     H236210   5.225   0.483   3.460
11990WAT      O36211   9.865   1.984   3.655
11990WAT     H136212   9.929   1.911   3.631
11990WAT     H236213   9.783   1.944   3.696
11991WAT      O36214   2.039   0.603   1.431
11991WAT     H136215   2.052   0.659   1.513
11991WAT     H236216   2.082   0.514   1.445
11992WAT      O36217   3.655   8.049   9.715
11992WAT     H136218   3.741   8.000   9.715
11992WAT     H236219   3.671   8.146   9.697
11993WAT      O36220   9.273   0.606   6.435
11993WAT     H136221   9.230   0.524   6.397
11993WAT     H236222   9.209   0.652   6.496
11994WAT      O36223   5.122   9.727   7.595
11994WAT     H136224   5.140   9.635   7.629
11994WAT     H236225   5.041   9.764   7.640
11995WAT      O36226   2.749   1.087   8.490
11995WAT     H136227   2.649   1.089   8.491
11995WAT     H236228   2.781   1.006   8.538
11996WAT      O36229   4.029   8.059   5.525
11996WAT     H136230   4.109   8.116   5.546
11996WAT     H236231   3.982   8.095   5.444
11997WAT      O36232   6.280   4.134   3.506
11997WAT     H136233   6.344   4.211   3.504
11997WAT     H236234   6.325   4.054   3.546
11998WAT      O36235   8.091   8.488   6.319
11998WAT     H136236   8.022   8.554   6.347
11998WAT     H236237   8.154   8.530   6.254
11999WAT      O36238   3.312   1.437   2.084
11999WAT     H136239   3.381   1.466   2.017
11999WAT     H236240   3.358   1.388   2.159
12000WAT      O36241   3.534   8.442   7.127
12000WAT     H136242   3.463   8.426   7.059
12000WAT     H236243   3.522   8.380   7.204
12001WAT      O36244   6.207   9.432   8.904
12001WAT     H136245   6.280   9.413   8.970
12001WAT     H236246   6.125   9.381   8.929
12002WAT      O36247   0.642   0.799   4.370
12002WAT     H136248   0.661   0.733   4.296
12002WAT     H236249   0.654   0.892   4.335
12003WAT      O36250   6.205   5.510   9.075
12003WAT     H136251   6.204   5.580   9.148
12003WAT     H236252   6.144   5.435   9.100
12004WAT      O36253   2.334   8.679   6.767
12004WAT     H136254   2.314   8.664   6.670
12004WAT     H236255   2.409   8.618   6.795
12005WAT      O36256   1.170   0.195   3.205
12005WAT     H136257   1.265   0.221   3.186
12005WAT     H236258   1.108   0.255   3.154
12006WAT      O36259   5.348   2.030   6.000
12006WAT     H136260   5.366   1.955   5.936
12006WAT     H236261   5.433   2.082   6.015
12007WAT      O36262   2.449   4.292   8.822
12007WAT     H136263   2.498   4.237   8.754
12007WAT     H236264   2.353   4.299   8.795
12008WAT      O36265   8.508   5.027   2.620
12008WAT     H136266   8.500   4.984   2.710
12008WAT     H236267   8.484   5.124   2.627
12009WAT      O36268   3.068   3.937   5.663
12009WAT     H136269   3.041   4.028   5.692
12009WAT     H236270   2.996   3.871   5.687
12010WAT      O36271   8.168   5.488   4.954
12010WAT     H136272   8.160   5.487   4.855
12010WAT     H236273   8.077   5.498   4.995
12011WAT      O36274   0.627   3.010   8.849
12011WAT     H136275   0.696   3.018   8.777
12011WAT     H236276   0.664   2.954   8.924
12012WAT      O36277   5.214   3.464   4.712
12012WAT     H136278   5.200   3.413   4.627
12012WAT     H236279   5.230   3.560   4.691
12013WAT      O36280   8.748   4.960   3.648
12013WAT     H136281   8.682   4.969   3.722
12013WAT     H236282   8.709   4.997   3.564
12014WAT      O36283   5.348   3.472   0.457
12014WAT     H136284   5.362   3.405   0.385
12014WAT     H236285   5.398   3.555   0.436
12015WAT      O36286   9.698   1.559   5.015
12015WAT     H136287   9.627   1.515   5.070
12015WAT     H236288   9.758   1.490   4.976
12016WAT      O36289   0.157   1.326   7.802
12016WAT     H136290   0.214   1.316   7.720
12016WAT     H236291   0.187   1.260   7.871
12017WAT      O36292   7.058   3.801   1.577
12017WAT     H136293   7.027   3.706   1.569
12017WAT     H236294   7.033   3.837   1.666
12018WAT      O36295   0.805   7.090   1.735
12018WAT     H136296   0.710   7.110   1.757
12018WAT     H236297   0.812   7.059   1.640
12019WAT      O36298   9.317   5.535   8.128
12019WAT     H136299   9.337   5.581   8.215
12019WAT     H236300   9.320   5.436   8.142
12020WAT      O36301   8.959   3.469   8.998
12020WAT     H136302   8.987   3.377   8.969
12020WAT     H236303   9.037   3.516   9.040
12021WAT      O36304   1.894   1.762   7.909
12021WAT     H136305   1.832   1.763   7.831
12021WAT     H236306   1.842   1.775   7.993
12022WAT      O36307   0.456   5.630   5.168
12022WAT     H136308   0.447   5.633   5.267
12022WAT     H236309   0.547   5.663   5.141
12023WAT      O36310   9.357   0.815   8.080
12023WAT     H136311   9.291   0.740   8.080
12023WAT     H236312   9.312   0.899   8.048
12024WAT      O36313   1.539   7.193   5.431
12024WAT     H136314   1.486   7.262   5.480
12024WAT     H236315   1.601   7.238   5.367
12025WAT      O36316   3.555   5.134   9.555
12025WAT     H136317   3.595   5.057   9.605
12025WAT     H236318   3.624   5.206   9.544
12026WAT      O36319   7.002   1.658   5.617
12026WAT     H136320   7.005   1.737   5.556
12026WAT     H236321   6.912   1.615   5.612
12027WAT      O36322   1.067   6.782   6.813
12027WAT     H136323   1.119   6.723   6.751
12027WAT     H236324   1.128   6.852   6.851
12028WAT      O36325   2.409   8.364   0.503
12028WAT     H136326   2.452   8.443   0.547
12028WAT     H236327   2.323   8.343   0.549
12029WAT      O36328   4.438   4.598   8.122
12029WAT     H136329   4.475   4.663   8.189
12029WAT     H236330   4.430   4.508   8.165
12030WAT      O36331   4.792   3.212   3.415
12030WAT     H136332   4.869   3.166   3.460
12030WAT     H236333   4.805   3.311   3.420
12031WAT      O36334   2.578   4.168   8.090
12031WAT     H136335   2.594   4.098   8.020
12031WAT     H236336   2.486   4.206   8.078
12032WAT      O36337   3.334   2.704   8.624
12032WAT     H136338   3.433   2.694   8.611
12032WAT     H236339   3.310   2.681   8.719
12033WAT      O36340   6.178   3.807   4.259
12033WAT     H136341   6.167   3.820   4.357
12033WAT     H236342   6.275   3.814   4.236
12034WAT      O36343   3.595   6.002   5.648
12034WAT     H136344   3.500   6.014   5.619
12034WAT     H236345   3.649   6.079   5.614
12035WAT      O36346   2.170   6.868   5.100
12035WAT     H136347   2.149   6.964   5.119
12035WAT     H236348   2.085   6.815   5.100
12036WAT      O36349   1.487   9.309   5.278
12036WAT     H136350   1.433   9.340   5.356
12036WAT     H236351   1.461   9.361   5.197
12037WAT      O36352   0.747   2.899   9.451
12037WAT     H136353   0.684   2.959   9.401
12037WAT     H236354   0.725   2.804   9.431
12038WAT      O36355   6.358   9.446   5.765
12038WAT     H136356   6.272   9.398   5.754
12038WAT     H236357   6.342   9.534   5.809
12039WAT      O36358   5.829   8.014   3.756
12039WAT     H136359   5.750   7.953   3.761
12039WAT     H236360   5.846   8.038   3.660
12040WAT      O36361   9.229   9.603   5.244
12040WAT     H136362   9.310   9.547   5.259
12040WAT     H236363   9.159   9.549   5.197
12041WAT      O36364   7.149   9.630   8.646
12041WAT     H136365   7.138   9.648   8.744
12041WAT     H236366   7.214   9.555   8.632
12042WAT      O36367   5.474   6.976   3.348
12042WAT     H136368   5.380   6.941   3.344
12042WAT     H236369   5.537   6.899   3.338
12043WAT      O36370   1.006   6.429   6.229
12043WAT     H136371   1.010   6.384   6.140
12043WAT     H236372   0.931   6.390   6.283
12044WAT      O36373   1.571   2.494   5.677
12044WAT     H136374   1.652   2.550   5.660
12044WAT     H236375   1.597   2.398   5.680
12045WAT      O36376   2.870   1.183   2.066
12045WAT     H136377   2.805   1.249   2.104
12045WAT     H236378   2.954   1.230   2.039
12046WAT      O36379   0.043   7.015   8.809
12046WAT     H136380   0.004   6.956   8.739
12046WAT     H236381   0.077   6.959   8.885
12047WAT      O36382   0.083   2.072   3.203
12047WAT     H136383   0.012   2.125   3.157
12047WAT     H236384   0.044   1.987   3.239
12048WAT      O36385   0.435   5.522   8.613
12048WAT     H136386   0.406   5.602   8.665
12048WAT     H236387   0.526   5.537   8.576
12049WAT      O36388   8.440   5.206   7.148
12049WAT     H136389   8.363   5.144   7.164
12049WAT     H236390   8.457   5.214   7.050
12050WAT      O36391   4.532   9.157   0.078
12050WAT     H136392   4.473   9.182   0.154
12050WAT     H236393   4.565   9.063   0.091
12051WAT      O36394   8.296   4.328   4.961
12051WAT     H136395   8.319   4.298   4.869
12051WAT     H236396   8.370   4.302   5.024
12052WAT      O36397   3.690   5.931   6.149
12052WAT     H136398   3.782   5.969   6.154
12052WAT     H236399   3.624   5.998   6.183
12053WAT      O36400   3.486   0.428   9.122
12053WAT     H136401   3.573   0.435   9.171
12053WAT     H236402   3.442   0.342   9.145
12054WAT      O36403   8.280   4.731   2.468
12054WAT     H136404   8.201   4.690   2.423
12054WAT     H236405   8.267   4.830   2.475
12055WAT      O36406   0.613   2.451   2.102
12055WAT     H136407   0.687   2.398   2.061
12055WAT     H236408   0.598   2.420   2.196
12056WAT      O36409   6.113   1.609   9.627
12056WAT     H136410   6.022   1.644   9.652
12056WAT     H236411   6.105   1.549   9.547
12057WAT      O36412   3.830   3.523   8.474
12057WAT     H136413   3.883   3.483   8.399
12057WAT     H236414   3.752   3.572   8.438
12058WAT      O36415   7.501   1.951   4.233
12058WAT     H136416   7.407   1.920   4.223
12058WAT     H236417   7.564   1.874   4.218
12059WAT      O36418   1.478   6.331   2.479
12059WAT     H136419   1.464   6.425   2.448
12059WAT     H236420   1.393   6.279   2.470
12060WAT      O36421   0.656   2.889   5.972
12060WAT     H136422   0.578   2.939   6.012
12060WAT     H236423   0.709   2.848   6.046
12061WAT      O36424   7.351   8.047   8.991
12061WAT     H136425   7.351   8.003   9.080
12061WAT     H236426   7.257   8.058   8.958
12062WAT      O36427   3.762   9.624   0.105
12062WAT     H136428   3.755   9.525   0.093
12062WAT     H236429   3.694   9.669   0.046
12063WAT      O36430   4.098   3.607   8.699
12063WAT     H136431   4.002   3.622   8.723
12063WAT     H236432   4.119   3.656   8.614
12064WAT      O36433   5.138   5.012   6.950
12064WAT     H136434   5.225   5.034   6.992
12064WAT     H236435   5.137   5.045   6.856
12065WAT      O36436   5.093   7.069   0.013
12065WAT     H136437   5.064   7.070  -0.083
12065WAT     H236438   5.132   7.158   0.036
12066WAT      O36439   9.572   9.744   9.316
12066WAT     H136440   9.637   9.688   9.366
12066WAT     H236441   9.527   9.808   9.379
12067WAT      O36442   5.055   9.554   5.788
12067WAT     H136443   5.067   9.653   5.796
12067WAT     H236444   4.961   9.533   5.762
12068WAT      O36445   9.141   4.039   7.503
12068WAT     H136446   9.152   4.019   7.600
12068WAT     H236447   9.051   4.007   7.473
12069WAT      O36448   4.686   4.174   5.904
12069WAT     H136449   4.746   4.230   5.848
12069WAT     H236450   4.684   4.081   5.868
12070WAT      O36451   2.829   1.020   1.635
12070WAT     H136452   2.738   1.039   1.597
12070WAT     H236453   2.884   0.971   1.567
12071WAT      O36454   8.711   4.149   6.495
12071WAT     H136455   8.767   4.231   6.505
12071WAT     H236456   8.709   4.122   6.399
12072WAT      O36457   2.917   4.032   3.878
12072WAT     H136458   2.976   4.017   3.799
12072WAT     H236459   2.966   4.090   3.944
12073WAT      O36460   6.592   3.049   4.999
12073WAT     H136461   6.665   3.068   4.934
12073WAT     H236462   6.616   3.087   5.088
12074WAT      O36463   6.275   8.512   6.880
12074WAT     H136464   6.307   8.427   6.921
12074WAT     H236465   6.230   8.491   6.792
12075WAT      O36466   0.400   0.871   5.795
12075WAT     H136467   0.370   0.916   5.711
12075WAT     H236468   0.347   0.787   5.809
12076WAT      O36469   5.414   0.771   1.473
12076WAT     H136470   5.472   0.743   1.396
12076WAT     H236471   5.451   0.732   1.557
12077WAT      O36472   1.243   3.037   1.361
12077WAT     H136473   1.222   2.940   1.351
12077WAT     H236474   1.198   3.073   1.443
12078WAT      O36475   4.045   0.001   1.710
12078WAT     H136476   4.089   0.069   1.651
12078WAT     H236477   4.106  -0.078   1.721
12079WAT      O36478   7.724   8.067   0.829
12079WAT     H136479   7.785   8.050   0.752
12079WAT     H236480   7.723   7.987   0.890
12080WAT      O36481   6.669   1.185   5.834
12080WAT     H136482   6.686   1.208   5.929
12080WAT     H236483   6.574   1.208   5.810
12081WAT      O36484   0.853   4.433   0.923
12081WAT     H136485   0.889   4.525   0.908
12081WAT     H236486   0.760   4.439   0.959
12082WAT      O36487   5.343   5.559   7.929
12082WAT     H136488   5.435   5.521   7.921
12082WAT     H236489   5.328   5.627   7.857
12083WAT      O36490   7.668   7.006   7.725
12083WAT     H136491   7.740   7.044   7.784
12083WAT     H236492   7.580   7.010   7.772
12084WAT      O36493   8.058   9.404   0.354
12084WAT     H136494   8.041   9.484   0.296
12084WAT     H236495   8.088   9.435   0.445
12085WAT      O36496   2.928   7.569   6.037
12085WAT     H136497   2.904   7.654   6.084
12085WAT     H236498   2.919   7.583   5.938
12086WAT      O36499   1.000   2.160   0.386
12086WAT     H136500   0.987   2.122   0.477
12086WAT     H236501   0.915   2.154   0.334
12087WAT      O36502   3.869   7.717   1.142
12087WAT     H136503   3.871   7.644   1.210
12087WAT     H236504   3.774   7.741   1.122
12088WAT      O36505   3.458   0.347   3.850
12088WAT     H136506   3.429   0.255   3.874
12088WAT     H236507   3.536   0.374   3.907
12089WAT      O36508   3.311   7.648   4.283
12089WAT     H136509   3.218   7.613   4.282
12089WAT     H236510   3.342   7.663   4.189
12090WAT      O36511   1.870   4.124   4.146
12090WAT     H136512   1.958   4.083   4.171
12090WAT     H236513   1.845   4.093   4.054
12091WAT      O36514   8.797   3.751   6.006
12091WAT     H136515   8.735   3.823   6.036
12091WAT     H236516   8.759   3.705   5.926
12092WAT      O36517   4.279   8.533   3.379
12092WAT     H136518   4.207   8.523   3.448
12092WAT     H236519   4.282   8.627   3.348
12093WAT      O36520   9.553   8.890   4.062
12093WAT     H136521   9.480   8.943   4.020
12093WAT     H236522   9.604   8.841   3.991
12094WAT      O36523   6.740   1.301   1.427
12094WAT     H136524   6.824   1.273   1.475
12094WAT     H236525   6.721   1.397   1.448
12095WAT      O36526   7.158   4.501   1.510
12095WAT     H136527   7.190   4.513   1.417
12095WAT     H236528   7.108   4.582   1.540
12096WAT      O36529   0.977   1.837   1.819
12096WAT     H136530   1.023   1.780   1.751
12096WAT     H236531   0.994   1.933   1.799
12097WAT      O36532   7.264   9.791   4.342
12097WAT     H136533   7.276   9.696   4.370
12097WAT     H236534   7.333   9.814   4.273
12098WAT      O36535   3.302   9.233   2.693
12098WAT     H136536   3.236   9.219   2.767
12098WAT     H236537   3.263   9.202   2.607
12099WAT      O36538   2.340   3.389   7.221
12099WAT     H136539   2.324   3.291   7.210
12099WAT     H236540   2.438   3.407   7.217
12100WAT      O36541   1.686   7.608   1.742
12100WAT     H136542   1.757   7.604   1.672
12100WAT     H236543   1.673   7.517   1.782
12101WAT      O36544   3.786   8.939   6.766
12101WAT     H136545   3.782   8.935   6.666
12101WAT     H236546   3.718   9.005   6.799
12102WAT      O36547   3.306   6.515   9.558
12102WAT     H136548   3.300   6.433   9.617
12102WAT     H236549   3.221   6.526   9.508
12103WAT      O36550   4.187   0.376   3.473
12103WAT     H136551   4.230   0.427   3.547
12103WAT     H236552   4.142   0.440   3.410
12104WAT      O36553   2.761   3.579   7.843
12104WAT     H136554   2.834   3.645   7.826
12104WAT     H236555   2.717   3.600   7.930
12105WAT      O36556   9.823   9.508   5.311
12105WAT     H136557   9.788   9.594   5.348
12105WAT     H236558   9.872   9.458   5.384
12106WAT      O36559   9.641   7.672   9.732
12106WAT     H136560   9.692   7.694   9.815
12106WAT     H236561   9.674   7.730   9.657
12107WAT      O36562   6.721   7.134   1.879
12107WAT     H136563   6.705   7.201   1.807
12107WAT     H236564   6.787   7.066   1.847
12108WAT      O36565   9.570   8.005   5.167
12108WAT     H136566   9.563   8.043   5.259
12108WAT     H236567   9.649   7.945   5.161
12109WAT      O36568   5.251   5.258   5.449
12109WAT     H136569   5.312   5.185   5.481
12109WAT     H236570   5.157   5.235   5.473
12110WAT      O36571   7.124   6.619   7.086
12110WAT     H136572   7.042   6.562   7.084
12110WAT     H236573   7.200   6.570   7.045
12111WAT      O36574   5.432   1.086   5.552
12111WAT     H136575   5.370   1.037   5.613
12111WAT     H236576   5.422   1.051   5.459
12112WAT      O36577   2.003   3.580   5.249
12112WAT     H136578   2.037   3.610   5.338
12112WAT     H236579   1.969   3.486   5.257
12113WAT      O36580   0.193   8.535   2.624
12113WAT     H136581   0.110   8.490   2.592
12113WAT     H236582   0.191   8.632   2.597
12114WAT      O36583   4.531   1.077   8.864
12114WAT     H136584   4.458   1.139   8.835
12114WAT     H236585   4.603   1.077   8.794
12115WAT      O36586   5.352   5.558   1.732
12115WAT     H136587   5.339   5.635   1.670
12115WAT     H236588   5.428   5.577   1.794
12116WAT      O36589   9.343   1.205   0.934
12116WAT     H136590   9.323   1.269   1.007
12116WAT     H236591   9.418   1.144   0.962
12117WAT      O36592   4.157   4.091   2.565
12117WAT     H136593   4.177   3.995   2.548
12117WAT     H236594   4.203   4.120   2.649
12118WAT      O36595   0.963   1.075   7.016
12118WAT     H136596   0.947   1.153   7.077
12118WAT     H236597   0.877   1.049   6.972
12119WAT      O36598   7.963   9.241   3.774
12119WAT     H136599   7.971   9.276   3.681
12119WAT     H236600   7.875   9.196   3.785
12120WAT      O36601   7.583   3.754   8.269
12120WAT     H136602   7.535   3.696   8.335
12120WAT     H236603   7.604   3.701   8.187
12121WAT      O36604   5.531   4.696   9.536
12121WAT     H136605   5.535   4.614   9.594
12121WAT     H236606   5.511   4.668   9.441
12122WAT      O36607   8.624   8.490   1.314
12122WAT     H136608   8.648   8.578   1.356
12122WAT     H236609   8.588   8.429   1.384
12123WAT      O36610   8.706   2.908   9.317
12123WAT     H136611   8.625   2.954   9.282
12123WAT     H236612   8.787   2.966   9.304
12124WAT      O36613   0.447   0.808   4.772
12124WAT     H136614   0.505   0.733   4.803
12124WAT     H236615   0.504   0.885   4.745
12125WAT      O36616   0.045   0.507   2.135
12125WAT     H136617   0.003   0.443   2.070
12125WAT     H236618   0.090   0.456   2.208
12126WAT      O36619   7.415   7.484   3.165
12126WAT     H136620   7.402   7.386   3.154
12126WAT     H236621   7.430   7.526   3.076
12127WAT      O36622   5.304   2.300   6.266
12127WAT     H136623   5.265   2.208   6.275
12127WAT     H236624   5.343   2.329   6.353
12128WAT      O36625   2.050   0.683   9.422
12128WAT     H136626   2.044   0.778   9.392
12128WAT     H236627   2.028   0.677   9.519
12129WAT      O36628   2.842   2.025   5.949
12129WAT     H136629   2.779   1.948   5.953
12129WAT     H236630   2.817   2.093   6.019
12130WAT      O36631   5.356   6.054   6.642
12130WAT     H136632   5.440   6.051   6.589
12130WAT     H236633   5.370   6.109   6.724
12131WAT      O36634   6.446   9.442   2.783
12131WAT     H136635   6.483   9.513   2.723
12131WAT     H236636   6.521   9.388   2.821
12132WAT      O36637   1.307   1.235   6.224
12132WAT     H136638   1.268   1.145   6.241
12132WAT     H236639   1.257   1.279   6.150
12133WAT      O36640   1.824   5.008   8.173
12133WAT     H136641   1.874   5.056   8.245
12133WAT     H236642   1.874   5.016   8.087
12134WAT      O36643   5.224   8.024   5.262
12134WAT     H136644   5.230   8.092   5.190
12134WAT     H236645   5.292   7.952   5.246
12135WAT      O36646   2.488   9.154   6.005
12135WAT     H136647   2.533   9.220   5.945
12135WAT     H236648   2.557   9.108   6.062
12136WAT      O36649   1.807   4.527   7.098
12136WAT     H136650   1.869   4.463   7.146
12136WAT     H236651   1.814   4.512   7.000
12137WAT      O36652   9.879   3.026   7.502
12137WAT     H136653   9.836   3.007   7.590
12137WAT     H236654   9.935   2.948   7.474
12138WAT      O36655   8.800   2.562   8.921
12138WAT     H136656   8.900   2.566   8.914
12138WAT     H236657   8.766   2.652   8.948
12139WAT      O36658   2.154   3.895   5.395
12139WAT     H136659   2.241   3.853   5.420
12139WAT     H236660   2.153   3.916   5.297
12140WAT      O36661   5.911   1.301   1.410
12140WAT     H136662   5.921   1.390   1.365
12140WAT     H236663   5.968   1.300   1.493
12141WAT      O36664   4.601   3.270   7.908
12141WAT     H136665   4.561   3.211   7.979
12141WAT     H236666   4.603   3.364   7.939
12142WAT      O36667   0.781   6.742   3.510
12142WAT     H136668   0.712   6.737   3.438
12142WAT     H236669   0.817   6.650   3.529
12143WAT      O36670   3.274   5.598   8.879
12143WAT     H136671   3.290   5.674   8.815
12143WAT     H236672   3.289   5.629   8.972
12144WAT      O36673   7.585   0.303   5.928
12144WAT     H136674   7.510   0.262   5.876
12144WAT     H236675   7.589   0.401   5.910
12145WAT      O36676   3.759   2.564   2.852
12145WAT     H136677   3.775   2.639   2.917
12145WAT     H236678   3.764   2.477   2.900
12146WAT      O36679   1.447   4.293   8.694
12146WAT     H136680   1.386   4.280   8.616
12146WAT     H236681   1.517   4.221   8.693
12147WAT      O36682   6.784   7.091   2.552
12147WAT     H136683   6.703   7.125   2.505
12147WAT     H236684   6.770   7.096   2.651
12148WAT      O36685   5.516   2.784   7.617
12148WAT     H136686   5.542   2.789   7.713
12148WAT     H236687   5.589   2.740   7.565
12149WAT      O36688   3.892   5.684   7.512
12149WAT     H136689   3.861   5.681   7.417
12149WAT     H236690   3.951   5.605   7.530
12150WAT      O36691   6.757   2.664   7.063
12150WAT     H136692   6.832   2.699   7.118
12150WAT     H236693   6.670   2.681   7.110
12151WAT      O36694   9.784   3.924   0.405
12151WAT     H136695   9.734   4.010   0.408
12151WAT     H236696   9.860   3.932   0.341
12152WAT      O36697   3.926   7.959   6.592
12152WAT     H136698   3.861   8.035   6.586
12152WAT     H236699   3.952   7.931   6.499
12153WAT      O36700   2.750   9.566   5.420
12153WAT     H136701   2.703   9.639   5.371
12153WAT     H236702   2.802   9.606   5.496
12154WAT      O36703   2.068   8.778   0.864
12154WAT     H136704   2.059   8.867   0.908
12154WAT     H236705   2.037   8.785   0.769
12155WAT      O36706   7.372   0.945   2.082
12155WAT     H136707   7.428   1.017   2.124
12155WAT     H236708   7.327   0.981   2.001
12156WAT      O36709   0.773   4.540   3.258
12156WAT     H136710   0.753   4.498   3.347
12156WAT     H236711   0.764   4.471   3.186
12157WAT      O36712   8.433   3.716   3.315
12157WAT     H136713   8.338   3.730   3.342
12157WAT     H236714   8.446   3.622   3.285
12158WAT      O36715   5.229   3.295   3.839
12158WAT     H136716   5.251   3.314   3.935
12158WAT     H236717   5.140   3.334   3.817
12159WAT      O36718   1.694   1.267   9.322
12159WAT     H136719   1.618   1.332   9.311
12159WAT     H236720   1.661   1.174   9.307
12160WAT      O36721   1.175   4.793   1.253
12160WAT     H136722   1.183   4.726   1.179
12160WAT     H236723   1.199   4.884   1.217
12161WAT      O36724   1.942   5.986   3.283
12161WAT     H136725   1.899   6.069   3.247
12161WAT     H236726   2.037   6.006   3.307
12162WAT      O36727   8.894   2.072   4.143
12162WAT     H136728   8.833   2.081   4.064
12162WAT     H236729   8.841   2.086   4.227
12163WAT      O36730   9.644   2.591   3.618
12163WAT     H136731   9.711   2.543   3.561
12163WAT     H236732   9.552   2.557   3.598
12164WAT      O36733   6.536   0.300   8.241
12164WAT     H136734   6.497   0.230   8.181
12164WAT     H236735   6.487   0.386   8.228
12165WAT      O36736   8.904   7.667   9.213
12165WAT     H136737   8.896   7.733   9.138
12165WAT     H236738   8.951   7.710   9.290
12166WAT      O36739   4.917   2.383   7.849
12166WAT     H136740   4.928   2.368   7.947
12166WAT     H236741   5.004   2.412   7.810
12167WAT      O36742   4.914   3.922   5.504
12167WAT     H136743   4.988   3.858   5.482
12167WAT     H236744   4.933   3.964   5.593
12168WAT      O36745   9.309   1.776   8.097
12168WAT     H136746   9.216   1.738   8.093
12168WAT     H236747   9.320   1.844   8.026
12169WAT      O36748   5.001   4.245   2.254
12169WAT     H136749   5.055   4.161   2.251
12169WAT     H236750   5.062   4.324   2.259
12170WAT      O36751   7.789   8.298   4.883
12170WAT     H136752   7.853   8.347   4.942
12170WAT     H236753   7.838   8.226   4.834
12171WAT      O36754   6.255   4.639   6.516
12171WAT     H136755   6.261   4.563   6.450
12171WAT     H236756   6.160   4.650   6.545
12172WAT      O36757   2.123   4.154   5.875
12172WAT     H136758   2.214   4.182   5.845
12172WAT     H236759   2.105   4.192   5.966
12173WAT      O36760   7.591   3.965   3.765
12173WAT     H136761   7.553   3.900   3.698
12173WAT     H236762   7.520   4.031   3.790
12174WAT      O36763   4.951   8.680   1.246
12174WAT     H136764   4.888   8.613   1.207
12174WAT     H236765   4.903   8.734   1.315
12175WAT      O36766   6.611   1.380   7.163
12175WAT     H136767   6.654   1.437   7.092
12175WAT     H236768   6.511   1.389   7.156
12176WAT      O36769   3.353   2.731   9.441
12176WAT     H136770   3.331   2.813   9.388
12176WAT     H236771   3.448   2.706   9.426
12177WAT      O36772   7.232   9.459   1.598
12177WAT     H136773   7.279   9.372   1.585
12177WAT     H236774   7.278   9.531   1.546
12178WAT      O36775   4.376   9.542   7.376
12178WAT     H136776   4.293   9.494   7.349
12178WAT     H236777   4.455   9.502   7.329
12179WAT      O36778   8.280   1.722   5.830
12179WAT     H136779   8.295   1.741   5.733
12179WAT     H236780   8.331   1.640   5.857
12180WAT      O36781   4.440   4.099   9.228
12180WAT     H136782   4.424   4.172   9.294
12180WAT     H236783   4.360   4.040   9.224
12181WAT      O36784   8.678   8.466   8.499
12181WAT     H136785   8.735   8.437   8.576
12181WAT     H236786   8.614   8.536   8.529
12182WAT      O36787   6.033   1.409   4.479
12182WAT     H136788   5.981   1.483   4.437
12182WAT     H236789   6.131   1.423   4.463
12183WAT      O36790   8.021   0.056   6.332
12183WAT     H136791   7.951   0.073   6.402
12183WAT     H236792   8.002   0.112   6.252
12184WAT      O36793   6.493   7.711   1.518
12184WAT     H136794   6.465   7.768   1.440
12184WAT     H236795   6.425   7.718   1.590
12185WAT      O36796   9.580   1.442   0.540
12185WAT     H136797   9.538   1.431   0.449
12185WAT     H236798   9.536   1.380   0.604
12186WAT      O36799   1.494   1.994   0.870
12186WAT     H136800   1.419   1.977   0.933
12186WAT     H236801   1.465   2.059   0.800
12187WAT      O36802   3.294   9.281   8.994
12187WAT     H136803   3.343   9.345   8.937
12187WAT     H236804   3.356   9.209   9.025
12188WAT      O36805   8.688   5.286   1.182
12188WAT     H136806   8.589   5.294   1.169
12188WAT     H236807   8.709   5.291   1.280
12189WAT      O36808   8.898   7.342   5.261
12189WAT     H136809   8.912   7.350   5.359
12189WAT     H236810   8.967   7.281   5.222
12190WAT      O36811   2.034   1.487   7.904
12190WAT     H136812   2.024   1.533   7.816
12190WAT     H236813   2.046   1.389   7.888
12191WAT      O36814   3.377   0.772   5.811
12191WAT     H136815   3.462   0.805   5.769
12191WAT     H236816   3.349   0.687   5.768
12192WAT      O36817   6.377   9.545   0.804
12192WAT     H136818   6.393   9.599   0.721
12192WAT     H236819   6.407   9.597   0.884
12193WAT      O36820   7.071   7.736   8.774
12193WAT     H136821   7.019   7.666   8.723
12193WAT     H236822   7.067   7.715   8.872
12194WAT      O36823   7.784   8.689   0.450
12194WAT     H136824   7.717   8.745   0.499
12194WAT     H236825   7.875   8.726   0.465
12195WAT      O36826   4.523   5.564   7.774
12195WAT     H136827   4.522   5.476   7.726
12195WAT     H236828   4.578   5.630   7.721
12196WAT      O36829   0.943   2.189   7.433
12196WAT     H136830   0.885   2.126   7.381
12196WAT     H236831   0.973   2.264   7.375
12197WAT      O36832   5.737   2.609   7.516
12197WAT     H136833   5.678   2.596   7.436
12197WAT     H236834   5.822   2.653   7.488
12198WAT      O36835   4.389   1.380   8.160
12198WAT     H136836   4.296   1.384   8.198
12198WAT     H236837   4.414   1.469   8.122
12199WAT      O36838   7.428   6.857   5.922
12199WAT     H136839   7.471   6.768   5.904
12199WAT     H236840   7.494   6.930   5.902
12200WAT      O36841   7.747   5.415   6.034
12200WAT     H136842   7.753   5.488   5.966
12200WAT     H236843   7.672   5.435   6.097
12201WAT      O36844   4.025   9.386   9.697
12201WAT     H136845   4.040   9.461   9.633
12201WAT     H236846   4.107   9.373   9.753
12202WAT      O36847   1.161   5.103   5.911
12202WAT     H136848   1.205   5.077   5.997
12202WAT     H236849   1.210   5.182   5.872
12203WAT      O36850   0.079   0.224   4.572
12203WAT     H136851   0.062   0.254   4.666
12203WAT     H236852   0.160   0.270   4.536
12204WAT      O36853   2.362   6.641   1.652
12204WAT     H136854   2.385   6.723   1.600
12204WAT     H236855   2.277   6.601   1.616
12205WAT      O36856   7.291   5.051   9.438
12205WAT     H136857   7.218   5.111   9.470
12205WAT     H236858   7.268   4.956   9.462
12206WAT      O36859   7.578   2.988   9.756
12206WAT     H136860   7.608   2.965   9.849
12206WAT     H236861   7.635   3.061   9.720
12207WAT      O36862   9.675   1.360   6.764
12207WAT     H136863   9.648   1.455   6.775
12207WAT     H236864   9.632   1.304   6.835
12208WAT      O36865   2.292   4.204   3.258
12208WAT     H136866   2.243   4.156   3.332
12208WAT     H236867   2.236   4.203   3.175
12209WAT      O36868   4.419   1.662   5.173
12209WAT     H136869   4.482   1.613   5.113
12209WAT     H236870   4.337   1.607   5.187
12210WAT      O36871   4.065   8.002   2.987
12210WAT     H136872   4.004   7.930   3.020
12210WAT     H236873   4.155   7.963   2.968
12211WAT      O36874   1.778   9.330   2.746
12211WAT     H136875   1.755   9.233   2.738
12211WAT     H236876   1.733   9.369   2.826
12212WAT      O36877   2.841   3.288   9.777
12212WAT     H136878   2.880   3.200   9.804
12212WAT     H236879   2.914   3.353   9.759
12213WAT      O36880   5.278   7.580   1.759
12213WAT     H136881   5.200   7.642   1.745
12213WAT     H236882   5.340   7.588   1.681
12214WAT      O36883   1.967   4.670   5.400
12214WAT     H136884   1.901   4.745   5.394
12214WAT     H236885   1.993   4.655   5.496
12215WAT      O36886   3.103   2.182   0.184
12215WAT     H136887   3.105   2.236   0.100
12215WAT     H236888   3.061   2.093   0.166
12216WAT      O36889   5.732   9.718   8.332
12216WAT     H136890   5.666   9.663   8.383
12216WAT     H236891   5.723   9.701   8.234
12217WAT      O36892   7.694   9.372   1.284
12217WAT     H136893   7.685   9.456   1.337
12217WAT     H236894   7.630   9.374   1.207
12218WAT      O36895   2.515   7.328   5.709
12218WAT     H136896   2.420   7.359   5.717
12218WAT     H236897   2.522   7.234   5.742
12219WAT      O36898   8.581   5.401   4.293
12219WAT     H136899   8.509   5.400   4.224
12219WAT     H236900   8.671   5.407   4.248
12220WAT      O36901   9.708   6.749   9.269
12220WAT     H136902   9.628   6.717   9.218
12220WAT     H236903   9.708   6.849   9.270
12221WAT      O36904   1.744   8.232   1.972
12221WAT     H136905   1.677   8.306   1.963
12221WAT     H236906   1.733   8.189   2.062
12222WAT      O36907   2.542   5.406   3.207
12222WAT     H136908   2.633   5.384   3.172
12222WAT     H236909   2.487   5.323   3.213
12223WAT      O36910   5.854   5.552   3.219
12223WAT     H136911   5.886   5.529   3.127
12223WAT     H236912   5.852   5.470   3.276
12224WAT      O36913   7.816   6.186   3.991
12224WAT     H136914   7.826   6.117   4.063
12224WAT     H236915   7.898   6.242   3.988
12225WAT      O36916   0.903   3.812   4.321
12225WAT     H136917   0.920   3.737   4.257
12225WAT     H236918   0.807   3.839   4.314
12226WAT      O36919   3.276   4.723   8.099
12226WAT     H136920   3.336   4.802   8.105
12226WAT     H236921   3.198   4.745   8.040
12227WAT      O36922   0.168   4.548   7.799
12227WAT     H136923   0.154   4.529   7.701
12227WAT     H236924   0.264   4.535   7.822
12228WAT      O36925   3.525   8.689   8.539
12228WAT     H136926   3.495   8.691   8.444
12228WAT     H236927   3.529   8.782   8.575
12229WAT      O36928   7.910   9.469   9.131
12229WAT     H136929   7.901   9.567   9.153
12229WAT     H236930   7.824   9.436   9.092
12230WAT      O36931   8.494   7.686   1.519
12230WAT     H136932   8.547   7.613   1.476
12230WAT     H236933   8.487   7.670   1.617
12231WAT      O36934   0.560   0.356   8.599
12231WAT     H136935   0.524   0.398   8.516
12231WAT     H236936   0.657   0.336   8.587
12232WAT      O36937   0.240   8.823   3.541
12232WAT     H136938   0.303   8.862   3.608
12232WAT     H236939   0.149   8.864   3.552
12233WAT      O36940   9.587   1.934   7.762
12233WAT     H136941   9.657   1.956   7.829
12233WAT     H236942   9.589   2.003   7.689
12234WAT      O36943   3.735   8.180   7.836
12234WAT     H136944   3.673   8.229   7.897
12234WAT     H236945   3.791   8.116   7.888
12235WAT      O36946   4.299   9.748   8.334
12235WAT     H136947   4.242   9.830   8.338
12235WAT     H236948   4.384   9.763   8.384
12236WAT      O36949   5.001   8.289   3.967
12236WAT     H136950   5.072   8.227   4.000
12236WAT     H236951   5.017   8.380   4.006
12237WAT      O36952   0.441   2.069   0.347
12237WAT     H136953   0.488   2.148   0.386
12237WAT     H236954   0.342   2.080   0.358
12238WAT      O36955   0.300   2.663   3.411
12238WAT     H136956   0.298   2.563   3.417
12238WAT     H236957   0.252   2.692   3.328
12239WAT      O36958   1.389   1.141   9.860
12239WAT     H136959   1.463   1.204   9.883
12239WAT     H236960   1.314   1.152   9.925
12240WAT      O36961   4.793   5.085   7.449
12240WAT     H136962   4.752   5.015   7.507
12240WAT     H236963   4.747   5.172   7.464
12241WAT      O36964   3.431   7.967   2.941
12241WAT     H136965   3.498   8.001   2.875
12241WAT     H236966   3.348   7.939   2.893
12242WAT      O36967   3.917   5.252   9.110
12242WAT     H136968   3.819   5.260   9.090
12242WAT     H236969   3.963   5.337   9.086
12243WAT      O36970   2.550   8.292   2.814
12243WAT     H136971   2.490   8.324   2.887
12243WAT     H236972   2.606   8.368   2.780
12244WAT      O36973   5.940   3.417   8.685
12244WAT     H136974   5.935   3.322   8.716
12244WAT     H236975   5.867   3.435   8.620
12245WAT      O36976   6.995   6.392   3.109
12245WAT     H136977   7.083   6.409   3.064
12245WAT     H236978   7.001   6.307   3.161
12246WAT      O36979   2.886   0.786   2.764
12246WAT     H136980   2.900   0.876   2.806
12246WAT     H236981   2.879   0.717   2.836
12247WAT      O36982   8.084   7.695   6.924
12247WAT     H136983   8.035   7.765   6.872
12247WAT     H236984   8.157   7.656   6.868
12248WAT      O36985   3.964   8.777   2.736
12248WAT     H136986   3.945   8.733   2.823
12248WAT     H236987   4.018   8.716   2.678
12249WAT      O36988   4.560   0.793   5.753
12249WAT     H136989   4.492   0.754   5.692
12249WAT     H236990   4.650   0.757   5.730
12250WAT      O36991   1.938   5.565   3.687
12250WAT     H136992   1.876   5.488   3.674
12250WAT     H236993   2.026   5.546   3.643
12251WAT      O36994   7.304   2.809   6.063
12251WAT     H136995   7.381   2.848   6.113
12251WAT     H236996   7.330   2.718   6.028
12252WAT      O36997   0.770   2.204   0.818
12252WAT     H136998   0.839   2.156   0.765
12252WAT     H236999   0.780   2.303   0.805
12253WAT      O37000   8.276   3.852   1.067
12253WAT     H137001   8.368   3.875   1.036
12253WAT     H237002   8.282   3.790   1.145
12254WAT      O37003   8.325   7.698   2.785
12254WAT     H137004   8.305   7.730   2.878
12254WAT     H237005   8.284   7.761   2.719
12255WAT      O37006   6.836   0.953   8.251
12255WAT     H137007   6.779   1.006   8.315
12255WAT     H237008   6.778   0.891   8.199
12256WAT      O37009   0.656   8.347   3.629
12256WAT     H137010   0.669   8.353   3.728
12256WAT     H237011   0.603   8.426   3.598
12257WAT      O37012   5.940   3.407   4.675
12257WAT     H137013   5.892   3.327   4.638
12257WAT     H237014   5.985   3.382   4.760
12258WAT      O37015   4.082   1.535   7.697
12258WAT     H137016   4.180   1.550   7.706
12258WAT     H237017   4.053   1.462   7.759
12259WAT      O37018   9.169   6.591   0.710
12259WAT     H137019   9.129   6.563   0.624
12259WAT     H237020   9.220   6.676   0.697
12260WAT      O37021   3.553   6.409   8.166
12260WAT     H137022   3.640   6.360   8.175
12260WAT     H237023   3.515   6.426   8.257
12261WAT      O37024   4.288   0.135   1.571
12261WAT     H137025   4.354   0.103   1.639
12261WAT     H237026   4.287   0.235   1.571
12262WAT      O37027   6.246   0.730   9.770
12262WAT     H137028   6.284   0.778   9.690
12262WAT     H237029   6.149   0.752   9.778
12263WAT      O37030   1.569   6.844   6.698
12263WAT     H137031   1.607   6.752   6.714
12263WAT     H237032   1.477   6.836   6.661
12264WAT      O37033   0.707   3.794   8.480
12264WAT     H137034   0.802   3.770   8.463
12264WAT     H237035   0.674   3.855   8.407
12265WAT      O37036   9.787   6.518   8.800
12265WAT     H137037   9.804   6.530   8.898
12265WAT     H237038   9.762   6.606   8.760
12266WAT      O37039   6.840   7.873   8.940
12266WAT     H137040   6.935   7.863   8.911
12266WAT     H237041   6.837   7.919   9.029
12267WAT      O37042   5.127   2.458   8.615
12267WAT     H137043   5.040   2.497   8.583
12267WAT     H237044   5.192   2.532   8.631
12268WAT      O37045   3.541   6.345   8.702
12268WAT     H137046   3.575   6.292   8.780
12268WAT     H237047   3.517   6.437   8.732
12269WAT      O37048   5.545   7.365   0.589
12269WAT     H137049   5.517   7.451   0.546
12269WAT     H237050   5.597   7.310   0.524
12270WAT      O37051   7.396   6.554   2.133
12270WAT     H137052   7.316   6.586   2.083
12270WAT     H237053   7.452   6.632   2.160
12271WAT      O37054   9.128   5.894   5.626
12271WAT     H137055   9.099   5.913   5.532
12271WAT     H237056   9.199   5.823   5.625
12272WAT      O37057   1.684   1.105   2.304
12272WAT     H137058   1.677   1.192   2.257
12272WAT     H237059   1.598   1.084   2.351
12273WAT      O37060   5.982   7.114   2.914
12273WAT     H137061   5.964   7.022   2.949
12273WAT     H237062   5.960   7.117   2.816
12274WAT      O37063   2.076   9.029   9.872
12274WAT     H137064   1.980   9.019   9.897
12274WAT     H237065   2.097   9.126   9.859
12275WAT      O37066   0.363   2.170   1.356
12275WAT     H137067   0.321   2.081   1.335
12275WAT     H237068   0.461   2.166   1.338
12276WAT      O37069   1.532   6.079   1.340
12276WAT     H137070   1.499   6.145   1.407
12276WAT     H237071   1.618   6.039   1.372
12277WAT      O37072   5.532   9.735   6.266
12277WAT     H137073   5.600   9.769   6.332
12277WAT     H237074   5.558   9.644   6.235
12278WAT      O37075   5.984   0.331   1.393
12278WAT     H137076   6.014   0.367   1.481
12278WAT     H237077   6.064   0.305   1.339
12279WAT      O37078   3.738   8.863   7.953
12279WAT     H137079   3.718   8.887   7.858
12279WAT     H237080   3.676   8.790   7.983
12280WAT      O37081   3.062   0.419   6.885
12280WAT     H137082   3.070   0.337   6.828
12280WAT     H237083   3.036   0.392   6.977
12281WAT      O37084   4.222   0.040   4.555
12281WAT     H137085   4.225   0.038   4.655
12281WAT     H237086   4.195  -0.050   4.521
12282WAT      O37087   4.402   0.472   1.143
12282WAT     H137088   4.454   0.556   1.158
12282WAT     H237089   4.437   0.401   1.204
12283WAT      O37090   3.496   4.548   5.858
12283WAT     H137091   3.505   4.537   5.759
12283WAT     H237092   3.485   4.458   5.901
12284WAT      O37093   5.136   9.322   0.058
12284WAT     H137094   5.077   9.356   0.132
12284WAT     H237095   5.080   9.298  -0.021
12285WAT      O37096   9.365   0.201   3.442
12285WAT     H137097   9.443   0.237   3.390
12285WAT     H237098   9.392   0.190   3.538
12286WAT      O37099   4.300   5.637   7.593
12286WAT     H137100   4.241   5.711   7.626
12286WAT     H237101   4.307   5.566   7.663
12287WAT      O37102   8.864   5.428   4.206
12287WAT     H137103   8.929   5.421   4.281
12287WAT     H237104   8.911   5.455   4.123
12288WAT      O37105   9.048   3.727   7.803
12288WAT     H137106   8.986   3.692   7.873
12288WAT     H237107   8.996   3.778   7.734
12289WAT      O37108   6.290   2.710   2.891
12289WAT     H137109   6.208   2.673   2.846
12289WAT     H237110   6.337   2.638   2.941
12290WAT      O37111   2.163   7.798   6.657
12290WAT     H137112   2.097   7.872   6.666
12290WAT     H237113   2.149   7.750   6.571
12291WAT      O37114   2.383   2.331   2.456
12291WAT     H137115   2.322   2.253   2.473
12291WAT     H237116   2.475   2.308   2.486
12292WAT      O37117   4.124   3.826   5.881
12292WAT     H137118   4.063   3.847   5.804
12292WAT     H237119   4.216   3.807   5.846
12293WAT      O37120   6.110   7.679   9.104
12293WAT     H137121   6.112   7.622   9.022
12293WAT     H237122   6.036   7.745   9.097
12294WAT      O37123   1.941   8.207   4.653
12294WAT     H137124   1.872   8.238   4.588
12294WAT     H237125   1.923   8.112   4.679
12295WAT      O37126   4.196   1.116   6.515
12295WAT     H137127   4.280   1.168   6.534
12295WAT     H237128   4.219   1.019   6.504
12296WAT      O37129   3.210   0.270   9.868
12296WAT     H137130   3.124   0.221   9.885
12296WAT     H237131   3.234   0.262   9.772
12297WAT      O37132   9.025   9.430   8.711
12297WAT     H137133   9.091   9.486   8.660
12297WAT     H237134   9.071   9.382   8.785
12298WAT      O37135   6.994   6.618   9.221
12298WAT     H137136   7.000   6.572   9.310
12298WAT     H237137   7.023   6.555   9.149
12299WAT      O37138   4.593   6.810   3.687
12299WAT     H137139   4.588   6.867   3.605
12299WAT     H237140   4.558   6.719   3.666
12300WAT      O37141   0.521   5.261   4.266
12300WAT     H137142   0.535   5.162   4.272
12300WAT     H237143   0.450   5.280   4.198
12301WAT      O37144   2.711   8.558   1.013
12301WAT     H137145   2.629   8.615   1.020
12301WAT     H237146   2.730   8.516   1.101
12302WAT      O37147   3.722   3.807   1.787
12302WAT     H137148   3.685   3.833   1.698
12302WAT     H237149   3.673   3.728   1.822
12303WAT      O37150   3.253   7.174   7.322
12303WAT     H137151   3.289   7.174   7.415
12303WAT     H237152   3.328   7.184   7.257
12304WAT      O37153   3.391   3.941   9.222
12304WAT     H137154   3.455   3.958   9.298
12304WAT     H237155   3.329   3.867   9.247
12305WAT      O37156   6.595   3.994   2.756
12305WAT     H137157   6.683   4.030   2.728
12305WAT     H237158   6.527   4.011   2.685
12306WAT      O37159   0.438   8.910   9.665
12306WAT     H137160   0.429   8.810   9.669
12306WAT     H237161   0.366   8.952   9.721
12307WAT      O37162   6.491   4.228   6.454
12307WAT     H137163   6.456   4.253   6.545
12307WAT     H237164   6.590   4.242   6.451
12308WAT      O37165   2.421   3.925   4.987
12308WAT     H137166   2.493   3.858   4.965
12308WAT     H237167   2.413   3.991   4.912
12309WAT      O37168   2.131   6.288   4.156
12309WAT     H137169   2.054   6.229   4.133
12309WAT     H237170   2.217   6.239   4.142
12310WAT      O37171   6.911   1.527   3.308
12310WAT     H137172   6.894   1.467   3.387
12310WAT     H237173   6.964   1.477   3.240
12311WAT      O37174   6.312   5.346   6.617
12311WAT     H137175   6.401   5.326   6.577
12311WAT     H237176   6.304   5.445   6.634
12312WAT      O37177   7.428   8.580   8.072
12312WAT     H137178   7.502   8.587   8.006
12312WAT     H237179   7.459   8.529   8.152
12313WAT      O37180   6.271   6.507   4.161
12313WAT     H137181   6.197   6.574   4.167
12313WAT     H237182   6.323   6.522   4.077
12314WAT      O37183   0.528   9.098   5.173
12314WAT     H137184   0.535   9.119   5.270
12314WAT     H237185   0.527   8.999   5.160
12315WAT      O37186   7.330   5.624   2.968
12315WAT     H137187   7.389   5.668   2.900
12315WAT     H237188   7.244   5.598   2.926
12316WAT      O37189   3.098   1.078   5.430
12316WAT     H137190   3.007   1.071   5.471
12316WAT     H237191   3.168   1.064   5.500
12317WAT      O37192   5.133   4.014   7.557
12317WAT     H137193   5.209   4.032   7.496
12317WAT     H237194   5.143   4.067   7.641
12318WAT      O37195   5.351   1.906   2.905
12318WAT     H137196   5.308   1.978   2.850
12318WAT     H237197   5.288   1.830   2.917
12319WAT      O37198   5.602   3.064   7.542
12319WAT     H137199   5.629   3.109   7.457
12319WAT     H237200   5.502   3.059   7.546
12320WAT      O37201   8.203   3.964   1.605
12320WAT     H137202   8.258   4.011   1.674
12320WAT     H237203   8.131   4.026   1.573
12321WAT      O37204   0.821   9.219   9.344
12321WAT     H137205   0.859   9.183   9.258
12321WAT     H237206   0.751   9.156   9.378
12322WAT      O37207   0.731   0.495   1.351
12322WAT     H137208   0.819   0.540   1.334
12322WAT     H237209   0.747   0.411   1.403
12323WAT      O37210   8.393   6.776   4.075
12323WAT     H137211   8.367   6.724   4.157
12323WAT     H237212   8.321   6.841   4.053
12324WAT      O37213   5.764   8.503   7.617
12324WAT     H137214   5.794   8.458   7.533
12324WAT     H237215   5.682   8.458   7.651
12325WAT      O37216   4.788   9.216   4.665
12325WAT     H137217   4.875   9.208   4.713
12325WAT     H237218   4.713   9.203   4.729
12326WAT      O37219   6.792   0.912   6.851
12326WAT     H137220   6.767   0.917   6.754
12326WAT     H237221   6.851   0.989   6.875
12327WAT      O37222   4.055   6.297   3.471
12327WAT     H137223   4.153   6.297   3.488
12327WAT     H237224   4.023   6.203   3.461
12328WAT      O37225   6.028   4.222   6.357
12328WAT     H137226   6.038   4.124   6.337
12328WAT     H237227   5.962   4.263   6.294
12329WAT      O37228   8.303   7.750   4.402
12329WAT     H137229   8.285   7.652   4.404
12329WAT     H237230   8.284   7.787   4.311
12330WAT      O37231   3.157   2.302   0.784
12330WAT     H137232   3.252   2.291   0.814
12330WAT     H237233   3.155   2.356   0.700
12331WAT      O37234   4.503   1.036   6.848
12331WAT     H137235   4.447   0.959   6.881
12331WAT     H237236   4.572   1.002   6.784
12332WAT      O37237   2.457   8.804   9.244
12332WAT     H137238   2.403   8.791   9.161
12332WAT     H237239   2.532   8.737   9.245
12333WAT      O37240   9.677   2.595   5.734
12333WAT     H137241   9.661   2.694   5.727
12333WAT     H237242   9.757   2.571   5.679
12334WAT      O37243   8.611   6.179   5.431
12334WAT     H137244   8.666   6.182   5.515
12334WAT     H237245   8.671   6.187   5.351
12335WAT      O37246   4.039   6.915   0.121
12335WAT     H137247   4.119   6.887   0.068
12335WAT     H237248   3.961   6.859   0.095
12336WAT      O37249   5.548   3.446   4.417
12336WAT     H137250   5.499   3.359   4.406
12336WAT     H237251   5.555   3.469   4.514
12337WAT      O37252   6.354   7.771   1.742
12337WAT     H137253   6.338   7.793   1.838
12337WAT     H237254   6.335   7.851   1.686
12338WAT      O37255   8.921   5.336   0.072
12338WAT     H137256   8.840   5.388   0.044
12338WAT     H237257   8.893   5.254   0.120
12339WAT      O37258   8.019   5.912   2.505
12339WAT     H137259   7.944   5.895   2.441
12339WAT     H237260   8.009   6.004   2.544
12340WAT      O37261   8.590   0.255   3.488
12340WAT     H137262   8.594   0.290   3.582
12340WAT     H237263   8.617   0.159   3.488
12341WAT      O37264   4.590   7.559   3.698
12341WAT     H137265   4.530   7.596   3.769
12341WAT     H237266   4.676   7.610   3.696
12342WAT      O37267   3.450   0.907   2.499
12342WAT     H137268   3.516   0.841   2.536
12342WAT     H237269   3.387   0.936   2.571
12343WAT      O37270   1.343   5.413   9.082
12343WAT     H137271   1.311   5.423   8.988
12343WAT     H237272   1.298   5.479   9.141
12344WAT      O37273   8.926   0.916   7.619
12344WAT     H137274   9.011   0.874   7.588
12344WAT     H237275   8.857   0.846   7.633
12345WAT      O37276   2.901   9.521   6.938
12345WAT     H137277   2.971   9.465   6.893
12345WAT     H237278   2.934   9.551   7.027
12346WAT      O37279   9.829   7.854   6.681
12346WAT     H137280   9.925   7.878   6.688
12346WAT     H237281   9.799   7.809   6.765
12347WAT      O37282   9.291   5.736   4.363
12347WAT     H137283   9.373   5.702   4.410
12347WAT     H237284   9.271   5.829   4.394
12348WAT      O37285   7.449   5.415   8.323
12348WAT     H137286   7.400   5.442   8.241
12348WAT     H237287   7.400   5.446   8.404
12349WAT      O37288   9.583   4.559   0.797
12349WAT     H137289   9.543   4.527   0.883
12349WAT     H237290   9.680   4.578   0.810
12350WAT      O37291   0.575   7.896   7.751
12350WAT     H137292   0.531   7.985   7.740
12350WAT     H237293   0.511   7.832   7.793
12351WAT      O37294   9.065   6.333   1.077
12351WAT     H137295   8.980   6.386   1.070
12351WAT     H237296   9.100   6.338   1.170
12352WAT      O37297   0.808   1.334   3.840
12352WAT     H137298   0.884   1.296   3.893
12352WAT     H237299   0.790   1.428   3.871
12353WAT      O37300   6.028   1.075   1.304
12353WAT     H137301   6.059   1.085   1.209
12353WAT     H237302   5.999   1.164   1.339
12354WAT      O37303   3.613   4.437   3.823
12354WAT     H137304   3.627   4.388   3.737
12354WAT     H237305   3.613   4.536   3.805
12355WAT      O37306   4.668   5.666   4.018
12355WAT     H137307   4.648   5.740   4.082
12355WAT     H237308   4.767   5.648   4.019
12356WAT      O37309   0.418   5.865   2.536
12356WAT     H137310   0.406   5.867   2.437
12356WAT     H237311   0.375   5.945   2.577
12357WAT      O37312   3.790   9.820   6.433
12357WAT     H137313   3.727   9.875   6.488
12357WAT     H237314   3.805   9.731   6.477
12358WAT      O37315   5.238   0.997   4.748
12358WAT     H137316   5.312   0.942   4.787
12358WAT     H237317   5.152   0.948   4.755
12359WAT      O37318   8.568   2.670   1.253
12359WAT     H137319   8.525   2.601   1.195
12359WAT     H237320   8.608   2.742   1.196
12360WAT      O37321   2.717   3.464   1.739
12360WAT     H137322   2.804   3.465   1.787
12360WAT     H237323   2.670   3.378   1.756
12361WAT      O37324   1.467   2.534   7.094
12361WAT     H137325   1.434   2.482   7.016
12361WAT     H237326   1.500   2.471   7.165
12362WAT      O37327   9.692   2.991   9.164
12362WAT     H137328   9.696   3.052   9.243
12362WAT     H237329   9.653   2.903   9.192
12363WAT      O37330   0.177   4.868   2.089
12363WAT     H137331   0.264   4.875   2.041
12363WAT     H237332   0.128   4.787   2.058
12364WAT      O37333   6.178   5.465   9.407
12364WAT     H137334   6.273   5.435   9.398
12364WAT     H237335   6.174   5.545   9.467
12365WAT      O37336   3.176   7.635   0.776
12365WAT     H137337   3.273   7.653   0.796
12365WAT     H237338   3.122   7.716   0.799
12366WAT      O37339   1.052   2.380   3.038
12366WAT     H137340   1.010   2.313   2.977
12366WAT     H237341   1.060   2.468   2.992
12367WAT      O37342   9.822   0.242   2.293
12367WAT     H137343   9.762   0.310   2.251
12367WAT     H237344   9.917   0.275   2.291
12368WAT      O37345   4.031   4.901   0.218
12368WAT     H137346   4.113   4.912   0.274
12368WAT     H237347   3.988   4.991   0.206
12369WAT      O37348   8.321   6.970   4.827
12369WAT     H137349   8.411   6.933   4.802
12369WAT     H237350   8.259   6.895   4.848
12370WAT      O37351   6.075   2.778   9.300
12370WAT     H137352   6.028   2.841   9.237
12370WAT     H237353   6.153   2.824   9.342
12371WAT      O37354   2.904   3.551   8.781
12371WAT     H137355   2.838   3.626   8.792
12371WAT     H237356   2.858   3.472   8.741
12372WAT      O37357   4.092   1.042   2.769
12372WAT     H137358   4.089   0.989   2.854
12372WAT     H237359   3.999   1.057   2.735
12373WAT      O37360   1.294   7.054   8.761
12373WAT     H137361   1.287   6.961   8.723
12373WAT     H237362   1.202   7.090   8.775
12374WAT      O37363   7.492   6.223   3.446
12374WAT     H137364   7.508   6.160   3.522
12374WAT     H237365   7.568   6.288   3.440
12375WAT      O37366   3.953   1.416   3.077
12375WAT     H137367   3.916   1.498   3.033
12375WAT     H237368   3.974   1.437   3.173
12376WAT      O37369   5.624   4.822   1.086
12376WAT     H137370   5.602   4.913   1.120
12376WAT     H237371   5.633   4.825   0.986
12377WAT      O37372   7.877   9.378   2.362
12377WAT     H137373   7.857   9.286   2.395
12377WAT     H237374   7.976   9.389   2.354
12378WAT      O37375   7.902   3.384   1.999
12378WAT     H137376   7.821   3.345   2.043
12378WAT     H237377   7.950   3.311   1.949
12379WAT      O37378   8.689   8.608   2.510
12379WAT     H137379   8.648   8.692   2.545
12379WAT     H237380   8.663   8.531   2.569
12380WAT      O37381   2.729   1.633   4.180
12380WAT     H137382   2.732   1.673   4.272
12380WAT     H237383   2.808   1.664   4.128
12381WAT      O37384   2.958   4.568   0.991
12381WAT     H137385   2.886   4.530   1.049
12381WAT     H237386   2.940   4.546   0.895
12382WAT      O37387   2.595   9.831   7.803
12382WAT     H137388   2.496   9.826   7.812
12382WAT     H237389   2.632   9.887   7.878
12383WAT      O37390   6.979   3.271   6.935
12383WAT     H137391   7.025   3.309   7.015
12383WAT     H237392   6.968   3.172   6.947
12384WAT      O37393   2.108   3.910   2.877
12384WAT     H137394   2.059   3.823   2.880
12384WAT     H237395   2.206   3.893   2.873
12385WAT      O37396   2.537   7.818   9.146
12385WAT     H137397   2.591   7.746   9.189
12385WAT     H237398   2.441   7.790   9.141
12386WAT      O37399   9.225   1.486   4.674
12386WAT     H137400   9.159   1.556   4.703
12386WAT     H237401   9.305   1.532   4.634
12387WAT      O37402   3.881   4.058   2.834
12387WAT     H137403   3.842   4.023   2.748
12387WAT     H237404   3.823   4.029   2.910
12388WAT      O37405   3.295   3.523   0.059
12388WAT     H137406   3.255   3.432   0.048
12388WAT     H237407   3.382   3.515   0.108
12389WAT      O37408   3.865   4.448   1.228
12389WAT     H137409   3.906   4.366   1.266
12389WAT     H237410   3.902   4.529   1.274
12390WAT      O37411   2.361   8.902   5.905
12390WAT     H137412   2.344   8.906   5.807
12390WAT     H237413   2.367   8.995   5.941
12391WAT      O37414   4.636   0.945   0.002
12391WAT     H137415   4.582   0.996   0.069
12391WAT     H237416   4.688   1.010  -0.055
12392WAT      O37417   5.726   6.033   9.439
12392WAT     H137418   5.714   6.133   9.440
12392WAT     H237419   5.639   5.990   9.465
12393WAT      O37420   4.876   8.609   5.182
12393WAT     H137421   4.822   8.629   5.100
12393WAT     H237422   4.825   8.639   5.263
12394WAT      O37423   2.605   9.471   7.302
12394WAT     H137424   2.587   9.427   7.214
12394WAT     H237425   2.664   9.551   7.288
12395WAT      O37426   9.328   8.877   5.048
12395WAT     H137427   9.251   8.863   4.986
12395WAT     H237428   9.376   8.962   5.024
12396WAT      O37429   4.620   5.185   0.689
12396WAT     H137430   4.621   5.241   0.607
12396WAT     H237431   4.711   5.145   0.703
12397WAT      O37432   2.732   5.158   7.743
12397WAT     H137433   2.799   5.089   7.717
12397WAT     H237434   2.642   5.132   7.709
12398WAT      O37435   5.060   1.094   3.333
12398WAT     H137436   5.107   1.175   3.369
12398WAT     H237437   5.106   1.012   3.368
12399WAT      O37438   4.808   2.567   9.188
12399WAT     H137439   4.829   2.590   9.283
12399WAT     H237440   4.851   2.480   9.164
12400WAT      O37441   4.388   2.039   0.401
12400WAT     H137442   4.330   1.968   0.442
12400WAT     H237443   4.373   2.126   0.448
12401WAT      O37444   9.094   2.121   3.698
12401WAT     H137445   9.099   2.107   3.797
12401WAT     H237446   9.057   2.039   3.654
12402WAT      O37447   6.030   1.712   8.425
12402WAT     H137448   6.033   1.650   8.346
12402WAT     H237449   5.979   1.795   8.400
12403WAT      O37450   5.446   2.476   5.555
12403WAT     H137451   5.449   2.376   5.555
12403WAT     H237452   5.351   2.506   5.547
12404WAT      O37453   7.682   3.198   7.240
12404WAT     H137454   7.731   3.120   7.280
12404WAT     H237455   7.707   3.207   7.143
12405WAT      O37456   8.080   9.306   6.146
12405WAT     H137457   8.128   9.372   6.089
12405WAT     H237458   8.142   9.272   6.217
12406WAT      O37459   1.067   1.082   7.779
12406WAT     H137460   1.001   1.109   7.850
12406WAT     H237461   1.037   1.116   7.690
12407WAT      O37462   7.021   9.576   8.878
12407WAT     H137463   7.030   9.519   8.959
12407WAT     H237464   6.968   9.526   8.808
12408WAT      O37465   3.415   6.669   6.950
12408WAT     H137466   3.376   6.754   6.916
12408WAT     H237467   3.509   6.661   6.918
12409WAT      O37468   9.731   5.607   3.312
12409WAT     H137469   9.701   5.688   3.263
12409WAT     H237470   9.652   5.558   3.349
12410WAT      O37471   3.697   7.003   8.961
12410WAT     H137472   3.651   7.040   9.042
12410WAT     H237473   3.796   7.009   8.973
12411WAT      O37474   8.038   9.413   1.612
12411WAT     H137475   8.020   9.467   1.695
12411WAT     H237476   8.020   9.469   1.531
12412WAT      O37477   3.393   8.706   3.191
12412WAT     H137478   3.342   8.791   3.201
12412WAT     H237479   3.365   8.660   3.107
12413WAT      O37480   2.396   7.011   5.424
12413WAT     H137481   2.464   6.999   5.496
12413WAT     H237482   2.409   6.942   5.353
12414WAT      O37483   9.490   3.217   8.639
12414WAT     H137484   9.567   3.267   8.677
12414WAT     H237485   9.497   3.120   8.665
12415WAT      O37486   1.654   1.853   3.906
12415WAT     H137487   1.715   1.902   3.843
12415WAT     H237488   1.634   1.762   3.868
12416WAT      O37489   8.366   2.475   4.507
12416WAT     H137490   8.270   2.482   4.478
12416WAT     H237491   8.420   2.545   4.460
12417WAT      O37492   6.820   0.505   5.912
12417WAT     H137493   6.879   0.494   5.832
12417WAT     H237494   6.798   0.602   5.924
12418WAT      O37495   3.186   6.574   4.384
12418WAT     H137496   3.219   6.551   4.292
12418WAT     H237497   3.260   6.563   4.450
12419WAT      O37498   3.393   5.920   3.459
12419WAT     H137499   3.362   5.985   3.389
12419WAT     H237500   3.491   5.932   3.475
12420WAT      O37501   9.536   2.972   8.725
12420WAT     H137502   9.636   2.983   8.727
12420WAT     H237503   9.512   2.891   8.673
12421WAT      O37504   4.127   1.470   1.778
12421WAT     H137505   4.095   1.565   1.773
12421WAT     H237506   4.181   1.458   1.861
12422WAT      O37507   6.772   9.827   7.433
12422WAT     H137508   6.795   9.792   7.524
12422WAT     H237509   6.730   9.918   7.442
12423WAT      O37510   2.901   2.093   9.789
12423WAT     H137511   2.946   2.087   9.700
12423WAT     H237512   2.803   2.076   9.779
12424WAT      O37513   9.722   9.401   2.798
12424WAT     H137514   9.746   9.304   2.793
12424WAT     H237515   9.735   9.443   2.708
12425WAT      O37516   5.971   2.175   4.218
12425WAT     H137517   5.872   2.189   4.218
12425WAT     H237518   6.013   2.233   4.148
12426WAT      O37519   0.406   6.385   5.595
12426WAT     H137520   0.454   6.453   5.650
12426WAT     H237521   0.413   6.296   5.638
12427WAT      O37522   9.725   3.763   5.965
12427WAT     H137523   9.823   3.744   5.965
12427WAT     H237524   9.699   3.808   5.880
12428WAT      O37525   4.710   3.552   4.931
12428WAT     H137526   4.612   3.569   4.916
12428WAT     H237527   4.762   3.632   4.901
12429WAT      O37528   4.471   9.630   3.885
12429WAT     H137529   4.452   9.588   3.974
12429WAT     H237530   4.439   9.570   3.812
12430WAT      O37531   0.592   5.148   3.136
12430WAT     H137532   0.657   5.118   3.066
12430WAT     H237533   0.525   5.209   3.095
12431WAT      O37534   9.097   3.180   4.752
12431WAT     H137535   9.006   3.141   4.739
12431WAT     H237536   9.107   3.262   4.696
12432WAT      O37537   2.422   1.634   1.758
12432WAT     H137538   2.345   1.673   1.708
12432WAT     H237539   2.485   1.707   1.783
12433WAT      O37540   3.977   7.741   6.733
12433WAT     H137541   3.900   7.684   6.760
12433WAT     H237542   3.942   7.829   6.699
12434WAT      O37543   3.895   7.900   3.710
12434WAT     H137544   3.919   7.816   3.758
12434WAT     H237545   3.919   7.892   3.614
12435WAT      O37546   3.113   9.152   3.500
12435WAT     H137547   3.018   9.156   3.468
12435WAT     H237548   3.138   9.239   3.542
12436WAT      O37549   3.640   9.822   1.606
12436WAT     H137550   3.635   9.747   1.673
12436WAT     H237551   3.547   9.852   1.584
12437WAT      O37552   7.455   9.777   9.060
12437WAT     H137553   7.393   9.715   9.108
12437WAT     H237554   7.427   9.872   9.076
12438WAT      O37555   8.677   9.340   0.011
12438WAT     H137556   8.597   9.362  -0.045
12438WAT     H237557   8.682   9.403   0.088
12439WAT      O37558   9.441   8.668   5.493
12439WAT     H137559   9.484   8.580   5.470
12439WAT     H237560   9.365   8.652   5.556
12440WAT      O37561   3.550   9.102   5.294
12440WAT     H137562   3.645   9.117   5.268
12440WAT     H237563   3.541   9.010   5.334
12441WAT      O37564   9.517   8.599   1.558
12441WAT     H137565   9.615   8.587   1.568
12441WAT     H237566   9.492   8.589   1.461
12442WAT      O37567   7.691   7.306   5.305
12442WAT     H137568   7.727   7.397   5.326
12442WAT     H237569   7.592   7.309   5.302
12443WAT      O37570   6.610   4.252   8.799
12443WAT     H137571   6.708   4.269   8.808
12443WAT     H237572   6.585   4.168   8.846
12444WAT      O37573   7.729   4.646   2.427
12444WAT     H137574   7.718   4.717   2.496
12444WAT     H237575   7.730   4.689   2.336
12445WAT      O37576   6.632   3.434   0.241
12445WAT     H137577   6.555   3.498   0.235
12445WAT     H237578   6.684   3.438   0.156
12446WAT      O37579   5.549   7.273   5.665
12446WAT     H137580   5.595   7.200   5.614
12446WAT     H237581   5.532   7.242   5.759
12447WAT      O37582   9.861   5.810   7.330
12447WAT     H137583   9.815   5.791   7.417
12447WAT     H237584   9.796   5.796   7.255
12448WAT      O37585   7.144   2.173   2.552
12448WAT     H137586   7.134   2.117   2.470
12448WAT     H237587   7.123   2.118   2.633
12449WAT      O37588   6.814   8.322   2.765
12449WAT     H137589   6.804   8.223   2.759
12449WAT     H237590   6.889   8.345   2.827
12450WAT      O37591   9.591   4.147   4.166
12450WAT     H137592   9.670   4.170   4.109
12450WAT     H237593   9.567   4.051   4.152
12451WAT      O37594   2.647   9.760   4.269
12451WAT     H137595   2.631   9.711   4.355
12451WAT     H237596   2.585   9.838   4.263
12452WAT      O37597   8.649   4.066   6.749
12452WAT     H137598   8.685   4.117   6.670
12452WAT     H237599   8.561   4.025   6.724
12453WAT      O37600   6.344   0.151   9.096
12453WAT     H137601   6.389   0.086   9.035
12453WAT     H237602   6.406   0.228   9.114
12454WAT      O37603   4.419   0.177   3.391
12454WAT     H137604   4.489   0.141   3.453
12454WAT     H237605   4.343   0.213   3.445
12455WAT      O37606   6.700   0.975   6.107
12455WAT     H137607   6.739   0.962   6.199
12455WAT     H237608   6.697   1.072   6.085
12456WAT      O37609   5.104   1.083   7.166
12456WAT     H137610   5.095   1.143   7.245
12456WAT     H237611   5.181   1.114   7.110
12457WAT      O37612   2.727   4.136   7.510
12457WAT     H137613   2.777   4.053   7.485
12457WAT     H237614   2.791   4.207   7.538
12458WAT      O37615   4.988   3.716   5.917
12458WAT     H137616   4.910   3.720   5.855
12458WAT     H237617   4.956   3.728   6.011
12459WAT      O37618   2.536   7.046   0.049
12459WAT     H137619   2.576   6.956   0.032
12459WAT     H237620   2.449   7.035   0.097
12460WAT      O37621   1.705   3.780   4.960
12460WAT     H137622   1.783   3.796   5.020
12460WAT     H237623   1.696   3.856   4.896
12461WAT      O37624   7.469   6.172   8.506
12461WAT     H137625   7.394   6.168   8.571
12461WAT     H237626   7.544   6.226   8.544
12462WAT      O37627   0.594   5.476   2.072
12462WAT     H137628   0.538   5.448   2.149
12462WAT     H237629   0.603   5.400   2.007
12463WAT      O37630   4.525   1.382   4.198
12463WAT     H137631   4.618   1.414   4.217
12463WAT     H237632   4.461   1.424   4.262
12464WAT      O37633   0.486   6.689   6.767
12464WAT     H137634   0.483   6.645   6.678
12464WAT     H237635   0.569   6.746   6.773
12465WAT      O37636   3.823   2.809   2.568
12465WAT     H137637   3.743   2.759   2.600
12465WAT     H237638   3.872   2.848   2.647
12466WAT      O37639   6.086   2.984   4.074
12466WAT     H137640   6.165   2.959   4.018
12466WAT     H237641   6.061   3.079   4.055
12467WAT      O37642   1.510   4.567   5.794
12467WAT     H137643   1.606   4.563   5.766
12467WAT     H237644   1.452   4.560   5.713
12468WAT      O37645   0.653   2.928   1.437
12468WAT     H137646   0.609   2.838   1.434
12468WAT     H237647   0.597   2.991   1.491
12469WAT      O37648   7.663   3.928   1.886
12469WAT     H137649   7.630   3.850   1.940
12469WAT     H237650   7.602   3.943   1.808
12470WAT      O37651   4.800   1.516   1.392
12470WAT     H137652   4.710   1.485   1.421
12470WAT     H237653   4.841   1.573   1.464
12471WAT      O37654   0.426   9.057   3.491
12471WAT     H137655   0.472   9.141   3.463
12471WAT     H237656   0.429   8.991   3.416
12472WAT      O37657   9.833   5.721   0.313
12472WAT     H137658   9.834   5.764   0.403
12472WAT     H237659   9.740   5.717   0.279
12473WAT      O37660   9.026   7.810   0.260
12473WAT     H137661   9.089   7.838   0.332
12473WAT     H237662   9.078   7.770   0.184
12474WAT      O37663   0.996   8.893   9.807
12474WAT     H137664   0.897   8.897   9.791
12474WAT     H237665   1.043   8.943   9.734
12475WAT      O37666   7.637   6.681   4.418
12475WAT     H137667   7.670   6.726   4.501
12475WAT     H237668   7.701   6.698   4.343
12476WAT      O37669   3.292   2.743   3.225
12476WAT     H137670   3.285   2.825   3.282
12476WAT     H237671   3.372   2.751   3.165
12477WAT      O37672   1.709   7.645   0.020
12477WAT     H137673   1.772   7.691  -0.043
12477WAT     H237674   1.747   7.557   0.047
12478WAT      O37675   5.417   1.483   8.271
12478WAT     H137676   5.460   1.411   8.326
12478WAT     H237677   5.436   1.467   8.174
12479WAT      O37678   3.309   5.054   4.336
12479WAT     H137679   3.274   4.967   4.301
12479WAT     H237680   3.344   5.041   4.429
12480WAT      O37681   3.214   4.619   1.058
12480WAT     H137682   3.267   4.536   1.076
12480WAT     H237683   3.125   4.594   1.020
12481WAT      O37684   7.886   9.015   0.702
12481WAT     H137685   7.930   9.013   0.612
12481WAT     H237686   7.951   8.983   0.771
12482WAT      O37687   9.759   2.158   0.564
12482WAT     H137688   9.678   2.209   0.535
12482WAT     H237689   9.739   2.060   0.564
12483WAT      O37690   4.083   6.342   1.428
12483WAT     H137691   4.054   6.260   1.476
12483WAT     H237692   4.183   6.350   1.433
12484WAT      O37693   1.383   9.699   3.738
12484WAT     H137694   1.419   9.605   3.740
12484WAT     H237695   1.399   9.742   3.827
12485WAT      O37696   5.373   7.103   8.753
12485WAT     H137697   5.419   7.119   8.841
12485WAT     H237698   5.425   7.036   8.700
12486WAT      O37699   7.129   1.770   3.535
12486WAT     H137700   7.119   1.825   3.618
12486WAT     H237701   7.063   1.802   3.467
12487WAT      O37702   1.736   0.032   2.842
12487WAT     H137703   1.795   0.051   2.764
12487WAT     H237704   1.776  -0.041   2.897
12488WAT      O37705   8.337   8.993   3.915
12488WAT     H137706   8.303   8.947   3.833
12488WAT     H237707   8.381   8.927   3.975
12489WAT      O37708   6.578   9.617   2.632
12489WAT     H137709   6.578   9.714   2.656
12489WAT     H237710   6.635   9.603   2.551
12490WAT      O37711   0.369   2.421   5.065
12490WAT     H137712   0.365   2.330   5.023
12490WAT     H237713   0.459   2.436   5.105
12491WAT      O37714   7.736   2.077   4.796
12491WAT     H137715   7.786   2.043   4.716
12491WAT     H237716   7.637   2.073   4.778
12492WAT      O37717   0.052   6.463   9.543
12492WAT     H137718   0.052   6.450   9.444
12492WAT     H237719  -0.005   6.393   9.586
12493WAT      O37720   7.511   3.059   1.765
12493WAT     H137721   7.591   3.046   1.707
12493WAT     H237722   7.428   3.052   1.710
12494WAT      O37723   0.744   3.722   2.188
12494WAT     H137724   0.698   3.688   2.106
12494WAT     H237725   0.805   3.797   2.163
12495WAT      O37726   4.649   1.551   9.748
12495WAT     H137727   4.574   1.561   9.682
12495WAT     H237728   4.614   1.566   9.840
12496WAT      O37729   6.280   9.498   4.275
12496WAT     H137730   6.226   9.523   4.356
12496WAT     H237731   6.227   9.434   4.219
12497WAT      O37732   9.555   7.787   6.768
12497WAT     H137733   9.460   7.758   6.771
12497WAT     H237734   9.586   7.792   6.673
12498WAT      O37735   4.097   4.570   1.984
12498WAT     H137736   3.999   4.574   1.968
12498WAT     H237737   4.133   4.483   1.952
12499WAT      O37738   6.945   4.138   9.815
12499WAT     H137739   7.011   4.207   9.847
12499WAT     H237740   6.975   4.047   9.846
12500WAT      O37741   7.832   7.834   1.380
12500WAT     H137742   7.753   7.894   1.365
12500WAT     H237743   7.889   7.833   1.298
12501WAT      O37744   6.146   5.101   5.103
12501WAT     H137745   6.063   5.084   5.050
12501WAT     H237746   6.134   5.063   5.195
12502WAT      O37747   2.917   6.042   1.043
12502WAT     H137748   2.925   6.124   1.100
12502WAT     H237749   2.942   6.064   0.948
12503WAT      O37750   5.291   0.531   7.495
12503WAT     H137751   5.368   0.477   7.459
12503WAT     H237752   5.249   0.582   7.420
12504WAT      O37753   9.722   0.843   6.426
12504WAT     H137754   9.761   0.887   6.507
12504WAT     H237755   9.657   0.772   6.455
12505WAT      O37756   6.151   7.387   0.653
12505WAT     H137757   6.066   7.341   0.677
12505WAT     H237758   6.136   7.485   0.645
12506WAT      O37759   6.788   5.222   4.166
12506WAT     H137760   6.751   5.177   4.085
12506WAT     H237761   6.884   5.196   4.178
12507WAT      O37762   9.470   6.710   1.020
12507WAT     H137763   9.414   6.629   1.002
12507WAT     H237764   9.566   6.685   1.021
12508WAT      O37765   4.811   0.858   3.957
12508WAT     H137766   4.909   0.841   3.965
12508WAT     H237767   4.795   0.935   3.895
12509WAT      O37768   7.063   8.755   3.096
12509WAT     H137769   7.116   8.840   3.091
12509WAT     H237770   7.116   8.686   3.144
12510WAT      O37771   6.202   2.541   2.012
12510WAT     H137772   6.178   2.639   2.011
12510WAT     H237773   6.278   2.526   2.074
12511WAT      O37774   5.403   7.536   8.133
12511WAT     H137775   5.443   7.596   8.202
12511WAT     H237776   5.346   7.590   8.071
12512WAT      O37777   3.449   2.762   2.000
12512WAT     H137778   3.544   2.777   2.027
12512WAT     H237779   3.412   2.846   1.958
12513WAT      O37780   7.484   4.776   5.737
12513WAT     H137781   7.503   4.864   5.693
12513WAT     H237782   7.441   4.791   5.826
12514WAT      O37783   1.124   8.924   0.874
12514WAT     H137784   1.155   9.018   0.858
12514WAT     H237785   1.040   8.907   0.822
12515WAT      O37786   7.036   6.170   5.598
12515WAT     H137787   7.075   6.215   5.518
12515WAT     H237788   7.085   6.084   5.615
12516WAT      O37789   1.157   0.511   4.096
12516WAT     H137790   1.196   0.514   4.188
12516WAT     H237791   1.087   0.440   4.092
12517WAT      O37792   4.301   3.270   6.686
12517WAT     H137793   4.211   3.298   6.652
12517WAT     H237794   4.329   3.185   6.640
12518WAT      O37795   3.628   3.939   9.423
12518WAT     H137796   3.690   4.016   9.411
12518WAT     H237797   3.681   3.854   9.418
12519WAT      O37798   2.185   5.642   8.436
12519WAT     H137799   2.284   5.656   8.433
12519WAT     H237800   2.144   5.679   8.353
12520WAT      O37801   4.189   3.896   7.779
12520WAT     H137802   4.204   3.881   7.877
12520WAT     H237803   4.133   3.821   7.743
12521WAT      O37804   5.273   5.944   3.989
12521WAT     H137805   5.368   5.966   3.966
12521WAT     H237806   5.264   5.932   4.088
12522WAT      O37807   6.023   6.469   7.405
12522WAT     H137808   6.089   6.537   7.435
12522WAT     H237809   6.070   6.383   7.386
12523WAT      O37810   6.234   8.034   7.743
12523WAT     H137811   6.157   8.078   7.697
12523WAT     H237812   6.230   7.935   7.726
12524WAT      O37813   5.392   6.777   4.298
12524WAT     H137814   5.443   6.793   4.382
12524WAT     H237815   5.380   6.863   4.249
12525WAT      O37816   9.151   1.043   0.412
12525WAT     H137817   9.069   1.097   0.432
12525WAT     H237818   9.221   1.063   0.481
12526WAT      O37819   4.456   8.067   1.477
12526WAT     H137820   4.462   7.987   1.417
12526WAT     H237821   4.537   8.125   1.463
12527WAT      O37822   0.062   1.253   1.395
12527WAT     H137823  -0.033   1.255   1.364
12527WAT     H237824   0.105   1.167   1.367
12528WAT      O37825   0.671   7.010   2.480
12528WAT     H137826   0.708   6.936   2.536
12528WAT     H237827   0.578   7.031   2.508
12529WAT      O37828   3.647   6.939   3.418
12529WAT     H137829   3.594   6.864   3.457
12529WAT     H237830   3.605   7.026   3.442
12530WAT      O37831   5.742   7.378   6.214
12530WAT     H137832   5.655   7.355   6.170
12530WAT     H237833   5.770   7.302   6.272
12531WAT      O37834   2.070   7.648   8.457
12531WAT     H137835   2.004   7.673   8.387
12531WAT     H237836   2.059   7.707   8.537
12532WAT      O37837   1.915   1.055   3.893
12532WAT     H137838   2.003   1.012   3.871
12532WAT     H237839   1.843   0.986   3.891
12533WAT      O37840   2.744   0.682   3.342
12533WAT     H137841   2.770   0.764   3.391
12533WAT     H237842   2.661   0.644   3.381
12534WAT      O37843   4.811   2.793   8.077
12534WAT     H137844   4.808   2.803   7.978
12534WAT     H237845   4.732   2.740   8.108
12535WAT      O37846   5.379   5.058   3.364
12535WAT     H137847   5.323   5.000   3.422
12535WAT     H237848   5.437   5.117   3.422
12536WAT      O37849   2.226   3.077   0.449
12536WAT     H137850   2.263   3.112   0.363
12536WAT     H237851   2.297   3.024   0.496
12537WAT      O37852   2.632   2.236   2.824
12537WAT     H137853   2.546   2.187   2.840
12537WAT     H237854   2.652   2.295   2.901
12538WAT      O37855   0.583   7.546   0.737
12538WAT     H137856   0.607   7.519   0.830
12538WAT     H237857   0.625   7.634   0.717
12539WAT      O37858   3.660   4.124   7.236
12539WAT     H137859   3.739   4.064   7.218
12539WAT     H237860   3.590   4.071   7.284
12540WAT      O37861   0.819   6.394   8.607
12540WAT     H137862   0.856   6.356   8.692
12540WAT     H237863   0.722   6.373   8.601
12541WAT      O37864   3.880   1.500   4.463
12541WAT     H137865   3.817   1.444   4.409
12541WAT     H237866   3.837   1.526   4.549
12542WAT      O37867   4.458   3.985   1.478
12542WAT     H137868   4.551   3.955   1.500
12542WAT     H237869   4.432   4.061   1.538
12543WAT      O37870   0.157   8.847   8.538
12543WAT     H137871   0.166   8.797   8.452
12543WAT     H237872   0.140   8.944   8.519
12544WAT      O37873   5.337   3.995   2.063
12544WAT     H137874   5.390   3.953   2.137
12544WAT     H237875   5.388   4.073   2.026
12545WAT      O37876   3.176   9.388   3.648
12545WAT     H137877   3.259   9.433   3.678
12545WAT     H237878   3.101   9.455   3.643
12546WAT      O37879   6.231   0.148   8.769
12546WAT     H137880   6.225   0.071   8.833
12546WAT     H237881   6.246   0.113   8.676
12547WAT      O37882   9.548   3.278   2.539
12547WAT     H137883   9.592   3.299   2.452
12547WAT     H237884   9.452   3.257   2.524
12548WAT      O37885   0.570   6.133   3.350
12548WAT     H137886   0.559   6.174   3.260
12548WAT     H237887   0.581   6.034   3.341
12549WAT      O37888   5.350   5.338   1.574
12549WAT     H137889   5.348   5.259   1.636
12549WAT     H237890   5.345   5.422   1.628
12550WAT      O37891   0.049   6.797   5.258
12550WAT     H137892  -0.029   6.858   5.274
12550WAT     H237893   0.020   6.719   5.203
12551WAT      O37894   5.581   6.813   5.062
12551WAT     H137895   5.639   6.733   5.070
12551WAT     H237896   5.514   6.798   4.988
12552WAT      O37897   1.616   4.421   1.961
12552WAT     H137898   1.620   4.471   1.874
12552WAT     H237899   1.685   4.458   2.023
12553WAT      O37900   4.673   8.379   2.770
12553WAT     H137901   4.678   8.314   2.845
12553WAT     H237902   4.650   8.331   2.686
12554WAT      O37903   6.282   5.927   0.329
12554WAT     H137904   6.245   5.859   0.266
12554WAT     H237905   6.215   5.947   0.400
12555WAT      O37906   4.071   8.639   6.947
12555WAT     H137907   4.009   8.718   6.949
12555WAT     H237908   4.017   8.555   6.939
12556WAT      O37909   0.122   0.745   9.812
12556WAT     H137910   0.139   0.804   9.733
12556WAT     H237911   0.124   0.800   9.896
12557WAT      O37912   5.704   9.083   4.203
12557WAT     H137913   5.640   9.152   4.236
12557WAT     H237914   5.794   9.125   4.190
12558WAT      O37915   7.200   9.319   0.401
12558WAT     H137916   7.135   9.324   0.477
12558WAT     H237917   7.202   9.225   0.365
12559WAT      O37918   1.560   9.077   6.814
12559WAT     H137919   1.494   9.054   6.886
12559WAT     H237920   1.649   9.037   6.837
12560WAT      O37921   0.531   0.572   8.066
12560WAT     H137922   0.560   0.599   7.975
12560WAT     H237923   0.455   0.629   8.096
12561WAT      O37924   0.878   7.572   3.616
12561WAT     H137925   0.977   7.564   3.622
12561WAT     H237926   0.838   7.551   3.706
12562WAT      O37927   9.540   0.527   8.901
12562WAT     H137928   9.441   0.540   8.906
12562WAT     H237929   9.560   0.437   8.863
12563WAT      O37930   6.163   7.475   3.258
12563WAT     H137931   6.190   7.394   3.206
12563WAT     H237932   6.136   7.448   3.350
12564WAT      O37933   8.922   7.377   7.119
12564WAT     H137934   8.933   7.451   7.053
12564WAT     H237935   8.981   7.395   7.199
12565WAT      O37936   3.984   8.914   2.383
12565WAT     H137937   3.906   8.971   2.356
12565WAT     H237938   3.968   8.820   2.354
12566WAT      O37939   2.116   9.405   8.358
12566WAT     H137940   2.097   9.475   8.427
12566WAT     H237941   2.170   9.331   8.399
12567WAT      O37942   2.355   9.096   3.188
12567WAT     H137943   2.414   9.176   3.182
12567WAT     H237944   2.286   9.101   3.116
12568WAT      O37945   1.287   0.789   7.120
12568WAT     H137946   1.386   0.776   7.121
12568WAT     H237947   1.243   0.706   7.086
12569WAT      O37948   3.210   6.892   7.272
12569WAT     H137949   3.207   6.992   7.277
12569WAT     H237950   3.127   6.855   7.314
12570WAT      O37951   9.316   8.707   2.103
12570WAT     H137952   9.366   8.726   2.018
12570WAT     H237953   9.374   8.728   2.181
12571WAT      O37954   2.963   0.504   5.879
12571WAT     H137955   2.941   0.588   5.829
12571WAT     H237956   3.023   0.447   5.823
12572WAT      O37957   8.136   5.020   6.144
12572WAT     H137958   8.094   4.929   6.139
12572WAT     H237959   8.103   5.068   6.225
12573WAT      O37960   3.538   3.465   1.433
12573WAT     H137961   3.508   3.379   1.391
12573WAT     H237962   3.534   3.457   1.532
12574WAT      O37963   6.408   3.939   6.802
12574WAT     H137964   6.478   3.971   6.865
12574WAT     H237965   6.439   3.953   6.708
12575WAT      O37966   0.218   6.686   5.848
12575WAT     H137967   0.189   6.640   5.764
12575WAT     H237968   0.253   6.619   5.913
12576WAT      O37969   3.647   8.865   7.703
12576WAT     H137970   3.639   8.883   7.605
12576WAT     H237971   3.569   8.904   7.751
12577WAT      O37972   3.828   0.573   7.122
12577WAT     H137973   3.825   0.605   7.217
12577WAT     H237974   3.779   0.486   7.115
12578WAT      O37975   9.415   5.732   2.955
12578WAT     H137976   9.352   5.655   2.943
12578WAT     H237977   9.496   5.717   2.899
12579WAT      O37978   7.442   3.269   2.985
12579WAT     H137979   7.482   3.207   2.917
12579WAT     H237980   7.491   3.260   3.072
12580WAT      O37981   2.969   7.046   7.470
12580WAT     H137982   2.953   7.137   7.433
12580WAT     H237983   3.007   7.053   7.563
12581WAT      O37984   2.579   4.546   3.131
12581WAT     H137985   2.655   4.592   3.176
12581WAT     H237986   2.585   4.448   3.148
12582WAT      O37987   4.276   7.257   8.853
12582WAT     H137988   4.206   7.306   8.801
12582WAT     H237989   4.333   7.322   8.903
12583WAT      O37990   0.982   7.549   0.344
12583WAT     H137991   1.014   7.607   0.269
12583WAT     H237992   0.946   7.463   0.307
12584WAT      O37993   3.300   7.388   6.938
12584WAT     H137994   3.336   7.353   6.852
12584WAT     H237995   3.231   7.458   6.920
12585WAT      O37996   3.963   7.197   8.000
12585WAT     H137997   3.927   7.112   8.038
12585WAT     H237998   4.018   7.177   7.918
12586WAT      O37999   1.672   0.537   1.055
12586WAT     H138000   1.689   0.635   1.058
12586WAT     H238001   1.707   0.500   0.969
12587WAT      O38002   2.365   5.976   8.591
12587WAT     H138003   2.274   5.983   8.631
12587WAT     H238004   2.432   6.018   8.653
12588WAT      O38005   4.427   3.451   8.533
12588WAT     H138006   4.504   3.422   8.590
12588WAT     H238007   4.346   3.397   8.556
12589WAT      O38008   3.472   0.268   7.724
12589WAT     H138009   3.538   0.210   7.772
12589WAT     H238010   3.416   0.316   7.791
12590WAT      O38011   9.588   2.493   9.002
12590WAT     H138012   9.505   2.448   9.035
12590WAT     H238013   9.565   2.583   8.965
12591WAT      O38014   8.856   5.785   3.085
12591WAT     H138015   8.913   5.813   3.163
12591WAT     H238016   8.899   5.706   3.040
12592WAT      O38017   5.803   8.071   9.180
12592WAT     H138018   5.743   8.106   9.109
12592WAT     H238019   5.752   8.062   9.266
12593WAT      O38020   8.408   7.267   9.342
12593WAT     H138021   8.411   7.349   9.285
12593WAT     H238022   8.390   7.187   9.285
12594WAT      O38023   3.843   6.701   8.283
12594WAT     H138024   3.777   6.740   8.220
12594WAT     H238025   3.825   6.734   8.376
12595WAT      O38026   6.934   0.055   5.702
12595WAT     H138027   6.916   0.082   5.797
12595WAT     H238028   6.850   0.064   5.648
12596WAT      O38029   1.235   5.718   5.410
12596WAT     H138030   1.302   5.788   5.435
12596WAT     H238031   1.278   5.648   5.353
12597WAT      O38032   3.248   1.067   6.348
12597WAT     H138033   3.248   1.075   6.248
12597WAT     H238034   3.336   1.098   6.383
12598WAT      O38035   7.181   1.717   5.094
12598WAT     H138036   7.119   1.792   5.073
12598WAT     H238037   7.266   1.729   5.043
12599WAT      O38038   1.969   5.872   2.605
12599WAT     H138039   1.930   5.958   2.571
12599WAT     H238040   1.896   5.806   2.619
12600WAT      O38041   6.093   6.667   5.173
12600WAT     H138042   6.065   6.633   5.263
12600WAT     H238043   6.132   6.759   5.184
12601WAT      O38044   1.744   5.742   7.716
12601WAT     H138045   1.726   5.830   7.672
12601WAT     H238046   1.841   5.736   7.739
12602WAT      O38047   5.911   6.731   5.579
12602WAT     H138048   5.857   6.666   5.633
12602WAT     H238049   5.996   6.752   5.628
12603WAT      O38050   1.134   3.034   4.255
12603WAT     H138051   1.057   3.040   4.192
12603WAT     H238052   1.211   2.990   4.209
12604WAT      O38053   4.360   8.739   4.827
12604WAT     H138054   4.421   8.812   4.856
12604WAT     H238055   4.411   8.654   4.818
12605WAT      O38056   4.154   7.750   2.652
12605WAT     H138057   4.136   7.705   2.739
12605WAT     H238058   4.228   7.816   2.664
12606WAT      O38059   2.200   0.019   9.464
12606WAT     H138060   2.103  -0.005   9.463
12606WAT     H238061   2.215   0.092   9.530
12607WAT      O38062   5.640   4.470   4.649
12607WAT     H138063   5.706   4.422   4.592
12607WAT     H238064   5.689   4.536   4.707
12608WAT      O38065   3.303   8.855   1.986
12608WAT     H138066   3.232   8.923   2.005
12608WAT     H238067   3.322   8.853   1.888
12609WAT      O38068   4.447   8.725   8.439
12609WAT     H138069   4.476   8.753   8.531
12609WAT     H238070   4.352   8.752   8.424
12610WAT      O38071   7.542   4.026   6.289
12610WAT     H138072   7.469   4.035   6.357
12610WAT     H238073   7.630   4.017   6.335
12611WAT      O38074   3.513   9.497   1.784
12611WAT     H138075   3.456   9.521   1.705
12611WAT     H238076   3.493   9.560   1.859
12612WAT      O38077   8.930   2.820   7.535
12612WAT     H138078   8.942   2.785   7.628
12612WAT     H238079   8.979   2.907   7.524
12613WAT      O38080   4.922   2.846   5.383
12613WAT     H138081   4.976   2.929   5.397
12613WAT     H238082   4.974   2.781   5.329
12614WAT      O38083   6.818   4.245   5.862
12614WAT     H138084   6.849   4.153   5.887
12614WAT     H238085   6.856   4.271   5.773
12615WAT      O38086   4.761   5.040   8.128
12615WAT     H138087   4.701   4.976   8.175
12615WAT     H238088   4.723   5.132   8.134
12616WAT      O38089   4.046   1.117   2.407
12616WAT     H138090   4.025   1.057   2.331
12616WAT     H238091   3.972   1.114   2.474
12617WAT      O38092   7.187   6.684   0.510
12617WAT     H138093   7.257   6.712   0.576
12617WAT     H238094   7.097   6.713   0.543
12618WAT      O38095   3.300   5.929   2.370
12618WAT     H138096   3.229   5.859   2.367
12618WAT     H238097   3.381   5.897   2.321
12619WAT      O38098   9.848   6.857   4.910
12619WAT     H138099   9.825   6.784   4.974
12619WAT     H238100   9.799   6.842   4.824
12620WAT      O38101   7.167   4.180   6.068
12620WAT     H138102   7.107   4.254   6.100
12620WAT     H238103   7.161   4.172   5.969
12621WAT      O38104   4.889   7.805   5.462
12621WAT     H138105   4.903   7.831   5.367
12621WAT     H238106   4.907   7.707   5.473
12622WAT      O38107   6.349   0.797   0.825
12622WAT     H138108   6.447   0.795   0.843
12622WAT     H238109   6.311   0.883   0.860
12623WAT      O38110   8.138   2.047   4.614
12623WAT     H138111   8.166   2.011   4.703
12623WAT     H238112   8.206   2.112   4.581
12624WAT      O38113   6.814   1.653   0.075
12624WAT     H138114   6.716   1.659   0.094
12624WAT     H238115   6.853   1.579   0.129
12625WAT      O38116   6.313   8.327   3.530
12625WAT     H138117   6.230   8.363   3.487
12625WAT     H238118   6.390   8.340   3.468
12626WAT      O38119   2.433   6.870   6.370
12626WAT     H138120   2.472   6.926   6.443
12626WAT     H238121   2.447   6.916   6.282
12627WAT      O38122   7.136   5.399   4.536
12627WAT     H138123   7.172   5.335   4.604
12627WAT     H238124   7.212   5.442   4.487
12628WAT      O38125   3.924   4.576   8.501
12628WAT     H138126   3.877   4.602   8.416
12628WAT     H238127   3.980   4.495   8.484
12629WAT      O38128   2.851   4.848   8.266
12629WAT     H138129   2.795   4.769   8.293
12629WAT     H238130   2.940   4.842   8.312
12630WAT      O38131   5.903   2.360   2.189
12630WAT     H138132   5.875   2.375   2.094
12630WAT     H238133   6.001   2.339   2.192
12631WAT      O38134   2.126   4.532   3.234
12631WAT     H138135   2.155   4.478   3.313
12631WAT     H238136   2.130   4.475   3.152
12632WAT      O38137   9.008   9.658   4.149
12632WAT     H138138   9.026   9.726   4.078
12632WAT     H238139   9.022   9.699   4.239
12633WAT      O38140   7.639   8.816   5.719
12633WAT     H138141   7.576   8.877   5.672
12633WAT     H238142   7.649   8.731   5.666
12634WAT      O38143   3.314   5.031   4.607
12634WAT     H138144   3.392   4.990   4.654
12634WAT     H238145   3.295   5.121   4.645
12635WAT      O38146   1.386   9.249   0.047
12635WAT     H138147   1.364   9.153   0.064
12635WAT     H238148   1.390   9.265  -0.052
12636WAT      O38149   2.347   4.736   6.546
12636WAT     H138150   2.312   4.747   6.639
12636WAT     H238151   2.426   4.675   6.547
12637WAT      O38152   4.865   9.642   1.465
12637WAT     H138153   4.949   9.589   1.479
12637WAT     H238154   4.886   9.739   1.468
12638WAT      O38155   3.558   0.374   7.500
12638WAT     H138156   3.511   0.327   7.575
12638WAT     H238157   3.592   0.463   7.533
12639WAT      O38158   3.138   8.325   4.044
12639WAT     H138159   3.077   8.245   4.043
12639WAT     H238160   3.221   8.303   3.994
12640WAT      O38161   7.615   7.130   2.969
12640WAT     H138162   7.686   7.074   2.927
12640WAT     H238163   7.642   7.154   3.062
12641WAT      O38164   7.488   0.207   5.131
12641WAT     H138165   7.457   0.123   5.086
12641WAT     H238166   7.492   0.282   5.065
12642WAT      O38167   3.815   8.886   8.458
12642WAT     H138168   3.809   8.845   8.550
12642WAT     H238169   3.759   8.969   8.455
12643WAT      O38170   6.049   5.161   4.414
12643WAT     H138171   6.132   5.107   4.396
12643WAT     H238172   5.983   5.105   4.463
12644WAT      O38173   0.430   2.728   7.586
12644WAT     H138174   0.476   2.666   7.649
12644WAT     H238175   0.499   2.781   7.537
12645WAT      O38176   6.558   2.294   1.378
12645WAT     H138177   6.586   2.390   1.387
12645WAT     H238178   6.626   2.244   1.325
12646WAT      O38179   6.671   1.841   9.226
12646WAT     H138180   6.719   1.854   9.313
12646WAT     H238181   6.615   1.922   9.208
12647WAT      O38182   1.264   3.509   9.356
12647WAT     H138183   1.262   3.608   9.366
12647WAT     H238184   1.173   3.477   9.327
12648WAT      O38185   3.797   1.072   2.513
12648WAT     H138186   3.805   1.004   2.586
12648WAT     H238187   3.724   1.046   2.450
12649WAT      O38188   1.392   1.690   3.461
12649WAT     H138189   1.336   1.746   3.523
12649WAT     H238190   1.338   1.667   3.380
12650WAT      O38191   7.291   0.410   9.559
12650WAT     H138192   7.276   0.424   9.657
12650WAT     H238193   7.243   0.327   9.530
12651WAT      O38194   8.119   9.735   9.422
12651WAT     H138195   8.019   9.732   9.411
12651WAT     H238196   8.161   9.671   9.358
12652WAT      O38197   7.609   5.090   8.559
12652WAT     H138198   7.690   5.031   8.569
12652WAT     H238199   7.635   5.172   8.508
12653WAT      O38200   5.854   4.304   2.807
12653WAT     H138201   5.826   4.211   2.782
12653WAT     H238202   5.777   4.367   2.791
12654WAT      O38203   5.623   9.715   7.140
12654WAT     H138204   5.714   9.674   7.151
12654WAT     H238205   5.633   9.805   7.096
12655WAT      O38206   7.888   6.574   2.417
12655WAT     H138207   7.883   6.481   2.383
12655WAT     H238208   7.914   6.636   2.342
12656WAT      O38209   1.933   6.755   7.671
12656WAT     H138210   1.855   6.765   7.734
12656WAT     H238211   2.012   6.803   7.709
12657WAT      O38212   5.820   3.649   3.114
12657WAT     H138213   5.888   3.721   3.122
12657WAT     H238214   5.862   3.561   3.137
12658WAT      O38215   0.548   4.857   6.947
12658WAT     H138216   0.623   4.791   6.945
12658WAT     H238217   0.521   4.881   6.854
12659WAT      O38218   5.157   8.441   1.250
12659WAT     H138219   5.238   8.486   1.212
12659WAT     H238220   5.110   8.504   1.311
12660WAT      O38221   3.190   4.198   8.875
12660WAT     H138222   3.242   4.215   8.791
12660WAT     H238223   3.210   4.107   8.910
12661WAT      O38224   8.663   1.110   6.052
12661WAT     H138225   8.728   1.077   6.121
12661WAT     H238226   8.585   1.152   6.099
12662WAT      O38227   7.570   9.247   3.114
12662WAT     H138228   7.510   9.250   3.193
12662WAT     H238229   7.614   9.157   3.108
12663WAT      O38230   1.903   1.230   9.822
12663WAT     H138231   1.935   1.136   9.832
12663WAT     H238232   1.839   1.235   9.745
12664WAT      O38233   1.052   8.087   7.446
12664WAT     H138234   1.095   8.171   7.413
12664WAT     H238235   1.006   8.041   7.369
12665WAT      O38236   7.228   6.609   5.985
12665WAT     H138237   7.216   6.665   5.904
12665WAT     H238238   7.326   6.602   6.006
12666WAT      O38239   8.636   7.456   6.876
12666WAT     H138240   8.667   7.436   6.782
12666WAT     H238241   8.647   7.374   6.932
12667WAT      O38242   1.349   4.355   5.101
12667WAT     H138243   1.274   4.307   5.145
12667WAT     H238244   1.332   4.454   5.102
12668WAT      O38245   4.396   4.686   0.854
12668WAT     H138246   4.298   4.700   0.841
12668WAT     H238247   4.447   4.745   0.791
12669WAT      O38248   6.657   7.560   3.834
12669WAT     H138249   6.684   7.474   3.793
12669WAT     H238250   6.713   7.634   3.797
12670WAT      O38251   1.282   1.902   2.153
12670WAT     H138252   1.194   1.945   2.134
12670WAT     H238253   1.340   1.910   2.072
12671WAT      O38254   4.166   3.374   5.760
12671WAT     H138255   4.112   3.403   5.839
12671WAT     H238256   4.129   3.290   5.722
12672WAT      O38257   2.136   8.960   8.256
12672WAT     H138258   2.157   9.043   8.308
12672WAT     H238259   2.047   8.925   8.285
12673WAT      O38260   3.059   2.113   4.381
12673WAT     H138261   3.156   2.133   4.372
12673WAT     H238262   3.046   2.032   4.438
12674WAT      O38263   4.096   9.600   6.559
12674WAT     H138264   4.012   9.569   6.515
12674WAT     H238265   4.074   9.671   6.626
12675WAT      O38266   1.222   1.102   2.491
12675WAT     H138267   1.294   1.117   2.422
12675WAT     H238268   1.233   1.167   2.566
12676WAT      O38269   5.983   6.859   6.265
12676WAT     H138270   6.049   6.888   6.334
12676WAT     H238271   6.005   6.767   6.233
12677WAT      O38272   2.829   2.434   8.818
12677WAT     H138273   2.756   2.446   8.886
12677WAT     H238274   2.917   2.435   8.865
12678WAT      O38275   6.033   4.113   5.606
12678WAT     H138276   5.985   4.119   5.518
12678WAT     H238277   6.054   4.018   5.627
12679WAT      O38278   5.089   2.491   1.004
12679WAT     H138279   5.001   2.444   0.995
12679WAT     H238280   5.157   2.448   0.945
12680WAT      O38281   7.616   2.155   2.785
12680WAT     H138282   7.696   2.207   2.754
12680WAT     H238283   7.570   2.114   2.705
12681WAT      O38284   1.263   6.185   2.457
12681WAT     H138285   1.267   6.093   2.417
12681WAT     H238286   1.183   6.191   2.517
12682WAT      O38287   7.712   4.949   1.478
12682WAT     H138288   7.756   4.994   1.556
12682WAT     H238289   7.641   4.887   1.511
12683WAT      O38290   6.735   0.699   3.923
12683WAT     H138291   6.734   0.766   3.996
12683WAT     H238292   6.641   0.674   3.899
12684WAT      O38293   9.532   2.606   4.770
12684WAT     H138294   9.446   2.656   4.784
12684WAT     H238295   9.573   2.585   4.859
12685WAT      O38296   0.503   8.530   9.283
12685WAT     H138297   0.496   8.494   9.376
12685WAT     H238298   0.412   8.553   9.250
12686WAT      O38299   1.779   6.171   8.232
12686WAT     H138300   1.841   6.249   8.223
12686WAT     H238301   1.769   6.148   8.329
12687WAT      O38302   1.354   7.370   3.998
12687WAT     H138303   1.332   7.278   4.031
12687WAT     H238304   1.270   7.422   3.985
12688WAT      O38305   1.982   5.861   9.434
12688WAT     H138306   2.042   5.784   9.456
12688WAT     H238307   2.017   5.944   9.478
12689WAT      O38308   7.686   8.731   0.213
12689WAT     H138309   7.735   8.717   0.300
12689WAT     H238310   7.640   8.819   0.215
12690WAT      O38311   6.262   6.334   1.723
12690WAT     H138312   6.306   6.419   1.695
12690WAT     H238313   6.208   6.351   1.806
12691WAT      O38314   6.219   4.537   4.943
12691WAT     H138315   6.176   4.524   5.033
12691WAT     H238316   6.196   4.459   4.884
12692WAT      O38317   4.946   3.752   2.262
12692WAT     H138318   4.860   3.776   2.307
12692WAT     H238319   4.991   3.679   2.314
12693WAT      O38320   2.525   9.379   7.033
12693WAT     H138321   2.510   9.463   6.981
12693WAT     H238322   2.593   9.323   6.987
12694WAT      O38323   3.671   9.583   2.650
12694WAT     H138324   3.622   9.593   2.563
12694WAT     H238325   3.642   9.499   2.695
12695WAT      O38326   3.564   7.704   8.291
12695WAT     H138327   3.525   7.702   8.199
12695WAT     H238328   3.636   7.634   8.298
12696WAT      O38329   8.704   4.288   1.818
12696WAT     H138330   8.737   4.212   1.873
12696WAT     H238331   8.622   4.327   1.859
12697WAT      O38332   8.016   8.768   1.669
12697WAT     H138333   7.946   8.716   1.620
12697WAT     H238334   7.985   8.787   1.762
12698WAT      O38335   9.242   7.673   7.073
12698WAT     H138336   9.204   7.735   7.142
12698WAT     H238337   9.298   7.604   7.118
12699WAT      O38338   1.047   0.401   3.025
12699WAT     H138339   1.112   0.476   3.022
12699WAT     H238340   0.953   0.437   3.025
12700WAT      O38341   9.221   1.857   7.626
12700WAT     H138342   9.230   1.776   7.568
12700WAT     H238343   9.165   1.925   7.579
12701WAT      O38344   3.608   5.118   3.614
12701WAT     H138345   3.574   5.182   3.682
12701WAT     H238346   3.531   5.080   3.563
12702WAT      O38347   1.498   8.719   6.479
12702WAT     H138348   1.452   8.746   6.395
12702WAT     H238349   1.536   8.800   6.524
12703WAT      O38350   1.866   8.966   0.188
12703WAT     H138351   1.861   8.870   0.215
12703WAT     H238352   1.867   9.024   0.269
12704WAT      O38353   1.780   0.462   7.470
12704WAT     H138354   1.701   0.418   7.512
12704WAT     H238355   1.768   0.466   7.371
12705WAT      O38356   9.608   5.149   5.586
12705WAT     H138357   9.695   5.198   5.589
12705WAT     H238358   9.625   5.051   5.571
12706WAT      O38359   8.209   9.672   6.599
12706WAT     H138360   8.242   9.722   6.520
12706WAT     H238361   8.152   9.595   6.569
12707WAT      O38362   1.044   8.851   2.781
12707WAT     H138363   0.953   8.836   2.742
12707WAT     H238364   1.035   8.882   2.876
12708WAT      O38365   9.804   5.967   5.318
12708WAT     H138366   9.810   6.066   5.330
12708WAT     H238367   9.890   5.933   5.278
12709WAT      O38368   3.958   7.454   2.157
12709WAT     H138369   4.020   7.531   2.141
12709WAT     H238370   3.920   7.422   2.070
12710WAT      O38371   0.231   9.808   7.858
12710WAT     H138372   0.189   9.893   7.826
12710WAT     H238373   0.258   9.817   7.954
12711WAT      O38374   4.641   1.674   0.688
12711WAT     H138375   4.670   1.582   0.715
12711WAT     H238376   4.574   1.669   0.614
12712WAT      O38377   7.462   6.860   0.294
12712WAT     H138378   7.387   6.795   0.301
12712WAT     H238379   7.526   6.829   0.223
12713WAT      O38380   8.582   4.913   8.319
12713WAT     H138381   8.639   4.910   8.401
12713WAT     H238382   8.534   4.826   8.309
12714WAT      O38383   3.500   5.737   4.052
12714WAT     H138384   3.589   5.778   4.069
12714WAT     H238385   3.485   5.731   3.953
12715WAT      O38386   2.918   5.875   9.823
12715WAT     H138387   2.957   5.946   9.764
12715WAT     H238388   2.943   5.894   9.918
12716WAT      O38389   8.960   3.910   5.242
12716WAT     H138390   8.943   3.811   5.236
12716WAT     H238391   8.923   3.945   5.328
12717WAT      O38392   7.815   2.135   6.268
12717WAT     H138393   7.778   2.209   6.212
12717WAT     H238394   7.743   2.068   6.286
12718WAT      O38395   3.653   4.792   2.574
12718WAT     H138396   3.659   4.746   2.663
12718WAT     H238397   3.714   4.871   2.574
12719WAT      O38398   9.641   8.399   4.256
12719WAT     H138399   9.730   8.375   4.295
12719WAT     H238400   9.653   8.433   4.163
12720WAT      O38401   6.565   1.989   6.274
12720WAT     H138402   6.633   1.963   6.206
12720WAT     H238403   6.611   2.030   6.353
12721WAT      O38404   7.699   1.733   4.543
12721WAT     H138405   7.610   1.770   4.570
12721WAT     H238406   7.771   1.795   4.573
12722WAT      O38407   7.815   8.724   7.221
12722WAT     H138408   7.873   8.799   7.254
12722WAT     H238409   7.841   8.639   7.266
12723WAT      O38410   9.168   8.889   5.493
12723WAT     H138411   9.097   8.913   5.427
12723WAT     H238412   9.247   8.949   5.481
12724WAT      O38413   1.959   3.896   1.964
12724WAT     H138414   1.957   3.851   2.054
12724WAT     H238415   1.882   3.959   1.956
12725WAT      O38416   2.760   8.033   0.690
12725WAT     H138417   2.673   8.074   0.665
12725WAT     H238418   2.832   8.103   0.688
12726WAT      O38419   2.892   7.678   9.373
12726WAT     H138420   2.814   7.646   9.320
12726WAT     H238421   2.908   7.774   9.354
12727WAT      O38422   7.324   1.042   5.402
12727WAT     H138423   7.397   1.068   5.339
12727WAT     H238424   7.236   1.075   5.368
12728WAT      O38425   5.841   5.933   9.208
12728WAT     H138426   5.807   5.988   9.285
12728WAT     H238427   5.868   5.843   9.241
12729WAT      O38428   6.206   8.760   0.718
12729WAT     H138429   6.106   8.763   0.716
12729WAT     H238430   6.241   8.852   0.738
12730WAT      O38431   4.318   1.042   7.955
12730WAT     H138432   4.371   1.117   7.916
12730WAT     H238433   4.380   0.982   8.007
12731WAT      O38434   3.907   5.392   7.797
12731WAT     H138435   3.816   5.420   7.827
12731WAT     H238436   3.922   5.425   7.704
12732WAT      O38437   4.896   2.563   2.729
12732WAT     H138438   4.886   2.627   2.653
12732WAT     H238439   4.806   2.524   2.751
12733WAT      O38440   5.386   3.439   8.423
12733WAT     H138441   5.440   3.518   8.452
12733WAT     H238442   5.289   3.461   8.431
12734WAT      O38443   4.250   8.031   7.997
12734WAT     H138444   4.232   8.091   7.919
12734WAT     H238445   4.348   8.029   8.016
12735WAT      O38446   2.370   0.956   6.825
12735WAT     H138447   2.465   0.927   6.842
12735WAT     H238448   2.333   0.997   6.909
12736WAT      O38449   0.643   1.627   5.098
12736WAT     H138450   0.586   1.592   5.173
12736WAT     H238451   0.645   1.559   5.025
12737WAT      O38452   4.644   5.964   1.122
12737WAT     H138453   4.636   5.987   1.219
12737WAT     H238454   4.571   5.901   1.097
12738WAT      O38455   3.643   2.277   7.299
12738WAT     H138456   3.616   2.237   7.212
12738WAT     H238457   3.563   2.311   7.347
12739WAT      O38458   0.787   0.994   8.663
12739WAT     H138459   0.822   0.960   8.751
12739WAT     H238460   0.812   1.090   8.652
12740WAT      O38461   9.506   5.157   1.280
12740WAT     H138462   9.569   5.234   1.273
12740WAT     H238463   9.552   5.074   1.249
12741WAT      O38464   3.773   6.005   8.497
12741WAT     H138465   3.676   5.982   8.488
12741WAT     H238466   3.790   6.044   8.587
12742WAT      O38467   7.481   4.714   5.475
12742WAT     H138468   7.412   4.749   5.411
12742WAT     H238469   7.451   4.730   5.569
12743WAT      O38470   0.945   7.337   2.632
12743WAT     H138471   0.925   7.396   2.553
12743WAT     H238472   1.040   7.351   2.660
12744WAT      O38473   6.256   5.915   2.370
12744WAT     H138474   6.304   5.903   2.457
12744WAT     H238475   6.310   5.873   2.297
12745WAT      O38476   2.907   3.169   5.943
12745WAT     H138477   2.868   3.249   5.897
12745WAT     H238478   2.987   3.137   5.891
12746WAT      O38479   6.439   9.266   3.550
12746WAT     H138480   6.358   9.317   3.582
12746WAT     H238481   6.478   9.216   3.627
12747WAT      O38482   1.595   6.884   4.992
12747WAT     H138483   1.548   6.796   4.994
12747WAT     H238484   1.540   6.950   4.940
12748WAT      O38485   9.166   1.118   2.992
12748WAT     H138486   9.175   1.035   2.938
12748WAT     H238487   9.112   1.098   3.074
12749WAT      O38488   9.866   0.812   4.726
12749WAT     H138489   9.917   0.839   4.808
12749WAT     H238490   9.811   0.889   4.694
12750WAT      O38491   9.726   4.617   5.534
12750WAT     H138492   9.691   4.711   5.529
12750WAT     H238493   9.744   4.593   5.629
12751WAT      O38494   1.045   6.438   5.519
12751WAT     H138495   1.141   6.433   5.544
12751WAT     H238496   1.027   6.375   5.443
12752WAT      O38497   0.880   9.202   1.733
12752WAT     H138498   0.816   9.190   1.657
12752WAT     H238499   0.843   9.160   1.816
12753WAT      O38500   4.957   8.584   2.508
12753WAT     H138501   4.946   8.579   2.607
12753WAT     H238502   5.040   8.636   2.486
12754WAT      O38503   4.112   8.462   5.431
12754WAT     H138504   4.034   8.410   5.397
12754WAT     H238505   4.080   8.542   5.482
12755WAT      O38506   0.558   1.102   3.511
12755WAT     H138507   0.541   1.051   3.596
12755WAT     H238508   0.615   1.182   3.531
12756WAT      O38509   4.015   6.506   7.745
12756WAT     H138510   3.949   6.446   7.700
12756WAT     H238511   4.067   6.455   7.813
12757WAT      O38512   5.573   9.544   4.603
12757WAT     H138513   5.531   9.459   4.571
12757WAT     H238514   5.630   9.524   4.683
12758WAT      O38515   0.776   6.234   8.202
12758WAT     H138516   0.774   6.136   8.224
12758WAT     H238517   0.870   6.264   8.192
12759WAT      O38518   3.055   8.226   1.508
12759WAT     H138519   3.048   8.206   1.411
12759WAT     H238520   3.074   8.142   1.558
12760WAT      O38521   2.282   2.338   7.675
12760WAT     H138522   2.232   2.345   7.589
12760WAT     H238523   2.376   2.372   7.662
12761WAT      O38524   5.986   8.699   9.826
12761WAT     H138525   5.974   8.605   9.794
12761WAT     H238526   5.994   8.760   9.748
12762WAT      O38527   5.808   0.813   6.162
12762WAT     H138528   5.739   0.754   6.204
12762WAT     H238529   5.883   0.827   6.227
12763WAT      O38530   5.474   4.181   6.194
12763WAT     H138531   5.562   4.184   6.146
12763WAT     H238532   5.410   4.244   6.151
12764WAT      O38533   4.136   9.582   8.672
12764WAT     H138534   4.104   9.502   8.723
12764WAT     H238535   4.122   9.568   8.575
12765WAT      O38536   4.149   6.648   6.923
12765WAT     H138537   4.138   6.710   6.845
12765WAT     H238538   4.209   6.572   6.897
12766WAT      O38539   2.882   4.992   0.002
12766WAT     H138540   2.841   5.081   0.021
12766WAT     H238541   2.810   4.925  -0.016
12767WAT      O38542   3.852   1.288   5.151
12767WAT     H138543   3.776   1.223   5.148
12767WAT     H238544   3.927   1.253   5.094
12768WAT      O38545   3.858   5.038   7.296
12768WAT     H138546   3.833   5.133   7.315
12768WAT     H238547   3.778   4.989   7.261
12769WAT      O38548   4.631   8.008   2.488
12769WAT     H138549   4.662   7.925   2.535
12769WAT     H238550   4.566   7.983   2.416
12770WAT      O38551   0.362   1.938   3.958
12770WAT     H138552   0.370   2.030   3.920
12770WAT     H238553   0.447   1.888   3.942
12771WAT      O38554   9.857   5.297   7.557
12771WAT     H138555   9.888   5.371   7.497
12771WAT     H238556   9.761   5.311   7.580
12772WAT      O38557   4.974   2.237   6.436
12772WAT     H138558   4.927   2.325   6.441
12772WAT     H238559   5.046   2.233   6.506
12773WAT      O38560   6.943   7.764   9.752
12773WAT     H138561   6.928   7.862   9.770
12773WAT     H238562   6.894   7.710   9.820
12774WAT      O38563   1.698   6.937   8.687
12774WAT     H138564   1.676   7.032   8.710
12774WAT     H238565   1.674   6.919   8.592
12775WAT      O38566   5.211   9.434   2.138
12775WAT     H138567   5.243   9.390   2.222
12775WAT     H238568   5.276   9.505   2.111
12776WAT      O38569   8.141   2.686   4.111
12776WAT     H138570   8.058   2.643   4.145
12776WAT     H238571   8.212   2.616   4.098
12777WAT      O38572   5.106   7.790   1.695
12777WAT     H138573   5.195   7.822   1.662
12777WAT     H238574   5.081   7.840   1.778
12778WAT      O38575   0.096   1.884   1.778
12778WAT     H138576   0.008   1.911   1.815
12778WAT     H238577   0.168   1.901   1.846
12779WAT      O38578   9.765   7.744   0.940
12779WAT     H138579   9.854   7.738   0.895
12779WAT     H238580   9.778   7.770   1.035
12780WAT      O38581   4.630   0.713   9.727
12780WAT     H138582   4.634   0.786   9.795
12780WAT     H238583   4.632   0.624   9.773
12781WAT      O38584   2.784   6.591   2.543
12781WAT     H138585   2.742   6.622   2.458
12781WAT     H238586   2.776   6.491   2.549
12782WAT      O38587   8.185   3.306   6.529
12782WAT     H138588   8.197   3.399   6.493
12782WAT     H238589   8.102   3.302   6.584
12783WAT      O38590   6.598   4.891   4.207
12783WAT     H138591   6.612   4.951   4.128
12783WAT     H238592   6.637   4.801   4.186
12784WAT      O38593   3.578   8.976   6.300
12784WAT     H138594   3.665   9.021   6.321
12784WAT     H238595   3.505   9.044   6.299
12785WAT      O38596   2.576   2.161   8.899
12785WAT     H138597   2.551   2.103   8.976
12785WAT     H238598   2.618   2.246   8.932
12786WAT      O38599   4.494   0.749   3.080
12786WAT     H138600   4.449   0.835   3.060
12786WAT     H238601   4.560   0.762   3.154
12787WAT      O38602   0.610   6.028   6.198
12787WAT     H138603   0.521   5.995   6.229
12787WAT     H238604   0.612   6.128   6.203
12788WAT      O38605   7.555   7.997   6.228
12788WAT     H138606   7.474   8.051   6.249
12788WAT     H238607   7.528   7.908   6.192
12789WAT      O38608   5.957   6.658   8.878
12789WAT     H138609   5.972   6.566   8.913
12789WAT     H238610   5.864   6.666   8.841
12790WAT      O38611   4.036   0.453   4.009
12790WAT     H138612   3.949   0.445   4.057
12790WAT     H238613   4.048   0.375   3.947
12791WAT      O38614   4.300   8.653   8.761
12791WAT     H138615   4.296   8.563   8.805
12791WAT     H238616   4.226   8.661   8.695
12792WAT      O38617   2.618   0.215   3.411
12792WAT     H138618   2.607   0.268   3.327
12792WAT     H238619   2.564   0.257   3.484
12793WAT      O38620   2.521   5.600   2.358
12793WAT     H138621   2.462   5.661   2.411
12793WAT     H238622   2.536   5.516   2.410
12794WAT      O38623   9.030   0.095   5.495
12794WAT     H138624   9.046   0.090   5.396
12794WAT     H238625   8.933   0.076   5.514
12795WAT      O38626   5.499   0.517   4.886
12795WAT     H138627   5.401   0.536   4.892
12795WAT     H238628   5.549   0.592   4.930
12796WAT      O38629   0.649   0.823   6.473
12796WAT     H138630   0.649   0.724   6.466
12796WAT     H238631   0.667   0.863   6.383
12797WAT      O38632   4.838   4.809   6.790
12797WAT     H138633   4.931   4.772   6.786
12797WAT     H238634   4.832   4.891   6.734
12798WAT      O38635   3.253   2.236   5.303
12798WAT     H138636   3.304   2.322   5.316
12798WAT     H238637   3.318   2.160   5.294
12799WAT      O38638   3.541   7.408   7.087
12799WAT     H138639   3.445   7.417   7.061
12799WAT     H238640   3.598   7.403   7.004
12800WAT      O38641   2.643   0.559   2.102
12800WAT     H138642   2.614   0.553   2.006
12800WAT     H238643   2.709   0.633   2.112
12801WAT      O38644   4.878   4.408   1.280
12801WAT     H138645   4.794   4.383   1.232
12801WAT     H238646   4.867   4.392   1.378
12802WAT      O38647   8.230   1.274   4.153
12802WAT     H138648   8.143   1.310   4.119
12802WAT     H238649   8.305   1.310   4.097
12803WAT      O38650   1.146   9.161   1.237
12803WAT     H138651   1.130   9.064   1.219
12803WAT     H238652   1.191   9.172   1.326
12804WAT      O38653   2.792   4.608   0.214
12804WAT     H138654   2.823   4.703   0.214
12804WAT     H238655   2.784   4.576   0.119
12805WAT      O38656   2.537   0.212   0.334
12805WAT     H138657   2.580   0.299   0.310
12805WAT     H238658   2.450   0.204   0.285
12806WAT      O38659   6.771   0.046   0.665
12806WAT     H138660   6.746   0.032   0.569
12806WAT     H238661   6.866   0.019   0.679
12807WAT      O38662   9.107   5.822   2.429
12807WAT     H138663   9.087   5.842   2.333
12807WAT     H238664   9.166   5.892   2.467
12808WAT      O38665   3.516   3.476   3.388
12808WAT     H138666   3.567   3.556   3.421
12808WAT     H238667   3.576   3.420   3.331
12809WAT      O38668   6.788   0.087   8.000
12809WAT     H138669   6.861   0.019   8.007
12809WAT     H238670   6.756   0.110   8.092
12810WAT      O38671   8.881   7.609   3.715
12810WAT     H138672   8.917   7.629   3.806
12810WAT     H238673   8.835   7.520   3.717
12811WAT      O38674   5.351   7.858   4.967
12811WAT     H138675   5.339   7.770   4.922
12811WAT     H238676   5.414   7.848   5.044
12812WAT      O38677   3.553   6.287   7.527
12812WAT     H138678   3.649   6.312   7.541
12812WAT     H238679   3.541   6.189   7.543
12813WAT      O38680   3.707   5.742   8.256
12813WAT     H138681   3.786   5.683   8.273
12813WAT     H238682   3.729   5.806   8.181
12814WAT      O38683   6.378   4.134   0.601
12814WAT     H138684   6.339   4.175   0.683
12814WAT     H238685   6.357   4.192   0.522
12815WAT      O38686   4.188   4.323   9.466
12815WAT     H138687   4.124   4.328   9.543
12815WAT     H238688   4.139   4.342   9.381
12816WAT      O38689   6.841   6.791   6.804
12816WAT     H138690   6.823   6.886   6.775
12816WAT     H238691   6.911   6.752   6.745
12817WAT      O38692   6.468   7.904   0.985
12817WAT     H138693   6.453   7.805   0.989
12817WAT     H238694   6.380   7.951   0.976
12818WAT      O38695   7.479   9.486   5.731
12818WAT     H138696   7.416   9.563   5.727
12818WAT     H238697   7.564   9.514   5.776
12819WAT      O38698   4.462   0.310   5.433
12819WAT     H138699   4.430   0.390   5.383
12819WAT     H238700   4.550   0.331   5.477
12820WAT      O38701   0.165   7.849   7.804
12820WAT     H138702   0.236   7.787   7.769
12820WAT     H238703   0.093   7.795   7.848
12821WAT      O38704   5.415   6.803   0.283
12821WAT     H138705   5.350   6.875   0.259
12821WAT     H238706   5.424   6.739   0.207
12822WAT      O38707   5.363   7.906   2.081
12822WAT     H138708   5.309   7.963   2.018
12822WAT     H238709   5.365   7.812   2.047
12823WAT      O38710   3.386   4.950   8.239
12823WAT     H138711   3.401   5.045   8.211
12823WAT     H238712   3.470   4.915   8.281
12824WAT      O38713   4.428   3.613   5.282
12824WAT     H138714   4.511   3.565   5.255
12824WAT     H238715   4.452   3.700   5.324
12825WAT      O38716   7.888   4.224   4.002
12825WAT     H138717   7.798   4.203   4.039
12825WAT     H238718   7.897   4.322   3.988
12826WAT      O38719   6.959   0.469   5.162
12826WAT     H138720   6.870   0.514   5.166
12826WAT     H238721   6.962   0.394   5.229
12827WAT      O38722   0.643   1.398   4.930
12827WAT     H138723   0.617   1.458   4.855
12827WAT     H238724   0.594   1.311   4.921
12828WAT      O38725   9.219   3.849   8.939
12828WAT     H138726   9.293   3.916   8.936
12828WAT     H238727   9.169   3.851   8.853
12829WAT      O38728   1.263   8.210   4.997
12829WAT     H138729   1.349   8.195   5.047
12829WAT     H238730   1.197   8.139   5.022
12830WAT      O38731   8.003   4.803   9.767
12830WAT     H138732   7.957   4.858   9.698
12830WAT     H238733   8.098   4.834   9.777
12831WAT      O38734   6.423   7.274   0.251
12831WAT     H138735   6.407   7.202   0.318
12831WAT     H238736   6.496   7.246   0.189
12832WAT      O38737   6.383   3.985   6.207
12832WAT     H138738   6.482   3.985   6.222
12832WAT     H238739   6.356   4.071   6.165
12833WAT      O38740   8.828   2.525   0.509
12833WAT     H138741   8.794   2.616   0.486
12833WAT     H238742   8.827   2.468   0.427
12834WAT      O38743   0.259   6.864   4.377
12834WAT     H138744   0.208   6.860   4.463
12834WAT     H238745   0.230   6.944   4.324
12835WAT      O38746   5.897   4.847   4.909
12835WAT     H138747   5.996   4.844   4.922
12835WAT     H238748   5.859   4.925   4.959
12836WAT      O38749   6.710   4.617   4.149
12836WAT     H138750   6.698   4.561   4.231
12836WAT     H238751   6.722   4.558   4.070
12837WAT      O38752   5.509   5.013   4.068
12837WAT     H138753   5.609   5.012   4.076
12837WAT     H238754   5.479   4.934   4.014
12838WAT      O38755   2.176   0.466   7.100
12838WAT     H138756   2.174   0.566   7.098
12838WAT     H238757   2.139   0.429   7.015
12839WAT      O38758   3.541   9.670   2.416
12839WAT     H138759   3.594   9.688   2.333
12839WAT     H238760   3.454   9.628   2.391
12840WAT      O38761   2.316   4.573   0.745
12840WAT     H138762   2.271   4.647   0.795
12840WAT     H238763   2.392   4.611   0.690
12841WAT      O38764   7.563   7.893   5.245
12841WAT     H138765   7.521   7.845   5.323
12841WAT     H238766   7.512   7.871   5.162
12842WAT      O38767   2.176   7.517   9.520
12842WAT     H138768   2.210   7.579   9.590
12842WAT     H238769   2.094   7.470   9.553
12843WAT      O38770   2.845   7.437   0.158
12843WAT     H138771   2.781   7.382   0.104
12843WAT     H238772   2.811   7.446   0.251
12844WAT      O38773   2.257   1.489   0.333
12844WAT     H138774   2.163   1.469   0.357
12844WAT     H238775   2.265   1.500   0.234
12845WAT      O38776   5.744   7.498   2.719
12845WAT     H138777   5.792   7.456   2.797
12845WAT     H238778   5.652   7.459   2.712
12846WAT      O38779   6.810   1.453   1.847
12846WAT     H138780   6.755   1.469   1.929
12846WAT     H238781   6.775   1.509   1.772
12847WAT      O38782   3.295   5.913   3.693
12847WAT     H138783   3.216   5.974   3.701
12847WAT     H238784   3.323   5.907   3.597
12848WAT      O38785   1.692   4.336   6.435
12848WAT     H138786   1.742   4.415   6.471
12848WAT     H238787   1.660   4.279   6.511
12849WAT      O38788   8.037   1.941   6.130
12849WAT     H138789   7.977   2.012   6.166
12849WAT     H238790   8.031   1.859   6.188
12850WAT      O38791   0.748   5.273   7.216
12850WAT     H138792   0.805   5.350   7.186
12850WAT     H238793   0.678   5.306   7.280
12851WAT      O38794   2.435   8.640   8.824
12851WAT     H138795   2.462   8.709   8.891
12851WAT     H238796   2.440   8.550   8.866
12852WAT      O38797   1.004   5.342   6.699
12852WAT     H138798   0.905   5.345   6.714
12852WAT     H238799   1.024   5.272   6.631
12853WAT      O38800   7.340   4.406   0.140
12853WAT     H138801   7.346   4.309   0.165
12853WAT     H238802   7.380   4.420   0.050
12854WAT      O38803   5.050   5.575   4.302
12854WAT     H138804   4.950   5.574   4.308
12854WAT     H238805   5.090   5.554   4.391
12855WAT      O38806   3.767   0.574   6.860
12855WAT     H138807   3.673   0.542   6.861
12855WAT     H238808   3.798   0.591   6.953
12856WAT      O38809   2.811   8.243   9.510
12856WAT     H138810   2.905   8.213   9.491
12856WAT     H238811   2.751   8.164   9.512
12857WAT      O38812   6.951   8.233   1.942
12857WAT     H138813   6.890   8.307   1.914
12857WAT     H238814   6.897   8.154   1.973
12858WAT      O38815   4.942   1.921   9.275
12858WAT     H138816   4.959   1.828   9.245
12858WAT     H238817   4.997   1.985   9.220
12859WAT      O38818   0.438   9.187   6.050
12859WAT     H138819   0.472   9.170   6.143
12859WAT     H238820   0.374   9.264   6.052
12860WAT      O38821   5.643   0.970   2.380
12860WAT     H138822   5.675   0.908   2.452
12860WAT     H238823   5.548   0.997   2.399
12861WAT      O38824   5.815   2.660   0.668
12861WAT     H138825   5.733   2.609   0.643
12861WAT     H238826   5.862   2.692   0.586
12862WAT      O38827   3.341   3.667   5.596
12862WAT     H138828   3.402   3.714   5.659
12862WAT     H238829   3.395   3.615   5.530
12863WAT      O38830   3.956   1.697   5.696
12863WAT     H138831   3.988   1.743   5.613
12863WAT     H238832   3.970   1.757   5.774
12864WAT      O38833   2.871   1.263   0.250
12864WAT     H138834   2.784   1.228   0.217
12864WAT     H238835   2.899   1.341   0.193
12865WAT      O38836   8.032   1.772   8.712
12865WAT     H138837   8.048   1.861   8.668
12865WAT     H238838   8.114   1.715   8.701
12866WAT      O38839   5.968   5.994   5.023
12866WAT     H138840   5.923   6.042   5.098
12866WAT     H238841   6.041   6.051   4.985
12867WAT      O38842   9.056   9.516   3.112
12867WAT     H138843   9.068   9.564   3.199
12867WAT     H238844   9.128   9.447   3.102
12868WAT      O38845   0.122   1.450   7.209
12868WAT     H138846   0.170   1.414   7.289
12868WAT     H238847   0.069   1.377   7.166
12869WAT      O38848   6.795   6.813   5.714
12869WAT     H138849   6.848   6.793   5.632
12869WAT     H238850   6.800   6.735   5.777
12870WAT      O38851   9.464   7.448   0.190
12870WAT     H138852   9.538   7.384   0.172
12870WAT     H238853   9.407   7.412   0.264
12871WAT      O38854   5.735   9.798   3.258
12871WAT     H138855   5.772   9.726   3.200
12871WAT     H238856   5.797   9.877   3.258
12872WAT      O38857   9.558   1.758   4.831
12872WAT     H138858   9.489   1.828   4.850
12872WAT     H238859   9.587   1.715   4.917
12873WAT      O38860   0.086   4.989   7.002
12873WAT     H138861   0.122   4.896   7.010
12873WAT     H238862   0.135   5.049   7.065
12874WAT      O38863   0.363   2.785   1.155
12874WAT     H138864   0.314   2.781   1.068
12874WAT     H238865   0.327   2.714   1.216
12875WAT      O38866   5.331   6.782   8.069
12875WAT     H138867   5.410   6.814   8.121
12875WAT     H238868   5.362   6.729   7.991
12876WAT      O38869   4.651   8.804   3.009
12876WAT     H138870   4.649   8.895   3.052
12876WAT     H238871   4.737   8.793   2.959
12877WAT      O38872   4.798   6.278   2.005
12877WAT     H138873   4.746   6.335   2.069
12877WAT     H238874   4.891   6.314   1.996
12878WAT      O38875   8.335   6.533   1.283
12878WAT     H138876   8.380   6.510   1.196
12878WAT     H238877   8.323   6.449   1.336
12879WAT      O38878   4.696   7.576   5.168
12879WAT     H138879   4.776   7.610   5.120
12879WAT     H238880   4.638   7.652   5.197
12880WAT      O38881   5.767   7.998   2.052
12880WAT     H138882   5.804   7.946   2.129
12880WAT     H238883   5.692   8.056   2.083
12881WAT      O38884   9.784   4.205   0.246
12881WAT     H138885   9.877   4.240   0.231
12881WAT     H238886   9.717   4.269   0.208
12882WAT      O38887   1.630   1.192   1.189
12882WAT     H138888   1.723   1.223   1.208
12882WAT     H238889   1.615   1.104   1.232
12883WAT      O38890   8.410   4.634   8.352
12883WAT     H138891   8.466   4.554   8.373
12883WAT     H238892   8.334   4.607   8.293
12884WAT      O38893   0.798   7.242   3.949
12884WAT     H138894   0.773   7.192   4.032
12884WAT     H238895   0.827   7.177   3.879
12885WAT      O38896   4.923   9.385   3.292
12885WAT     H138897   4.992   9.313   3.293
12885WAT     H238898   4.932   9.440   3.374
12886WAT      O38899   2.063   0.011   6.920
12886WAT     H138900   2.009   0.094   6.909
12886WAT     H238901   2.046  -0.029   7.010
12887WAT      O38902   5.560   6.619   1.639
12887WAT     H138903   5.585   6.672   1.558
12887WAT     H238904   5.466   6.587   1.630
12888WAT      O38905   5.320   6.530   3.192
12888WAT     H138906   5.227   6.547   3.224
12888WAT     H238907   5.318   6.491   3.100
12889WAT      O38908   2.884   9.028   6.365
12889WAT     H138909   2.893   8.929   6.373
12889WAT     H238910   2.892   9.069   6.455
12890WAT      O38911   8.869   2.882   6.517
12890WAT     H138912   8.916   2.856   6.601
12890WAT     H238913   8.778   2.917   6.540
12891WAT      O38914   3.179   0.730   8.022
12891WAT     H138915   3.263   0.733   7.968
12891WAT     H238916   3.174   0.644   8.071
12892WAT      O38917   6.210   7.794   7.613
12892WAT     H138918   6.306   7.798   7.587
12892WAT     H238919   6.180   7.698   7.616
12893WAT      O38920   5.881   0.051   0.716
12893WAT     H138921   5.866   0.121   0.786
12893WAT     H238922   5.889  -0.039   0.759
12894WAT      O38923   9.079   3.790   4.584
12894WAT     H138924   9.080   3.794   4.683
12894WAT     H238925   9.170   3.767   4.550
12895WAT      O38926   4.165   2.944   9.572
12895WAT     H138927   4.172   2.976   9.477
12895WAT     H238928   4.219   3.004   9.631
12896WAT      O38929   7.821   2.437   8.696
12896WAT     H138930   7.829   2.526   8.742
12896WAT     H238931   7.901   2.382   8.716
12897WAT      O38932   6.578   9.524   8.086
12897WAT     H138933   6.523   9.556   8.163
12897WAT     H238934   6.665   9.573   8.085
12898WAT      O38935   8.198   2.141   9.060
12898WAT     H138936   8.211   2.134   8.961
12898WAT     H238937   8.179   2.236   9.084
12899WAT      O38938   9.327   9.719   1.444
12899WAT     H138939   9.386   9.737   1.522
12899WAT     H238940   9.264   9.795   1.431
12900WAT      O38941   2.630   6.400   0.291
12900WAT     H138942   2.696   6.469   0.261
12900WAT     H238943   2.678   6.322   0.329
12901WAT      O38944   3.089   1.131   4.964
12901WAT     H138945   3.051   1.155   4.874
12901WAT     H238946   3.077   1.033   4.980
12902WAT      O38947   5.368   0.956   7.670
12902WAT     H138948   5.463   0.969   7.699
12902WAT     H238949   5.306   0.988   7.742
12903WAT      O38950   6.109   8.857   6.501
12903WAT     H138951   6.096   8.870   6.402
12903WAT     H238952   6.062   8.930   6.550
12904WAT      O38953   5.544   2.557   0.591
12904WAT     H138954   5.526   2.572   0.688
12904WAT     H238955   5.539   2.644   0.542
12905WAT      O38956   8.687   7.420   1.755
12905WAT     H138957   8.660   7.351   1.688
12905WAT     H238958   8.787   7.428   1.757
12906WAT      O38959   5.750   5.017   3.358
12906WAT     H138960   5.706   4.952   3.420
12906WAT     H238961   5.684   5.045   3.287
12907WAT      O38962   9.689   5.737   8.395
12907WAT     H138963   9.664   5.668   8.463
12907WAT     H238964   9.756   5.801   8.435
12908WAT      O38965   1.557   1.544   1.465
12908WAT     H138966   1.565   1.470   1.532
12908WAT     H238967   1.542   1.505   1.374
12909WAT      O38968   5.420   5.670   6.377
12909WAT     H138969   5.393   5.752   6.326
12909WAT     H238970   5.367   5.592   6.344
12910WAT      O38971   6.183   7.296   6.676
12910WAT     H138972   6.107   7.341   6.630
12910WAT     H238973   6.178   7.197   6.657
12911WAT      O38974   5.998   5.477   0.313
12911WAT     H138975   6.038   5.461   0.223
12911WAT     H238976   5.976   5.389   0.356
12912WAT      O38977   0.383   2.426   1.899
12912WAT     H138978   0.451   2.434   1.973
12912WAT     H238979   0.417   2.475   1.818
12913WAT      O38980   3.514   5.445   2.235
12913WAT     H138981   3.420   5.465   2.262
12913WAT     H238982   3.515   5.364   2.176
12914WAT      O38983   4.635   5.321   0.460
12914WAT     H138984   4.569   5.361   0.397
12914WAT     H238985   4.691   5.253   0.411
12915WAT      O38986   3.580   1.506   3.178
12915WAT     H138987   3.621   1.483   3.267
12915WAT     H238988   3.522   1.587   3.189
12916WAT      O38989   5.131   2.516   6.109
12916WAT     H138990   5.135   2.522   6.009
12916WAT     H238991   5.199   2.451   6.141
12917WAT      O38992   5.074   1.111   6.154
12917WAT     H138993   5.115   1.201   6.137
12917WAT     H238994   5.016   1.087   6.076
12918WAT      O38995   5.826   0.932   8.017
12918WAT     H138996   5.738   0.884   8.017
12918WAT     H238997   5.817   1.016   7.964
12919WAT      O38998   0.531   8.987   5.688
12919WAT     H138999   0.613   8.960   5.639
12919WAT     H239000   0.450   8.964   5.633
12920WAT      O39001   4.041   4.121   0.418
12920WAT     H139002   4.100   4.094   0.342
12920WAT     H239003   4.090   4.109   0.504
12921WAT      O39004   0.013   9.276   9.166
12921WAT     H139005   0.026   9.203   9.099
12921WAT     H239006  -0.085   9.290   9.182
12922WAT      O39007   7.937   3.794   9.593
12922WAT     H139008   7.977   3.879   9.629
12922WAT     H239009   7.942   3.795   9.493
12923WAT      O39010   5.522   1.950   0.149
12923WAT     H139011   5.457   1.971   0.222
12923WAT     H239012   5.598   1.896   0.187
12924WAT      O39013   2.944   9.060   2.573
12924WAT     H139014   2.902   9.003   2.643
12924WAT     H239015   2.910   9.154   2.581
12925WAT      O39016   6.136   7.142   5.064
12925WAT     H139017   6.234   7.160   5.074
12925WAT     H239018   6.093   7.142   5.155
12926WAT      O39019   8.289   2.876   8.490
12926WAT     H139020   8.233   2.820   8.552
12926WAT     H239021   8.384   2.875   8.520
12927WAT      O39022   1.633   6.997   0.783
12927WAT     H139023   1.684   6.913   0.803
12927WAT     H239024   1.607   6.998   0.687
12928WAT      O39025   7.135   6.620   6.757
12928WAT     H139026   7.232   6.636   6.736
12928WAT     H239027   7.118   6.521   6.760
12929WAT      O39028   4.017   7.231   3.228
12929WAT     H139029   3.944   7.299   3.229
12929WAT     H239030   3.985   7.147   3.272
12930WAT      O39031   7.744   6.050   6.215
12930WAT     H139032   7.748   6.135   6.162
12930WAT     H239033   7.650   6.017   6.216
12931WAT      O39034   9.168   0.369   3.338
12931WAT     H139035   9.146   0.378   3.240
12931WAT     H239036   9.230   0.293   3.351
12932WAT      O39037   1.310   3.267   6.644
12932WAT     H139038   1.313   3.261   6.743
12932WAT     H239039   1.328   3.361   6.615
12933WAT      O39040   3.085   6.665   6.870
12933WAT     H139041   3.081   6.654   6.969
12933WAT     H239042   3.158   6.729   6.846
12934WAT      O39043   7.821   4.842   7.419
12934WAT     H139044   7.744   4.899   7.389
12934WAT     H239045   7.803   4.747   7.394
12935WAT      O39046   6.802   6.529   0.191
12935WAT     H139047   6.822   6.528   0.289
12935WAT     H239048   6.838   6.613   0.151
12936WAT      O39049   1.115   8.228   9.003
12936WAT     H139050   1.071   8.160   9.061
12936WAT     H239051   1.081   8.218   8.909
12937WAT      O39052   7.477   6.645   1.229
12937WAT     H139053   7.428   6.571   1.182
12937WAT     H239054   7.553   6.606   1.281
12938WAT      O39055   3.259   4.486   7.579
12938WAT     H139056   3.207   4.471   7.663
12938WAT     H239057   3.287   4.399   7.540
12939WAT      O39058   8.686   9.060   2.884
12939WAT     H139059   8.690   9.070   2.785
12939WAT     H239060   8.625   9.129   2.922
12940WAT      O39061   8.931   0.602   2.611
12940WAT     H139062   8.921   0.589   2.710
12940WAT     H239063   8.970   0.692   2.593
12941WAT      O39064   4.047   9.662   5.538
12941WAT     H139065   4.073   9.719   5.460
12941WAT     H239066   3.957   9.623   5.523
12942WAT      O39067   8.469   7.603   2.051
12942WAT     H139068   8.502   7.644   2.135
12942WAT     H239069   8.446   7.507   2.067
12943WAT      O39070   4.834   0.383   5.239
12943WAT     H139071   4.819   0.336   5.327
12943WAT     H239072   4.918   0.436   5.244
12944WAT      O39073   1.387   2.624   5.502
12944WAT     H139074   1.431   2.604   5.590
12944WAT     H239075   1.404   2.548   5.439
12945WAT      O39076   0.917   1.608   5.250
12945WAT     H139077   0.920   1.523   5.303
12945WAT     H239078   0.860   1.594   5.169
12946WAT      O39079   4.667   9.672   4.888
12946WAT     H139080   4.640   9.645   4.795
12946WAT     H239081   4.585   9.688   4.943
12947WAT      O39082   9.138   3.968   4.372
12947WAT     H139083   9.109   3.913   4.449
12947WAT     H239084   9.117   3.920   4.286
12948WAT      O39085   1.137   6.022   1.679
12948WAT     H139086   1.054   6.051   1.726
12948WAT     H239087   1.201   5.982   1.745
12949WAT      O39088   2.971   8.155   2.407
12949WAT     H139089   3.060   8.199   2.393
12949WAT     H239090   2.901   8.225   2.423
12950WAT      O39091   6.661   3.935   9.370
12950WAT     H139092   6.699   3.938   9.278
12950WAT     H239093   6.732   3.960   9.436
12951WAT      O39094   1.834   3.844   5.731
12951WAT     H139095   1.826   3.749   5.702
12951WAT     H239096   1.875   3.899   5.658
12952WAT      O39097   6.189   1.145   7.988
12952WAT     H139098   6.207   1.114   8.081
12952WAT     H239099   6.264   1.116   7.928
12953WAT      O39100   2.238   6.707   4.228
12953WAT     H139101   2.200   6.776   4.165
12953WAT     H239102   2.337   6.711   4.225
12954WAT      O39103   4.455   6.360   5.423
12954WAT     H139104   4.366   6.400   5.445
12954WAT     H239105   4.460   6.340   5.325
12955WAT      O39106   1.779   1.263   7.754
12955WAT     H139107   1.773   1.334   7.683
12955WAT     H239108   1.696   1.264   7.809
12956WAT      O39109   0.173   6.141   1.842
12956WAT     H139110   0.228   6.175   1.918
12956WAT     H239111   0.225   6.071   1.792
12957WAT      O39112   5.695   6.124   7.967
12957WAT     H139113   5.620   6.108   8.031
12957WAT     H239114   5.694   6.053   7.896
12958WAT      O39115   5.119   6.703   1.770
12958WAT     H139116   5.154   6.710   1.677
12958WAT     H239117   5.136   6.612   1.807
12959WAT      O39118   8.638   7.389   8.851
12959WAT     H139119   8.553   7.442   8.856
12959WAT     H239120   8.662   7.356   8.942
12960WAT      O39121   5.533   0.870   0.464
12960WAT     H139122   5.433   0.865   0.468
12960WAT     H239123   5.560   0.939   0.397
12961WAT      O39124   7.000   0.819   6.052
12961WAT     H139125   6.922   0.822   5.990
12961WAT     H239126   7.047   0.907   6.052
12962WAT      O39127   2.955   5.333   2.042
12962WAT     H139128   3.044   5.376   2.029
12962WAT     H239129   2.928   5.286   1.959
12963WAT      O39130   1.846   0.370   5.943
12963WAT     H139131   1.839   0.442   6.011
12963WAT     H239132   1.841   0.410   5.851
12964WAT      O39133   2.358   8.829   8.147
12964WAT     H139134   2.311   8.884   8.216
12964WAT     H239135   2.422   8.767   8.193
12965WAT      O39136   3.290   1.079   5.669
12965WAT     H139137   3.382   1.043   5.659
12965WAT     H239138   3.287   1.174   5.636
12966WAT      O39139   3.412   1.662   2.410
12966WAT     H139140   3.335   1.641   2.349
12966WAT     H239141   3.380   1.722   2.484
12967WAT      O39142   5.114   4.003   2.243
12967WAT     H139143   5.177   4.010   2.165
12967WAT     H239144   5.063   3.918   2.237
12968WAT      O39145   8.628   3.205   5.947
12968WAT     H139146   8.649   3.192   5.850
12968WAT     H239147   8.700   3.162   6.002
12969WAT      O39148   0.732   5.878   2.492
12969WAT     H139149   0.681   5.953   2.535
12969WAT     H239150   0.667   5.812   2.453
12970WAT      O39151   4.935   4.087   8.293
12970WAT     H139152   4.994   4.121   8.366
12970WAT     H239153   4.922   4.158   8.224
12971WAT      O39154   4.887   1.211   8.187
12971WAT     H139155   4.936   1.278   8.132
12971WAT     H239156   4.802   1.186   8.141
12972WAT      O39157   7.278   1.039   6.313
12972WAT     H139158   7.235   0.953   6.340
12972WAT     H239159   7.228   1.116   6.351
12973WAT      O39160   8.034   8.312   0.641
12973WAT     H139161   8.112   8.307   0.578
12973WAT     H239162   7.959   8.257   0.605
12974WAT      O39163   8.837   7.457   8.331
12974WAT     H139164   8.737   7.467   8.327
12974WAT     H239165   8.880   7.538   8.291
12975WAT      O39166   3.545   4.171   8.679
12975WAT     H139167   3.516   4.094   8.623
12975WAT     H239168   3.558   4.140   8.773
12976WAT      O39169   6.532   8.738   6.198
12976WAT     H139170   6.576   8.658   6.157
12976WAT     H239171   6.502   8.716   6.291
12977WAT      O39172   2.649   8.702   0.083
12977WAT     H139173   2.657   8.663   0.175
12977WAT     H239174   2.648   8.628   0.015
12978WAT      O39175   3.154   5.207   3.156
12978WAT     H139176   3.064   5.182   3.120
12978WAT     H239177   3.199   5.125   3.192
12979WAT      O39178   0.267   0.348   6.747
12979WAT     H139179   0.363   0.317   6.743
12979WAT     H239180   0.246   0.380   6.839
12980WAT      O39181   4.818   0.357   1.063
12980WAT     H139182   4.869   0.342   0.978
12980WAT     H239183   4.821   0.275   1.120
12981WAT      O39184   3.466   0.735   4.157
12981WAT     H139185   3.528   0.681   4.101
12981WAT     H239186   3.518   0.806   4.205
12982WAT      O39187   7.415   4.122   4.275
12982WAT     H139188   7.389   4.200   4.332
12982WAT     H239189   7.459   4.052   4.331
12983WAT      O39190   8.393   4.145   2.378
12983WAT     H139191   8.456   4.124   2.304
12983WAT     H239192   8.320   4.077   2.380
12984WAT      O39193   0.300   2.339   8.194
12984WAT     H139194   0.293   2.437   8.177
12984WAT     H239195   0.327   2.323   8.289
12985WAT      O39196   6.103   0.428   6.888
12985WAT     H139197   6.166   0.491   6.934
12985WAT     H239198   6.097   0.453   6.791
12986WAT      O39199   5.118   7.659   4.229
12986WAT     H139200   5.041   7.622   4.177
12986WAT     H239201   5.170   7.584   4.269
12987WAT      O39202   3.611   1.567   0.494
12987WAT     H139203   3.627   1.606   0.403
12987WAT     H239204   3.537   1.617   0.539
12988WAT      O39205   8.037   4.578   4.638
12988WAT     H139206   8.025   4.480   4.619
12988WAT     H239207   8.135   4.597   4.648
12989WAT      O39208   3.120   9.027   2.076
12989WAT     H139209   3.078   9.041   2.165
12989WAT     H239210   3.133   9.116   2.031
12990WAT      O39211   7.094   4.201   7.486
12990WAT     H139212   7.037   4.151   7.551
12990WAT     H239213   7.076   4.299   7.494
12991WAT      O39214   7.656   1.533   8.420
12991WAT     H139215   7.750   1.558   8.445
12991WAT     H239216   7.654   1.439   8.387
12992WAT      O39217   5.794   8.704   0.120
12992WAT     H139218   5.816   8.630   0.184
12992WAT     H239219   5.867   8.710   0.051
12993WAT      O39220   6.547   0.852   6.987
12993WAT     H139221   6.508   0.768   6.951
12993WAT     H239222   6.626   0.879   6.932
12994WAT      O39223   6.699   0.778   2.580
12994WAT     H139224   6.761   0.853   2.557
12994WAT     H239225   6.658   0.795   2.670
12995WAT      O39226   2.459   3.425   1.925
12995WAT     H139227   2.504   3.360   1.864
12995WAT     H239228   2.420   3.500   1.871
12996WAT      O39229   5.678   6.593   6.748
12996WAT     H139230   5.775   6.590   6.725
12996WAT     H239231   5.667   6.578   6.846
12997WAT      O39232   0.031   4.529   3.300
12997WAT     H139233   0.103   4.466   3.330
12997WAT     H239234  -0.058   4.494   3.331
12998WAT      O39235   7.015   6.890   5.112
12998WAT     H139236   7.027   6.948   5.192
12998WAT     H239237   7.089   6.907   5.047
12999WAT      O39238   2.216   2.303   1.047
12999WAT     H139239   2.312   2.314   1.070
12999WAT     H239240   2.194   2.206   1.037
13000WAT      O39241   6.235   9.780   7.812
13000WAT     H139242   6.324   9.740   7.835
13000WAT     H239243   6.177   9.781   7.894
13001WAT      O39244   1.220   6.668   8.311
13001WAT     H139245   1.279   6.726   8.367
13001WAT     H239246   1.260   6.577   8.303
13002WAT      O39247   0.700   7.134   6.293
13002WAT     H139248   0.667   7.209   6.235
13002WAT     H239249   0.638   7.056   6.284
13003WAT      O39250   6.101   9.673   5.746
13003WAT     H139251   6.126   9.624   5.829
13003WAT     H239252   6.076   9.767   5.769
13004WAT      O39253   3.180   8.994   7.298
13004WAT     H139254   3.207   8.953   7.385
13004WAT     H239255   3.155   8.921   7.234
13005WAT      O39256   8.947   1.980   0.740
13005WAT     H139257   8.937   2.078   0.756
13005WAT     H239258   8.917   1.930   0.821
13006WAT      O39259   6.812   6.098   7.388
13006WAT     H139260   6.850   6.160   7.457
13006WAT     H239261   6.876   6.023   7.372
13007WAT      O39262   4.407   0.248   0.884
13007WAT     H139263   4.439   0.322   0.942
13007WAT     H239264   4.330   0.202   0.927
13008WAT      O39265   1.048   6.360   8.429
13008WAT     H139266   0.954   6.383   8.452
13008WAT     H239267   1.052   6.329   8.334
13009WAT      O39268   1.000   2.719   2.282
13009WAT     H139269   1.016   2.812   2.317
13009WAT     H239270   1.062   2.656   2.328
13010WAT      O39271   4.577   1.973   1.796
13010WAT     H139272   4.518   2.043   1.756
13010WAT     H239273   4.622   2.009   1.877
13011WAT      O39274   6.544   1.466   4.073
13011WAT     H139275   6.553   1.497   3.979
13011WAT     H239276   6.448   1.470   4.101
13012WAT      O39277   3.557   3.349   0.639
13012WAT     H139278   3.628   3.368   0.707
13012WAT     H239279   3.573   3.259   0.598
13013WAT      O39280   4.764   0.125   0.226
13013WAT     H139281   4.849   0.072   0.231
13013WAT     H239282   4.732   0.145   0.318
13014WAT      O39283   7.999   6.807   6.847
13014WAT     H139284   7.915   6.833   6.895
13014WAT     H239285   8.071   6.873   6.869
13015WAT      O39286   4.479   6.576   3.247
13015WAT     H139287   4.384   6.574   3.214
13015WAT     H239288   4.479   6.585   3.347
13016WAT      O39289   5.983   2.409   6.155
13016WAT     H139290   5.952   2.338   6.218
13016WAT     H239291   5.917   2.483   6.154
13017WAT      O39292   3.669   5.104   1.056
13017WAT     H139293   3.664   5.046   1.138
13017WAT     H239294   3.655   5.199   1.083
13018WAT      O39295   8.539   2.889   7.814
13018WAT     H139296   8.546   2.885   7.714
13018WAT     H239297   8.503   2.802   7.848
13019WAT      O39298   4.996   2.864   0.354
13019WAT     H139299   4.905   2.894   0.384
13019WAT     H239300   5.054   2.849   0.434
13020WAT      O39301   8.193   1.406   6.236
13020WAT     H139302   8.225   1.320   6.277
13020WAT     H239303   8.272   1.455   6.199
13021WAT      O39304   3.853   2.154   8.161
13021WAT     H139305   3.845   2.084   8.232
13021WAT     H239306   3.821   2.117   8.074
13022WAT      O39307   3.322   2.304   4.778
13022WAT     H139308   3.278   2.306   4.868
13022WAT     H239309   3.282   2.375   4.720
13023WAT      O39310   6.710   6.640   7.701
13023WAT     H139311   6.658   6.615   7.619
13023WAT     H239312   6.765   6.721   7.681
13024WAT      O39313   7.803   4.710   9.473
13024WAT     H139314   7.768   4.787   9.419
13024WAT     H239315   7.897   4.691   9.446
13025WAT      O39316   3.141   9.796   3.906
13025WAT     H139317   3.069   9.833   3.845
13025WAT     H239318   3.127   9.698   3.918
13026WAT      O39319   5.517   1.276   8.450
13026WAT     H139320   5.578   1.315   8.519
13026WAT     H239321   5.541   1.180   8.435
13027WAT      O39322   0.805   6.634   0.466
13027WAT     H139323   0.739   6.701   0.500
13027WAT     H239324   0.799   6.628   0.366
13028WAT      O39325   7.861   5.857   1.395
13028WAT     H139326   7.899   5.949   1.393
13028WAT     H239327   7.764   5.861   1.372
13029WAT      O39328   2.798   0.733   4.869
13029WAT     H139329   2.818   0.831   4.882
13029WAT     H239330   2.829   0.682   4.949
13030WAT      O39331   0.338   7.579   4.081
13030WAT     H139332   0.279   7.505   4.113
13030WAT     H239333   0.360   7.565   3.985
13031WAT      O39334   0.949   5.701   2.423
13031WAT     H139335   0.878   5.736   2.362
13031WAT     H239336   0.975   5.772   2.488
13032WAT      O39337   6.643   3.729   0.617
13032WAT     H139338   6.716   3.796   0.603
13032WAT     H239339   6.650   3.689   0.709
13033WAT      O39340   3.866   0.105   1.247
13033WAT     H139341   3.902   0.183   1.299
13033WAT     H239342   3.827   0.138   1.161
13034WAT      O39343   2.970   2.057   8.493
13034WAT     H139344   2.939   2.111   8.571
13034WAT     H239345   2.921   2.087   8.411
13035WAT      O39346   3.130   5.728   6.595
13035WAT     H139347   3.224   5.719   6.626
13035WAT     H239348   3.126   5.787   6.514
13036WAT      O39349   7.159   6.281   0.207
13036WAT     H139350   7.208   6.208   0.161
13036WAT     H239351   7.079   6.307   0.153
13037WAT      O39352   1.707   7.310   6.351
13037WAT     H139353   1.621   7.337   6.307
13037WAT     H239354   1.775   7.291   6.281
13038WAT      O39355   9.831   3.135   3.040
13038WAT     H139356   9.785   3.049   3.022
13038WAT     H239357   9.835   3.151   3.139
13039WAT      O39358   3.895   2.534   3.640
13039WAT     H139359   3.988   2.569   3.631
13039WAT     H239360   3.897   2.443   3.683
13040WAT      O39361   0.705   0.823   5.426
13040WAT     H139362   0.691   0.728   5.397
13040WAT     H239363   0.802   0.837   5.446
13041WAT      O39364   5.999   5.720   7.026
13041WAT     H139365   5.981   5.806   6.977
13041WAT     H239366   6.086   5.682   6.996
13042WAT      O39367   6.548   1.474   6.596
13042WAT     H139368   6.580   1.481   6.501
13042WAT     H239369   6.569   1.383   6.631
13043WAT      O39370   0.372   0.651   2.958
13043WAT     H139371   0.384   0.555   2.983
13043WAT     H239372   0.299   0.690   3.013
13044WAT      O39373   3.632   6.730   4.179
13044WAT     H139374   3.573   6.809   4.193
13044WAT     H239375   3.654   6.721   4.082
13045WAT      O39376   7.741   7.019   1.759
13045WAT     H139377   7.663   7.009   1.820
13045WAT     H239378   7.786   6.931   1.746
13046WAT      O39379   9.142   3.256   7.908
13046WAT     H139380   9.121   3.319   7.983
13046WAT     H239381   9.183   3.173   7.945
13047WAT      O39382   5.601   9.272   7.934
13047WAT     H139383   5.593   9.358   7.883
13047WAT     H239384   5.532   9.207   7.900
13048WAT      O39385   6.451   2.008   0.677
13048WAT     H139386   6.418   1.915   0.690
13048WAT     H239387   6.542   2.018   0.716
13049WAT      O39388   3.394   8.098   1.274
13049WAT     H139389   3.304   8.054   1.274
13049WAT     H239390   3.465   8.030   1.292
13050WAT      O39391   7.021   6.049   6.265
13050WAT     H139392   7.069   6.086   6.185
13050WAT     H239393   6.944   5.993   6.234
13051WAT      O39394   2.513   4.284   1.436
13051WAT     H139395   2.463   4.233   1.366
13051WAT     H239396   2.474   4.265   1.526
13052WAT      O39397   3.604   7.251   0.808
13052WAT     H139398   3.679   7.253   0.742
13052WAT     H239399   3.519   7.227   0.762
13053WAT      O39400   9.785   1.211   5.676
13053WAT     H139401   9.725   1.184   5.751
13053WAT     H239402   9.765   1.156   5.595
13054WAT      O39403   9.474   3.797   3.457
13054WAT     H139404   9.404   3.849   3.409
13054WAT     H239405   9.438   3.707   3.483
13055WAT      O39406   0.478   3.409   9.431
13055WAT     H139407   0.390   3.361   9.429
13055WAT     H239408   0.462   3.507   9.422
13056WAT      O39409   7.238   1.496   0.239
13056WAT     H139410   7.300   1.568   0.271
13056WAT     H239411   7.269   1.407   0.274
13057WAT      O39412   4.246   9.442   1.582
13057WAT     H139413   4.321   9.380   1.608
13057WAT     H239414   4.160   9.391   1.580
13058WAT      O39415   1.875   8.753   6.164
13058WAT     H139416   1.857   8.661   6.197
13058WAT     H239417   1.917   8.749   6.074
13059WAT      O39418   7.907   5.303   0.119
13059WAT     H139419   7.840   5.228   0.124
13059WAT     H239420   7.860   5.390   0.133
13060WAT      O39421   6.017   6.630   4.171
13060WAT     H139422   5.962   6.548   4.160
13060WAT     H239423   6.012   6.662   4.265
13061WAT      O39424   2.794   2.516   0.354
13061WAT     H139425   2.733   2.505   0.433
13061WAT     H239426   2.740   2.543   0.274
13062WAT      O39427   7.535   1.771   3.672
13062WAT     H139428   7.484   1.726   3.598
13062WAT     H239429   7.549   1.706   3.747
13063WAT      O39430   2.606   6.895   2.766
13063WAT     H139431   2.654   6.921   2.682
13063WAT     H239432   2.523   6.950   2.775
13064WAT      O39433   6.717   9.095   1.864
13064WAT     H139434   6.685   9.078   1.957
13064WAT     H239435   6.814   9.120   1.866
13065WAT      O39436   3.151   3.407   9.601
13065WAT     H139437   3.176   3.339   9.669
13065WAT     H239438   3.070   3.457   9.632
13066WAT      O39439   7.778   1.988   2.941
13066WAT     H139440   7.730   2.059   2.890
13066WAT     H239441   7.823   1.926   2.877
13067WAT      O39442   1.677   1.293   2.980
13067WAT     H139443   1.612   1.348   2.928
13067WAT     H239444   1.659   1.196   2.963
13068WAT      O39445   4.624   8.330   7.452
13068WAT     H139446   4.700   8.394   7.465
13068WAT     H239447   4.553   8.374   7.397
13069WAT      O39448   4.553   4.754   4.501
13069WAT     H139449   4.554   4.663   4.460
13069WAT     H239450   4.466   4.799   4.480
13070WAT      O39451   7.192   8.935   7.010
13070WAT     H139452   7.224   8.848   7.048
13070WAT     H239453   7.099   8.924   6.976
13071WAT      O39454   5.936   1.911   7.408
13071WAT     H139455   5.875   1.988   7.386
13071WAT     H239456   6.004   1.940   7.475
13072WAT      O39457   1.158   7.277   8.525
13072WAT     H139458   1.146   7.376   8.530
13072WAT     H239459   1.103   7.232   8.595
13073WAT      O39460   8.669   7.991   5.685
13073WAT     H139461   8.699   7.896   5.674
13073WAT     H239462   8.578   8.002   5.646
13074WAT      O39463   5.354   3.213   0.304
13074WAT     H139464   5.275   3.161   0.273
13074WAT     H239465   5.438   3.169   0.271
13075WAT      O39466   4.636   6.774   5.666
13075WAT     H139467   4.693   6.771   5.748
13075WAT     H239468   4.655   6.859   5.617
13076WAT      O39469   9.440   5.387   6.648
13076WAT     H139470   9.399   5.468   6.690
13076WAT     H239471   9.536   5.406   6.625
13077WAT      O39472   4.925   6.254   6.931
13077WAT     H139473   4.967   6.342   6.909
13077WAT     H239474   4.833   6.270   6.969
13078WAT      O39475   3.293   3.693   6.789
13078WAT     H139476   3.357   3.766   6.763
13078WAT     H239477   3.233   3.673   6.712
13079WAT      O39478   4.043   0.086   6.383
13079WAT     H139479   3.959   0.037   6.406
13079WAT     H239480   4.057   0.161   6.448
13080WAT      O39481   1.086   4.238   4.712
13080WAT     H139482   1.119   4.309   4.649
13080WAT     H239483   1.139   4.154   4.699
13081WAT      O39484   2.753   5.648   9.797
13081WAT     H139485   2.815   5.710   9.845
13081WAT     H239486   2.659   5.665   9.827
13082WAT      O39487   6.333   9.824   3.935
13082WAT     H139488   6.376   9.745   3.980
13082WAT     H239489   6.234   9.810   3.931
13083WAT      O39490   7.995   2.151   5.247
13083WAT     H139491   8.016   2.206   5.328
13083WAT     H239492   7.913   2.189   5.203
13084WAT      O39493   9.566   5.125   7.931
13084WAT     H139494   9.468   5.104   7.931
13084WAT     H239495   9.614   5.056   7.878
13085WAT      O39496   7.356   7.214   6.650
13085WAT     H139497   7.432   7.278   6.660
13085WAT     H239498   7.277   7.248   6.701
13086WAT      O39499   8.342   3.713   8.734
13086WAT     H139500   8.392   3.799   8.732
13086WAT     H239501   8.405   3.638   8.754
13087WAT      O39502   9.181   6.857   5.346
13087WAT     H139503   9.164   6.918   5.424
13087WAT     H239504   9.230   6.907   5.275
13088WAT      O39505   7.046   7.984   0.913
13088WAT     H139506   7.020   8.013   1.005
13088WAT     H239507   7.045   8.063   0.851
13089WAT      O39508   6.419   6.301   3.483
13089WAT     H139509   6.485   6.262   3.419
13089WAT     H239510   6.373   6.228   3.533
13090WAT      O39511   0.457   5.022   0.717
13090WAT     H139512   0.434   5.119   0.718
13090WAT     H239513   0.556   5.012   0.711
13091WAT      O39514   5.743   7.245   2.316
13091WAT     H139515   5.768   7.321   2.376
13091WAT     H239516   5.818   7.179   2.313
13092WAT      O39517   4.754   1.225   0.361
13092WAT     H139518   4.714   1.136   0.382
13092WAT     H239519   4.847   1.213   0.327
13093WAT      O39520   9.285   2.167   0.124
13093WAT     H139521   9.327   2.237   0.183
13093WAT     H239522   9.187   2.162   0.144
13094WAT      O39523   9.829   6.355   0.250
13094WAT     H139524   9.809   6.298   0.330
13094WAT     H239525   9.921   6.394   0.259
13095WAT      O39526   3.971   0.157   5.263
13095WAT     H139527   4.003   0.072   5.221
13095WAT     H239528   3.902   0.137   5.332
13096WAT      O39529   7.444   6.791   0.611
13096WAT     H139530   7.522   6.760   0.557
13096WAT     H239531   7.433   6.890   0.601
13097WAT      O39532   9.343   4.258   5.864
13097WAT     H139533   9.426   4.298   5.904
13097WAT     H239534   9.357   4.161   5.847
13098WAT      O39535   3.326   0.810   0.747
13098WAT     H139536   3.410   0.762   0.720
13098WAT     H239537   3.349   0.881   0.814
13099WAT      O39538   2.313   0.165   7.425
13099WAT     H139539   2.366   0.083   7.406
13099WAT     H239540   2.277   0.161   7.518
13100WAT      O39541   5.325   3.388   1.604
13100WAT     H139542   5.240   3.439   1.620
13100WAT     H239543   5.399   3.430   1.657
13101WAT      O39544   0.810   8.983   3.657
13101WAT     H139545   0.895   8.989   3.710
13101WAT     H239546   0.818   8.911   3.588
13102WAT      O39547   7.624   0.038   3.711
13102WAT     H139548   7.559   0.079   3.775
13102WAT     H239549   7.715   0.039   3.752
13103WAT      O39550   5.094   7.932   4.924
13103WAT     H139551   5.053   7.847   4.890
13103WAT     H239552   5.192   7.916   4.940
13104WAT      O39553   1.505   2.109   2.498
13104WAT     H139554   1.521   2.136   2.594
13104WAT     H239555   1.446   2.029   2.496
13105WAT      O39556   9.770   8.567   5.379
13105WAT     H139557   9.686   8.518   5.357
13105WAT     H239558   9.849   8.507   5.365
13106WAT      O39559   0.051   2.922   7.892
13106WAT     H139560   0.134   2.977   7.884
13106WAT     H239561   0.074   2.825   7.884
13107WAT      O39562   0.526   8.688   0.333
13107WAT     H139563   0.601   8.687   0.399
13107WAT     H239564   0.561   8.716   0.244
13108WAT      O39565   8.672   5.961   2.964
13108WAT     H139566   8.743   5.897   2.992
13108WAT     H239567   8.593   5.951   3.024
13109WAT      O39568   8.418   8.983   2.273
13109WAT     H139569   8.349   8.912   2.260
13109WAT     H239570   8.381   9.072   2.245
13110WAT      O39571   1.308   0.241   3.688
13110WAT     H139572   1.366   0.223   3.768
13110WAT     H239573   1.241   0.312   3.711
13111WAT      O39574   2.955   5.938   3.249
13111WAT     H139575   2.918   5.886   3.171
13111WAT     H239576   2.998   6.022   3.215
13112WAT      O39577   1.050   7.094   4.183
13112WAT     H139578   1.037   7.193   4.184
13112WAT     H239579   1.106   7.067   4.262
13113WAT      O39580   3.663   2.754   2.161
13113WAT     H139581   3.653   2.837   2.216
13113WAT     H239582   3.758   2.746   2.130
13114WAT      O39583   2.621   1.131   6.764
13114WAT     H139584   2.696   1.087   6.813
13114WAT     H239585   2.563   1.180   6.829
13115WAT      O39586   4.585   8.452   4.125
13115WAT     H139587   4.589   8.470   4.223
13115WAT     H239588   4.498   8.409   4.103
13116WAT      O39589   5.232   1.569   7.183
13116WAT     H139590   5.295   1.610   7.117
13116WAT     H239591   5.252   1.604   7.274
13117WAT      O39592   7.285   3.846   1.405
13117WAT     H139593   7.377   3.810   1.416
13117WAT     H239594   7.225   3.807   1.475
13118WAT      O39595   3.231   7.600   8.074
13118WAT     H139596   3.314   7.554   8.044
13118WAT     H239597   3.151   7.546   8.045
13119WAT      O39598   1.485   3.222   4.387
13119WAT     H139599   1.450   3.169   4.464
13119WAT     H239600   1.549   3.291   4.420
13120WAT      O39601   5.320   0.055   9.044
13120WAT     H139602   5.245   0.120   9.026
13120WAT     H239603   5.312   0.022   9.138
13121WAT      O39604   2.334   2.274   1.372
13121WAT     H139605   2.252   2.255   1.317
13121WAT     H239606   2.411   2.292   1.312
13122WAT      O39607   0.879   9.207   5.773
13122WAT     H139608   0.841   9.168   5.857
13122WAT     H239609   0.874   9.307   5.778
13123WAT      O39610   2.103   7.748   7.090
13123WAT     H139611   2.174   7.763   7.020
13123WAT     H239612   2.108   7.820   7.159
13124WAT      O39613   8.473   5.347   6.901
13124WAT     H139614   8.418   5.386   6.827
13124WAT     H239615   8.508   5.421   6.959
13125WAT      O39616   7.766   1.548   1.555
13125WAT     H139617   7.863   1.548   1.531
13125WAT     H239618   7.712   1.518   1.476
13126WAT      O39619   2.056   4.212   7.597
13126WAT     H139620   2.015   4.226   7.507
13126WAT     H239621   2.052   4.115   7.621
13127WAT      O39622   9.591   6.122   9.296
13127WAT     H139623   9.549   6.200   9.342
13127WAT     H239624   9.690   6.125   9.310
13128WAT      O39625   8.283   2.847   9.464
13128WAT     H139626   8.303   2.840   9.366
13128WAT     H239627   8.249   2.938   9.486
13129WAT      O39628   5.609   0.407   4.668
13129WAT     H139629   5.705   0.380   4.676
13129WAT     H239630   5.584   0.464   4.746
13130WAT      O39631   7.912   9.507   1.864
13130WAT     H139632   7.889   9.413   1.890
13130WAT     H239633   7.882   9.570   1.936
13131WAT      O39634   7.833   7.771   5.140
13131WAT     H139635   7.859   7.691   5.194
13131WAT     H239636   7.777   7.833   5.196
13132WAT      O39637   5.993   8.590   3.331
13132WAT     H139638   5.921   8.656   3.354
13132WAT     H239639   5.997   8.520   3.402
13133WAT      O39640   6.162   9.301   2.209
13133WAT     H139641   6.181   9.297   2.111
13133WAT     H239642   6.199   9.386   2.247
13134WAT      O39643   6.267   0.948   2.987
13134WAT     H139644   6.198   0.993   2.931
13134WAT     H239645   6.327   0.893   2.929
13135WAT      O39646   7.246   4.605   0.840
13135WAT     H139647   7.243   4.683   0.777
13135WAT     H239648   7.218   4.634   0.931
13136WAT      O39649   2.637   3.036   0.723
13136WAT     H139650   2.610   3.115   0.779
13136WAT     H239651   2.559   3.005   0.669
13137WAT      O39652   7.241   9.141   6.593
13137WAT     H139653   7.226   9.151   6.494
13137WAT     H239654   7.284   9.224   6.628
13138WAT      O39655   3.693   7.780   4.666
13138WAT     H139656   3.742   7.698   4.636
13138WAT     H239657   3.704   7.852   4.598
13139WAT      O39658   2.507   1.231   5.054
13139WAT     H139659   2.459   1.269   4.975
13139WAT     H239660   2.606   1.235   5.039
13140WAT      O39661   0.957   4.770   9.851
13140WAT     H139662   0.996   4.815   9.771
13140WAT     H239663   1.018   4.780   9.929
13141WAT      O39664   8.918   2.424   1.046
13141WAT     H139665   8.938   2.445   1.142
13141WAT     H239666   8.960   2.493   0.987
13142WAT      O39667   3.551   2.497   9.872
13142WAT     H139668   3.472   2.530   9.820
13142WAT     H239669   3.634   2.510   9.817
13143WAT      O39670   5.154   6.607   2.710
13143WAT     H139671   5.167   6.706   2.713
13143WAT     H239672   5.207   6.564   2.783
13144WAT      O39673   0.551   5.388   2.523
13144WAT     H139674   0.608   5.307   2.535
13144WAT     H239675   0.530   5.427   2.613
13145WAT      O39676   6.897   7.336   6.738
13145WAT     H139677   6.927   7.343   6.643
13145WAT     H239678   6.802   7.305   6.741
13146WAT      O39679   8.705   0.963   9.622
13146WAT     H139680   8.717   0.907   9.539
13146WAT     H239681   8.725   0.907   9.703
13147WAT      O39682   1.754   7.224   4.424
13147WAT     H139683   1.842   7.267   4.447
13147WAT     H239684   1.749   7.212   4.325
13148WAT      O39685   7.637   6.827   9.276
13148WAT     H139686   7.600   6.917   9.300
13148WAT     H239687   7.639   6.818   9.176
13149WAT      O39688   3.503   3.548   5.996
13149WAT     H139689   3.417   3.570   5.951
13149WAT     H239690   3.578   3.553   5.930
13150WAT      O39691   1.895   2.375   7.093
13150WAT     H139692   1.833   2.307   7.132
13150WAT     H239693   1.902   2.453   7.155
13151WAT      O39694   7.392   8.759   5.071
13151WAT     H139695   7.326   8.834   5.069
13151WAT     H239696   7.402   8.727   5.165
13152WAT      O39697   3.696   4.578   3.128
13152WAT     H139698   3.669   4.496   3.178
13152WAT     H239699   3.763   4.629   3.183
13153WAT      O39700   1.363   1.555   0.807
13153WAT     H139701   1.416   1.631   0.770
13153WAT     H239702   1.276   1.548   0.758
13154WAT      O39703   9.855   1.142   0.110
13154WAT     H139704   9.952   1.164   0.117
13154WAT     H239705   9.821   1.167   0.019
13155WAT      O39706   2.052   6.062   9.665
13155WAT     H139707   2.100   6.103   9.587
13155WAT     H239708   2.114   6.057   9.743
13156WAT      O39709   3.064   8.725   0.662
13156WAT     H139710   3.058   8.763   0.754
13156WAT     H239711   3.155   8.684   0.649
13157WAT      O39712   3.468   7.965   1.626
13157WAT     H139713   3.473   8.058   1.663
13157WAT     H239714   3.478   7.968   1.527
13158WAT      O39715   1.109   8.825   8.164
13158WAT     H139716   1.082   8.843   8.069
13158WAT     H239717   1.114   8.726   8.179
13159WAT      O39718   8.950   1.024   7.947
13159WAT     H139719   8.915   1.065   8.032
13159WAT     H239720   8.881   0.962   7.910
13160WAT      O39721   5.264   3.324   1.335
13160WAT     H139722   5.298   3.344   1.427
13160WAT     H239723   5.341   3.314   1.273
13161WAT      O39724   7.401   0.146   7.313
13161WAT     H139725   7.384   0.098   7.227
13161WAT     H239726   7.495   0.129   7.342
13162WAT      O39727   6.382   7.937   2.892
13162WAT     H139728   6.422   7.846   2.883
13162WAT     H239729   6.410   7.993   2.813
13163WAT      O39730   0.948   7.528   1.704
13163WAT     H139731   1.028   7.481   1.743
13163WAT     H239732   0.936   7.499   1.609
13164WAT      O39733   2.352   8.935   7.897
13164WAT     H139734   2.353   9.035   7.905
13164WAT     H239735   2.371   8.895   7.987
13165WAT      O39736   5.321   6.927   9.816
13165WAT     H139737   5.327   6.917   9.716
13165WAT     H239738   5.246   6.988   9.838
13166WAT      O39739   2.711   9.469   2.459
13166WAT     H139740   2.629   9.454   2.515
13166WAT     H239741   2.713   9.564   2.429
13167WAT      O39742   2.373   8.964   5.616
13167WAT     H139743   2.434   9.041   5.635
13167WAT     H239744   2.322   8.981   5.531
13168WAT      O39745   2.379   5.822   2.724
13168WAT     H139746   2.349   5.770   2.644
13168WAT     H239747   2.304   5.882   2.754
13169WAT      O39748   9.169   6.554   9.374
13169WAT     H139749   9.224   6.632   9.345
13169WAT     H239750   9.088   6.587   9.423
13170WAT      O39751   7.602   5.245   1.765
13170WAT     H139752   7.556   5.173   1.818
13170WAT     H239753   7.537   5.286   1.702
13171WAT      O39754   9.072   8.026   8.340
13171WAT     H139755   9.144   8.067   8.396
13171WAT     H239756   9.025   7.956   8.392
13172WAT      O39757   5.299   2.325   1.767
13172WAT     H139758   5.353   2.241   1.769
13172WAT     H239759   5.278   2.353   1.860
13173WAT      O39760   9.311   4.168   7.059
13173WAT     H139761   9.294   4.244   7.121
13173WAT     H239762   9.250   4.092   7.081
13174WAT      O39763   8.101   0.135   8.536
13174WAT     H139764   8.058   0.189   8.463
13174WAT     H239765   8.195   0.167   8.550
13175WAT      O39766   4.117   8.505   2.352
13175WAT     H139767   4.207   8.480   2.386
13175WAT     H239768   4.126   8.570   2.277
13176WAT      O39769   4.014   1.822   1.054
13176WAT     H139770   4.110   1.818   1.083
13176WAT     H239771   3.987   1.734   1.015
13177WAT      O39772   8.655   2.799   4.042
13177WAT     H139773   8.675   2.792   4.139
13177WAT     H239774   8.662   2.709   3.999
13178WAT      O39775   6.111   7.668   8.462
13178WAT     H139776   6.200   7.622   8.470
13178WAT     H239777   6.052   7.616   8.400
13179WAT      O39778   0.064   8.108   2.620
13179WAT     H139779   0.160   8.102   2.593
13179WAT     H239780   0.032   8.202   2.607
13180WAT      O39781   2.797   1.546   5.436
13180WAT     H139782   2.791   1.469   5.372
13180WAT     H239783   2.706   1.570   5.469
13181WAT      O39784   5.491   3.091   7.123
13181WAT     H139785   5.417   3.078   7.189
13181WAT     H239786   5.454   3.130   7.039
13182WAT      O39787   2.087   9.303   3.247
13182WAT     H139788   2.060   9.230   3.184
13182WAT     H239789   2.119   9.263   3.333
13183WAT      O39790   0.854   6.893   5.918
13183WAT     H139791   0.860   6.961   5.991
13183WAT     H239792   0.879   6.936   5.831
13184WAT      O39793   6.586   5.942   1.651
13184WAT     H139794   6.580   5.875   1.724
13184WAT     H239795   6.536   6.024   1.676
13185WAT      O39796   6.387   5.927   3.260
13185WAT     H139797   6.294   5.965   3.254
13185WAT     H239798   6.450   5.987   3.212
13186WAT      O39799   3.808   0.895   2.739
13186WAT     H139800   3.760   0.919   2.823
13186WAT     H239801   3.744   0.853   2.675
13187WAT      O39802   2.873   4.662   6.317
13187WAT     H139803   2.787   4.711   6.300
13187WAT     H239804   2.948   4.727   6.324
13188WAT      O39805   2.942   9.319   1.196
13188WAT     H139806   3.036   9.331   1.162
13188WAT     H239807   2.918   9.222   1.191
13189WAT      O39808   1.563   1.128   6.685
13189WAT     H139809   1.565   1.031   6.706
13189WAT     H239810   1.605   1.145   6.596
13190WAT      O39811   0.577   3.942   2.748
13190WAT     H139812   0.577   4.041   2.755
13190WAT     H239813   0.556   3.915   2.654
13191WAT      O39814   9.111   3.408   2.648
13191WAT     H139815   9.109   3.465   2.730
13191WAT     H239816   9.037   3.341   2.653
13192WAT      O39817   7.679   2.685   8.114
13192WAT     H139818   7.775   2.714   8.114
13192WAT     H239819   7.675   2.586   8.127
13193WAT      O39820   9.083   5.445   5.040
13193WAT     H139821   9.136   5.490   4.968
13193WAT     H239822   9.144   5.422   5.116
13194WAT      O39823   7.646   4.022   8.232
13194WAT     H139824   7.616   3.927   8.230
13194WAT     H239825   7.625   4.062   8.321
13195WAT      O39826   1.725   3.385   6.165
13195WAT     H139827   1.651   3.447   6.138
13195WAT     H239828   1.796   3.437   6.211
13196WAT      O39829   0.218   2.094   8.044
13196WAT     H139830   0.188   2.189   8.054
13196WAT     H239831   0.318   2.090   8.048
13197WAT      O39832   6.851   5.351   2.014
13197WAT     H139833   6.912   5.349   1.935
13197WAT     H239834   6.783   5.423   2.002
13198WAT      O39835   4.974   1.939   5.902
13198WAT     H139836   4.995   1.949   5.805
13198WAT     H239837   4.988   2.027   5.949
13199WAT      O39838   7.619   5.012   5.643
13199WAT     H139839   7.613   5.092   5.704
13199WAT     H239840   7.710   4.972   5.649
13200WAT      O39841   9.793   5.478   5.372
13200WAT     H139842   9.698   5.504   5.389
13200WAT     H239843   9.803   5.451   5.276
13201WAT      O39844   2.698   5.661   7.829
13201WAT     H139845   2.653   5.575   7.806
13201WAT     H239846   2.794   5.644   7.851
13202WAT      O39847   0.333   4.948   1.007
13202WAT     H139848   0.421   4.973   0.966
13202WAT     H239849   0.277   5.031   1.020
13203WAT      O39850   9.411   0.637   0.530
13203WAT     H139851   9.352   0.601   0.457
13203WAT     H239852   9.465   0.563   0.569
13204WAT      O39853   8.623   0.051   4.173
13204WAT     H139854   8.667  -0.037   4.151
13204WAT     H239855   8.545   0.035   4.232
13205WAT      O39856   2.872   6.080   4.376
13205WAT     H139857   2.961   6.106   4.413
13205WAT     H239858   2.883   6.046   4.283
13206WAT      O39859   7.561   8.869   9.240
13206WAT     H139860   7.519   8.902   9.155
13206WAT     H239861   7.504   8.895   9.317
13207WAT      O39862   9.801   3.111   2.336
13207WAT     H139863   9.739   3.043   2.296
13207WAT     H239864   9.786   3.199   2.292
13208WAT      O39865   7.813   2.510   0.237
13208WAT     H139866   7.740   2.496   0.170
13208WAT     H239867   7.779   2.565   0.313
13209WAT      O39868   1.336   0.544   2.371
13209WAT     H139869   1.240   0.540   2.400
13209WAT     H239870   1.378   0.454   2.385
13210WAT      O39871   1.108   0.160   1.764
13210WAT     H139872   1.195   0.179   1.719
13210WAT     H239873   1.125   0.123   1.856
13211WAT      O39874   4.812   9.798   8.820
13211WAT     H139875   4.754   9.812   8.900
13211WAT     H239876   4.906   9.822   8.843
13212WAT      O39877   2.524   2.658   7.916
13212WAT     H139878   2.521   2.572   7.967
13212WAT     H239879   2.576   2.726   7.968
13213WAT      O39880   6.696   5.122   0.533
13213WAT     H139881   6.715   5.204   0.479
13213WAT     H239882   6.653   5.149   0.619
13214WAT      O39883   5.850   2.812   9.894
13214WAT     H139884   5.842   2.863   9.808
13214WAT     H239885   5.831   2.715   9.876
13215WAT      O39886   2.503   1.991   0.092
13215WAT     H139887   2.484   2.086   0.116
13215WAT     H239888   2.571   1.953   0.155
13216WAT      O39889   4.868   0.368   2.153
13216WAT     H139890   4.782   0.379   2.203
13216WAT     H239891   4.932   0.439   2.182
13217WAT      O39892   0.917   6.733   3.151
13217WAT     H139893   0.962   6.749   3.063
13217WAT     H239894   0.827   6.776   3.152
13218WAT      O39895   6.328   6.583   2.328
13218WAT     H139896   6.290   6.647   2.395
13218WAT     H239897   6.325   6.625   2.237
13219WAT      O39898   7.977   7.455   4.201
13219WAT     H139899   7.910   7.395   4.157
13219WAT     H239900   8.013   7.519   4.133
13220WAT      O39901   1.061   9.307   2.851
13220WAT     H139902   1.011   9.317   2.937
13220WAT     H239903   1.138   9.245   2.864
13221WAT      O39904   2.580   5.474   1.995
13221WAT     H139905   2.582   5.390   2.048
13221WAT     H239906   2.580   5.553   2.056
13222WAT      O39907   4.053   9.359   7.757
13222WAT     H139908   4.146   9.347   7.721
13222WAT     H239909   4.004   9.272   7.753
13223WAT      O39910   2.656   1.966   6.213
13223WAT     H139911   2.578   1.904   6.202
13223WAT     H239912   2.623   2.060   6.210
13224WAT      O39913   0.817   0.460   1.637
13224WAT     H139914   0.909   0.491   1.615
13224WAT     H239915   0.821   0.391   1.709
13225WAT      O39916   4.056   2.337   4.745
13225WAT     H139917   4.085   2.247   4.778
13225WAT     H239918   3.967   2.329   4.699
13226WAT      O39919   7.653   9.169   4.305
13226WAT     H139920   7.643   9.122   4.217
13226WAT     H239921   7.717   9.246   4.294
13227WAT      O39922   6.300   0.773   8.065
13227WAT     H139923   6.234   0.756   7.992
13227WAT     H239924   6.373   0.832   8.031
13228WAT      O39925   9.863   8.676   6.593
13228WAT     H139926   9.874   8.577   6.584
13228WAT     H239927   9.905   8.706   6.679
13229WAT      O39928   0.631   7.892   7.060
13229WAT     H139929   0.657   7.932   6.972
13229WAT     H239930   0.545   7.934   7.091
13230WAT      O39931   8.116   8.821   9.776
13230WAT     H139932   8.103   8.814   9.875
13230WAT     H239933   8.169   8.904   9.756
13231WAT      O39934   1.305   9.784   8.381
13231WAT     H139935   1.391   9.782   8.432
13231WAT     H239936   1.253   9.865   8.406
13232WAT      O39937   2.657   0.212   5.490
13232WAT     H139938   2.603   0.289   5.456
13232WAT     H239939   2.649   0.206   5.589
13233WAT      O39940   5.113   4.083   5.072
13233WAT     H139941   5.203   4.041   5.059
13233WAT     H239942   5.095   4.145   4.996
13234WAT      O39943   7.973   5.707   1.184
13234WAT     H139944   8.050   5.663   1.138
13234WAT     H239945   8.005   5.759   1.262
13235WAT      O39946   2.418   9.467   3.473
13235WAT     H139947   2.447   9.406   3.399
13235WAT     H239948   2.355   9.535   3.437
13236WAT      O39949   3.876   5.974   0.215
13236WAT     H139950   3.923   5.964   0.303
13236WAT     H239951   3.943   5.996   0.144
13237WAT      O39952   9.727   4.530   5.801
13237WAT     H139953   9.647   4.584   5.774
13237WAT     H239954   9.726   4.515   5.900
13238WAT      O39955   1.438   3.407   3.260
13238WAT     H139956   1.401   3.473   3.325
13238WAT     H239957   1.406   3.315   3.284
13239WAT      O39958   4.878   4.838   0.629
13239WAT     H139959   4.792   4.836   0.578
13239WAT     H239960   4.861   4.865   0.724
13240WAT      O39961   3.140   0.296   3.216
13240WAT     H139962   3.172   0.307   3.310
13240WAT     H239963   3.112   0.384   3.180
13241WAT      O39964   3.155   0.055   8.375
13241WAT     H139965   3.094   0.030   8.451
13241WAT     H239966   3.192  -0.029   8.334
13242WAT      O39967   9.394   3.051   6.182
13242WAT     H139968   9.419   3.079   6.274
13242WAT     H239969   9.460   3.088   6.116
13243WAT      O39970   8.430   6.533   7.872
13243WAT     H139971   8.424   6.534   7.772
13243WAT     H239972   8.464   6.444   7.903
13244WAT      O39973   0.461   6.309   9.125
13244WAT     H139974   0.480   6.215   9.154
13244WAT     H239975   0.362   6.326   9.131
13245WAT      O39976   2.893   6.512   3.871
13245WAT     H139977   2.986   6.537   3.846
13245WAT     H239978   2.861   6.570   3.946
13246WAT      O39979   1.289   7.073   5.344
13246WAT     H139980   1.235   7.078   5.260
13246WAT     H239981   1.381   7.107   5.327
13247WAT      O39982   4.972   7.536   9.302
13247WAT     H139983   4.877   7.566   9.304
13247WAT     H239984   4.977   7.439   9.277
13248WAT      O39985   5.220   0.080   3.593
13248WAT     H139986   5.163   0.158   3.570
13248WAT     H239987   5.316   0.101   3.574
13249WAT      O39988   9.138   6.044   5.084
13249WAT     H139989   9.225   6.010   5.119
13249WAT     H239990   9.133   6.143   5.097
13250WAT      O39991   6.315   0.463   3.771
13250WAT     H139992   6.285   0.409   3.693
13250WAT     H239993   6.236   0.506   3.815
13251WAT      O39994   0.954   9.236   5.498
13251WAT     H139995   0.930   9.225   5.594
13251WAT     H239996   0.986   9.148   5.461
13252WAT      O39997   1.040   7.139   8.727
13252WAT     H139998   0.985   7.150   8.809
13252WAT     H239999   1.004   7.064   8.671
13253WAT      O40000   9.147   6.514   4.881
13253WAT     H140001   9.223   6.486   4.940
13253WAT     H240002   9.102   6.433   4.845
13254WAT      O40003   2.790   0.951   5.042
13254WAT     H140004   2.889   0.938   5.046
13254WAT     H240005   2.751   0.938   5.133
13255WAT      O40006   2.794   6.927   1.230
13255WAT     H140007   2.782   6.952   1.134
13255WAT     H240008   2.740   6.988   1.287
13256WAT      O40009   8.985   1.673   3.244
13256WAT     H140010   8.996   1.712   3.336
13256WAT     H240011   8.888   1.653   3.228
13257WAT      O40012   3.512   0.414   4.869
13257WAT     H140013   3.563   0.373   4.793
13257WAT     H240014   3.496   0.345   4.940
13258WAT      O40015   7.625   3.174   5.306
13258WAT     H140016   7.722   3.167   5.282
13258WAT     H240017   7.581   3.085   5.294
13259WAT      O40018   1.759   0.570   1.688
13259WAT     H140019   1.665   0.602   1.677
13259WAT     H240020   1.786   0.579   1.784
13260WAT      O40021   0.016   9.630   1.164
13260WAT     H140022  -0.056   9.580   1.212
13260WAT     H240023  -0.025   9.704   1.111
13261WAT      O40024   3.447   7.867   3.746
13261WAT     H140025   3.392   7.917   3.679
13261WAT     H240026   3.482   7.783   3.704
13262WAT      O40027   2.513   1.958   9.095
13262WAT     H140028   2.581   1.951   9.168
13262WAT     H240029   2.466   1.870   9.087
13263WAT      O40030   7.873   5.024   5.268
13263WAT     H140031   7.927   5.019   5.352
13263WAT     H240032   7.857   5.120   5.244
13264WAT      O40033   1.755   7.554   6.081
13264WAT     H140034   1.801   7.562   5.993
13264WAT     H240035   1.700   7.471   6.084
13265WAT      O40036   9.238   7.428   0.896
13265WAT     H140037   9.148   7.404   0.933
13265WAT     H240038   9.231   7.442   0.797
13266WAT      O40039   7.783   3.823   1.187
13266WAT     H140040   7.749   3.887   1.255
13266WAT     H240041   7.808   3.737   1.231
13267WAT      O40042   7.486   3.973   5.904
13267WAT     H140043   7.444   4.064   5.902
13267WAT     H240044   7.485   3.934   5.812
13268WAT      O40045   2.274   7.691   9.138
13268WAT     H140046   2.174   7.689   9.147
13268WAT     H240047   2.315   7.687   9.229
13269WAT      O40048   5.555   7.531   3.234
13269WAT     H140049   5.652   7.531   3.210
13269WAT     H240050   5.506   7.468   3.175
13270WAT      O40051   3.813   8.938   0.156
13270WAT     H140052   3.787   8.992   0.076
13270WAT     H240053   3.909   8.955   0.178
13271WAT      O40054   3.621   9.798   0.563
13271WAT     H140055   3.596   9.708   0.529
13271WAT     H240056   3.539   9.847   0.593
13272WAT      O40057   6.243   9.143   1.099
13272WAT     H140058   6.234   9.238   1.128
13272WAT     H240059   6.325   9.132   1.044
13273WAT      O40060   2.721   0.389   5.951
13273WAT     H140061   2.701   0.310   6.008
13273WAT     H240062   2.817   0.386   5.923
13274WAT      O40063   4.968   1.696   4.525
13274WAT     H140064   4.999   1.614   4.574
13274WAT     H240065   4.895   1.740   4.576
13275WAT      O40066   7.258   0.893   4.880
13275WAT     H140067   7.308   0.856   4.958
13275WAT     H240068   7.305   0.870   4.795
13276WAT      O40069   7.370   0.224   4.513
13276WAT     H140070   7.301   0.291   4.487
13276WAT     H240071   7.336   0.132   4.495
13277WAT      O40072   3.220   4.946   9.427
13277WAT     H140073   3.238   4.848   9.420
13277WAT     H240074   3.204   4.970   9.522
13278WAT      O40075   4.922   7.253   5.439
13278WAT     H140076   4.902   7.162   5.403
13278WAT     H240077   4.854   7.318   5.406
13279WAT      O40078   1.360   4.985   3.492
13279WAT     H140079   1.380   4.912   3.428
13279WAT     H240080   1.383   4.955   3.585
13280WAT      O40081   0.954   3.127   6.069
13280WAT     H140082   0.967   3.059   5.997
13280WAT     H240083   0.925   3.214   6.029
13281WAT      O40084   0.432   7.828   1.619
13281WAT     H140085   0.449   7.804   1.714
13281WAT     H240086   0.437   7.746   1.562
13282WAT      O40087   5.335   0.994   7.410
13282WAT     H140088   5.239   1.021   7.405
13282WAT     H240089   5.356   0.963   7.503
13283WAT      O40090   3.781   8.527   4.187
13283WAT     H140091   3.716   8.526   4.264
13283WAT     H240092   3.818   8.619   4.176
13284WAT      O40093   4.632   9.034   8.109
13284WAT     H140094   4.595   8.946   8.138
13284WAT     H240095   4.572   9.074   8.040
13285WAT      O40096   9.357   1.227   8.084
13285WAT     H140097   9.306   1.144   8.108
13285WAT     H240098   9.295   1.290   8.037
13286WAT      O40099   3.083   3.736   1.069
13286WAT     H140100   3.064   3.799   0.994
13286WAT     H240101   3.058   3.643   1.041
13287WAT      O40102   8.339   0.149   9.268
13287WAT     H140103   8.412   0.216   9.257
13287WAT     H240104   8.275   0.179   9.339
13288WAT      O40105   6.194   1.220   2.407
13288WAT     H140106   6.278   1.171   2.383
13288WAT     H240107   6.119   1.155   2.418
13289WAT      O40108   2.578   8.072   8.590
13289WAT     H140109   2.638   8.006   8.635
13289WAT     H240110   2.578   8.157   8.643
13290WAT      O40111   7.808   7.100   5.106
13290WAT     H140112   7.898   7.131   5.076
13290WAT     H240113   7.765   7.170   5.164
13291WAT      O40114   0.423   8.914   6.785
13291WAT     H140115   0.395   8.949   6.875
13291WAT     H240116   0.401   8.817   6.778
13292WAT      O40117   8.124   0.213   2.421
13292WAT     H140118   8.107   0.187   2.516
13292WAT     H240119   8.135   0.132   2.364
13293WAT      O40120   6.823   4.115   3.047
13293WAT     H140121   6.894   4.091   2.981
13293WAT     H240122   6.770   4.191   3.012
13294WAT      O40123   7.583   5.478   6.254
13294WAT     H140124   7.662   5.445   6.306
13294WAT     H240125   7.500   5.436   6.290
13295WAT      O40126   3.919   5.888   6.814
13295WAT     H140127   3.831   5.839   6.814
13295WAT     H240128   3.989   5.830   6.856
13296WAT      O40129   6.840   1.338   7.593
13296WAT     H140130   6.928   1.293   7.577
13296WAT     H240131   6.767   1.281   7.557
13297WAT      O40132   2.697   8.303   5.624
13297WAT     H140133   2.642   8.384   5.646
13297WAT     H240134   2.638   8.223   5.619
13298WAT      O40135   7.686   4.639   2.820
13298WAT     H140136   7.781   4.667   2.814
13298WAT     H240137   7.629   4.716   2.849
13299WAT      O40138   9.432   9.658   1.998
13299WAT     H140139   9.368   9.685   2.070
13299WAT     H240140   9.520   9.702   2.013
13300WAT      O40141   9.156   1.418   8.014
13300WAT     H140142   9.062   1.390   7.996
13300WAT     H240143   9.188   1.480   7.943
13301WAT      O40144   3.835   9.547   0.980
13301WAT     H140145   3.900   9.562   1.054
13301WAT     H240146   3.799   9.635   0.948
13302WAT      O40147   6.686   0.096   6.800
13302WAT     H140148   6.587   0.110   6.800
13302WAT     H240149   6.720   0.103   6.706
13303WAT      O40150   0.810   5.176   6.304
13303WAT     H140151   0.716   5.188   6.336
13303WAT     H240152   0.822   5.225   6.217
13304WAT      O40153   5.021   9.200   9.735
13304WAT     H140154   4.993   9.105   9.752
13304WAT     H240155   4.941   9.254   9.711
13305WAT      O40156   7.220   1.821   8.786
13305WAT     H140157   7.288   1.882   8.826
13305WAT     H240158   7.226   1.731   8.829
13306WAT      O40159   0.762   2.409   6.829
13306WAT     H140160   0.835   2.355   6.788
13306WAT     H240161   0.788   2.505   6.831
13307WAT      O40162   2.089   1.331   2.159
13307WAT     H140163   2.070   1.339   2.061
13307WAT     H240164   2.092   1.234   2.184
13308WAT      O40165   6.405   6.854   2.588
13308WAT     H140166   6.415   6.911   2.670
13308WAT     H240167   6.320   6.878   2.542
13309WAT      O40168   6.468   4.331   4.789
13309WAT     H140169   6.493   4.248   4.839
13309WAT     H240170   6.491   4.411   4.843
13310WAT      O40171   4.374   3.498   1.736
13310WAT     H140172   4.409   3.559   1.666
13310WAT     H240173   4.284   3.463   1.708
13311WAT      O40174   9.595   6.494   4.788
13311WAT     H140175   9.656   6.514   4.711
13311WAT     H240176   9.574   6.578   4.837
13312WAT      O40177   7.670   4.974   2.338
13312WAT     H140178   7.573   4.993   2.357
13312WAT     H240179   7.691   5.001   2.244
13313WAT      O40180   0.342   3.062   2.265
13313WAT     H140181   0.311   3.155   2.287
13313WAT     H240182   0.438   3.052   2.290
13314WAT      O40183   1.771   9.790   3.496
13314WAT     H140184   1.748   9.726   3.570
13314WAT     H240185   1.823   9.867   3.533
13315WAT      O40186   6.416   2.046   8.109
13315WAT     H140187   6.433   2.113   8.181
13315WAT     H240188   6.497   1.988   8.097
13316WAT      O40189   0.006   6.261   3.092
13316WAT     H140190  -0.041   6.208   3.162
13316WAT     H240191   0.048   6.342   3.134
13317WAT      O40192   1.734   1.751   7.371
13317WAT     H140193   1.686   1.805   7.439
13317WAT     H240194   1.812   1.803   7.336
13318WAT      O40195   4.010   1.036   4.184
13318WAT     H140196   4.085   1.014   4.121
13318WAT     H240197   3.971   1.125   4.161
13319WAT      O40198   9.175   2.622   9.243
13319WAT     H140199   9.236   2.629   9.322
13319WAT     H240200   9.226   2.584   9.165
13320WAT      O40201   0.065   1.000   1.710
13320WAT     H140202   0.033   0.993   1.804
13320WAT     H240203   0.087   1.095   1.688
13321WAT      O40204   7.092   4.199   2.622
13321WAT     H140205   7.184   4.160   2.617
13321WAT     H240206   7.061   4.222   2.530
13322WAT      O40207   6.966   1.006   4.875
13322WAT     H140208   7.057   0.964   4.872
13322WAT     H240209   6.898   0.936   4.895
13323WAT      O40210   2.825   5.520   5.040
13323WAT     H140211   2.812   5.421   5.048
13323WAT     H240212   2.741   5.567   5.067
13324WAT      O40213   7.841   7.072   9.835
13324WAT     H140214   7.795   7.043   9.751
13324WAT     H240215   7.909   7.142   9.813
13325WAT      O40216   2.041   8.418   3.638
13325WAT     H140217   1.999   8.377   3.719
13325WAT     H240218   2.047   8.350   3.565
13326WAT      O40219   4.777   1.348   7.432
13326WAT     H140220   4.687   1.335   7.391
13326WAT     H240221   4.848   1.322   7.366
13327WAT      O40222   3.593   9.120   6.824
13327WAT     H140223   3.501   9.085   6.805
13327WAT     H240224   3.587   9.214   6.857
13328WAT      O40225   4.397   2.502   9.795
13328WAT     H140226   4.358   2.438   9.861
13328WAT     H240227   4.348   2.589   9.799
13329WAT      O40228   6.521   6.329   7.091
13329WAT     H140229   6.463   6.400   7.131
13329WAT     H240230   6.487   6.305   7.000
13330WAT      O40231   4.495   0.062   7.384
13330WAT     H140232   4.470   0.017   7.469
13330WAT     H240233   4.412   0.089   7.335
13331WAT      O40234   4.535   0.215   7.946
13331WAT     H140235   4.460   0.185   7.888
13331WAT     H240236   4.514   0.193   8.042
13332WAT      O40237   9.736   5.718   4.920
13332WAT     H140238   9.804   5.763   4.862
13332WAT     H240239   9.764   5.624   4.938
13333WAT      O40240   6.236   7.493   7.480
13333WAT     H140241   6.140   7.509   7.455
13333WAT     H240242   6.240   7.444   7.567
13334WAT      O40243   2.216   7.479   6.116
13334WAT     H140244   2.244   7.550   6.051
13334WAT     H240245   2.130   7.504   6.158
13335WAT      O40246   6.639   3.085   4.381
13335WAT     H140247   6.669   3.124   4.294
13335WAT     H240248   6.610   3.159   4.442
13336WAT      O40249   1.733   6.925   4.419
13336WAT     H140250   1.735   6.980   4.335
13336WAT     H240251   1.698   6.834   4.397
13337WAT      O40252   2.425   7.479   1.376
13337WAT     H140253   2.376   7.566   1.375
13337WAT     H240254   2.413   7.435   1.465
13338WAT      O40255   2.696   1.931   5.605
13338WAT     H140256   2.794   1.951   5.597
13338WAT     H240257   2.649   2.010   5.643
13339WAT      O40258   1.365   2.082   8.666
13339WAT     H140259   1.417   2.151   8.717
13339WAT     H240260   1.326   2.123   8.584
13340WAT      O40261   0.608   2.404   6.497
13340WAT     H140262   0.638   2.320   6.543
13340WAT     H240263   0.509   2.414   6.506
13341WAT      O40264   2.695   5.754   7.520
13341WAT     H140265   2.646   5.672   7.493
13341WAT     H240266   2.701   5.758   7.620
13342WAT      O40267   1.809   2.109   6.174
13342WAT     H140268   1.846   2.042   6.237
13342WAT     H240269   1.876   2.129   6.102
13343WAT      O40270   2.982   0.339   0.329
13343WAT     H140271   2.924   0.395   0.389
13343WAT     H240272   3.016   0.261   0.381
13344WAT      O40273   7.111   9.605   8.279
13344WAT     H140274   7.114   9.704   8.270
13344WAT     H240275   7.017   9.573   8.270
13345WAT      O40276   8.875   2.550   5.650
13345WAT     H140277   8.904   2.621   5.715
13345WAT     H240278   8.776   2.536   5.659
13346WAT      O40279   6.375   0.804   4.783
13346WAT     H140280   6.319   0.737   4.735
13346WAT     H240281   6.416   0.867   4.717
13347WAT      O40282   7.421   7.673   7.836
13347WAT     H140283   7.419   7.590   7.892
13347WAT     H240284   7.514   7.709   7.832
13348WAT      O40285   9.062   9.459   0.761
13348WAT     H140286   9.106   9.485   0.675
13348WAT     H240287   9.101   9.512   0.836
13349WAT      O40288   8.373   4.299   1.483
13349WAT     H140289   8.313   4.255   1.416
13349WAT     H240290   8.459   4.248   1.489
13350WAT      O40291   7.967   0.643   2.819
13350WAT     H140292   7.956   0.736   2.786
13350WAT     H240293   8.060   0.632   2.856
13351WAT      O40294   8.419   7.633   5.662
13351WAT     H140295   8.458   7.699   5.726
13351WAT     H240296   8.488   7.610   5.593
13352WAT      O40297   5.857   2.028   3.355
13352WAT     H140298   5.837   2.081   3.437
13352WAT     H240299   5.943   1.979   3.367
13353WAT      O40300   2.085   7.356   6.912
13353WAT     H140301   2.171   7.345   6.863
13353WAT     H240302   2.102   7.352   7.011
13354WAT      O40303   7.676   7.946   9.554
13354WAT     H140304   7.707   7.951   9.648
13354WAT     H240305   7.577   7.932   9.552
13355WAT      O40306   9.501   0.185   2.032
13355WAT     H140307   9.446   0.237   2.097
13355WAT     H240308   9.537   0.247   1.962
13356WAT      O40309   7.925   4.366   7.284
13356WAT     H140310   7.928   4.340   7.381
13356WAT     H240311   8.017   4.366   7.247
13357WAT      O40312   5.803   2.150   6.935
13357WAT     H140313   5.855   2.211   6.877
13357WAT     H240314   5.796   2.189   7.027
13358WAT      O40315   7.752   3.285   1.414
13358WAT     H140316   7.757   3.229   1.496
13358WAT     H240317   7.781   3.378   1.435
13359WAT      O40318   1.390   8.880   2.475
13359WAT     H140319   1.431   8.949   2.416
13359WAT     H240320   1.457   8.809   2.496
13360WAT      O40321   5.857   9.831   1.970
13360WAT     H140322   5.829   9.774   2.047
13360WAT     H240323   5.954   9.816   1.950
13361WAT      O40324   9.403   1.858   3.105
13361WAT     H140325   9.339   1.783   3.088
13361WAT     H240326   9.393   1.889   3.200
13362WAT      O40327   8.708   7.050   1.774
13362WAT     H140328   8.700   7.108   1.693
13362WAT     H240329   8.724   6.955   1.745
13363WAT      O40330   0.505   4.119   3.547
13363WAT     H140331   0.577   4.069   3.500
13363WAT     H240332   0.480   4.070   3.631
13364WAT      O40333   6.842   4.827   4.402
13364WAT     H140334   6.760   4.883   4.388
13364WAT     H240335   6.913   4.856   4.337
13365WAT      O40336   1.500   3.264   3.824
13365WAT     H140337   1.515   3.208   3.742
13365WAT     H240338   1.588   3.290   3.863
13366WAT      O40339   3.593   1.154   9.630
13366WAT     H140340   3.617   1.091   9.704
13366WAT     H240341   3.634   1.244   9.647
13367WAT      O40342   3.075   5.946   8.874
13367WAT     H140343   3.133   5.921   8.951
13367WAT     H240344   3.036   6.037   8.889
13368WAT      O40345   6.757   6.210   8.022
13368WAT     H140346   6.767   6.304   8.053
13368WAT     H240347   6.705   6.209   7.936
13369WAT      O40348   7.959   6.579   5.943
13369WAT     H140349   7.981   6.676   5.946
13369WAT     H240350   7.931   6.548   6.034
13370WAT      O40351   7.103   0.825   3.326
13370WAT     H140352   7.152   0.747   3.287
13370WAT     H240353   7.164   0.904   3.331
13371WAT      O40354   1.768   1.998   5.267
13371WAT     H140355   1.695   2.035   5.325
13371WAT     H240356   1.738   1.911   5.228
13372WAT      O40357   3.503   0.229   7.271
13372WAT     H140358   3.455   0.146   7.298
13372WAT     H240359   3.522   0.285   7.352
13373WAT      O40360   2.506   0.269   7.202
13373WAT     H140361   2.411   0.273   7.172
13373WAT     H240362   2.509   0.243   7.299
13374WAT      O40363   1.297   2.039   4.322
13374WAT     H140364   1.206   2.039   4.363
13374WAT     H240365   1.290   2.061   4.225
13375WAT      O40366   4.267   1.495   5.650
13375WAT     H140367   4.204   1.527   5.580
13375WAT     H240368   4.358   1.531   5.632
13376WAT      O40369   2.831   3.218   6.652
13376WAT     H140370   2.822   3.316   6.671
13376WAT     H240371   2.752   3.169   6.690
13377WAT      O40372   3.154   9.020   4.455
13377WAT     H140373   3.245   8.978   4.456
13377WAT     H240374   3.103   8.991   4.535
13378WAT      O40375   8.111   7.325   5.842
13378WAT     H140376   8.137   7.411   5.886
13378WAT     H240377   8.031   7.287   5.887
13379WAT      O40378   8.747   2.674   7.400
13379WAT     H140379   8.829   2.715   7.438
13379WAT     H240380   8.769   2.587   7.357
13380WAT      O40381   2.233   5.167   8.882
13380WAT     H140382   2.182   5.202   8.961
13380WAT     H240383   2.325   5.139   8.910
13381WAT      O40384   5.565   7.279   1.581
13381WAT     H140385   5.648   7.333   1.569
13381WAT     H240386   5.542   7.274   1.678
13382WAT      O40387   3.517   0.346   2.064
13382WAT     H140388   3.441   0.387   2.113
13382WAT     H240389   3.568   0.286   2.125
13383WAT      O40390   8.218   8.666   6.838
13383WAT     H140391   8.166   8.644   6.756
13383WAT     H240392   8.290   8.731   6.816
13384WAT      O40393   6.437   7.670   2.977
13384WAT     H140394   6.388   7.597   3.025
13384WAT     H240395   6.497   7.718   3.041
13385WAT      O40396   1.864   9.196   8.364
13385WAT     H140397   1.772   9.173   8.397
13385WAT     H240398   1.932   9.153   8.423
13386WAT      O40399   9.827   5.229   6.796
13386WAT     H140400   9.776   5.152   6.834
13386WAT     H240401   9.848   5.211   6.700
13387WAT      O40402   2.286   6.200   4.424
13387WAT     H140403   2.374   6.245   4.410
13387WAT     H240404   2.227   6.214   4.345
13388WAT      O40405   1.962   2.624   9.191
13388WAT     H140406   1.879   2.595   9.239
13388WAT     H240407   2.041   2.580   9.233
13389WAT      O40408   2.174   5.711   0.940
13389WAT     H140409   2.176   5.756   1.029
13389WAT     H240410   2.180   5.779   0.867
13390WAT      O40411   1.991   9.743   1.669
13390WAT     H140412   1.917   9.766   1.607
13390WAT     H240413   1.979   9.649   1.701
13391WAT      O40414   0.057   2.407   6.261
13391WAT     H140415   0.079   2.330   6.320
13391WAT     H240416  -0.043   2.412   6.249
13392WAT      O40417   4.636   2.141   0.955
13392WAT     H140418   4.732   2.171   0.950
13392WAT     H240419   4.577   2.221   0.962
13393WAT      O40420   6.488   1.798   8.857
13393WAT     H140421   6.463   1.797   8.954
13393WAT     H240422   6.418   1.847   8.805
13394WAT      O40423   9.332   8.933   1.277
13394WAT     H140424   9.342   8.869   1.201
13394WAT     H240425   9.420   8.945   1.323
13395WAT      O40426   8.772   4.860   0.039
13395WAT     H140427   8.829   4.782   0.065
13395WAT     H240428   8.826   4.924  -0.016
13396WAT      O40429   4.222   5.404   9.020
13396WAT     H140430   4.261   5.494   9.001
13396WAT     H240431   4.122   5.410   9.015
13397WAT      O40432   7.302   0.623   6.167
13397WAT     H140433   7.320   0.722   6.166
13397WAT     H240434   7.239   0.600   6.094
13398WAT      O40435   9.371   2.321   1.407
13398WAT     H140436   9.418   2.276   1.483
13398WAT     H240437   9.281   2.352   1.438
13399WAT      O40438   2.476   9.682   1.246
13399WAT     H140439   2.476   9.740   1.327
13399WAT     H240440   2.526   9.597   1.266
13400WAT      O40441   0.528   9.237   5.802
13400WAT     H140442   0.542   9.154   5.748
13400WAT     H240443   0.492   9.212   5.892
13401WAT      O40444   7.153   8.073   1.854
13401WAT     H140445   7.080   8.140   1.863
13401WAT     H240446   7.158   8.018   1.938
13402WAT      O40447   2.686   2.864   1.584
13402WAT     H140448   2.712   2.811   1.503
13402WAT     H240449   2.738   2.832   1.663
13403WAT      O40450   4.508   3.518   7.153
13403WAT     H140451   4.410   3.512   7.136
13403WAT     H240452   4.547   3.425   7.153
13404WAT      O40453   4.457   8.460   8.138
13404WAT     H140454   4.396   8.536   8.114
13404WAT     H240455   4.542   8.468   8.087
13405WAT      O40456   8.197   5.647   3.177
13405WAT     H140457   8.192   5.581   3.252
13405WAT     H240458   8.271   5.712   3.193
13406WAT      O40459   0.374   1.361   9.534
13406WAT     H140460   0.378   1.411   9.447
13406WAT     H240461   0.463   1.364   9.578
13407WAT      O40462   2.817   3.939   6.195
13407WAT     H140463   2.837   4.033   6.223
13407WAT     H240464   2.830   3.930   6.097
13408WAT      O40465   1.406   0.264   3.056
13408WAT     H140466   1.455   0.196   3.109
13408WAT     H240467   1.446   0.354   3.073
13409WAT      O40468   5.627   1.870   0.528
13409WAT     H140469   5.545   1.818   0.505
13409WAT     H240470   5.682   1.818   0.593
13410WAT      O40471   4.255   7.235   9.514
13410WAT     H140472   4.277   7.206   9.608
13410WAT     H240473   4.228   7.331   9.515
13411WAT      O40474   1.280   7.666   6.087
13411WAT     H140475   1.337   7.634   6.163
13411WAT     H240476   1.338   7.690   6.009
13412WAT      O40477   2.044   1.448   1.899
13412WAT     H140478   2.046   1.544   1.926
13412WAT     H240479   2.029   1.442   1.801
13413WAT      O40480   3.884   2.069   2.174
13413WAT     H140481   3.907   2.036   2.266
13413WAT     H240482   3.967   2.072   2.118
13414WAT      O40483   5.879   5.530   9.074
13414WAT     H140484   5.893   5.432   9.063
13414WAT     H240485   5.781   5.549   9.085
13415WAT      O40486   2.585   9.592   0.969
13415WAT     H140487   2.581   9.636   1.059
13415WAT     H240488   2.652   9.517   0.973
13416WAT      O40489   9.893   1.444   3.087
13416WAT     H140490   9.805   1.491   3.089
13416WAT     H240491   9.888   1.359   3.138
13417WAT      O40492   5.213   0.765   0.812
13417WAT     H140493   5.133   0.744   0.757
13417WAT     H240494   5.189   0.765   0.909
13418WAT      O40495   3.278   8.352   8.675
13418WAT     H140496   3.276   8.361   8.575
13418WAT     H240497   3.185   8.362   8.711
13419WAT      O40498   2.975   8.269   3.725
13419WAT     H140499   2.926   8.290   3.641
13419WAT     H240500   3.069   8.303   3.720
13420WAT      O40501   5.442   6.617   9.165
13420WAT     H140502   5.347   6.590   9.153
13420WAT     H240503   5.486   6.627   9.076
13421WAT      O40504   8.458   0.657   5.576
13421WAT     H140505   8.487   0.686   5.485
13421WAT     H240506   8.439   0.738   5.633
13422WAT      O40507   2.983   2.388   5.002
13422WAT     H140508   2.906   2.337   4.962
13422WAT     H240509   2.996   2.474   4.951
13423WAT      O40510   3.088   5.202   5.906
13423WAT     H140511   3.122   5.196   6.000
13423WAT     H240512   3.165   5.217   5.844
13424WAT      O40513   0.030   7.648   0.503
13424WAT     H140514  -0.000   7.593   0.425
13424WAT     H240515   0.110   7.701   0.478
13425WAT      O40516   5.959   1.645   2.350
13425WAT     H140517   6.028   1.579   2.378
13425WAT     H240518   5.895   1.661   2.426
13426WAT      O40519   6.270   8.536   7.352
13426WAT     H140520   6.189   8.590   7.332
13426WAT     H240521   6.285   8.469   7.279
13427WAT      O40522   4.834   3.121   6.985
13427WAT     H140523   4.840   3.206   7.038
13427WAT     H240524   4.879   3.047   7.035
13428WAT      O40525   9.106   9.088   9.259
13428WAT     H140526   9.124   9.185   9.244
13428WAT     H240527   9.033   9.058   9.197
13429WAT      O40528   3.505   0.140   0.777
13429WAT     H140529   3.540   0.231   0.754
13429WAT     H240530   3.499   0.130   0.876
13430WAT      O40531   1.511   3.444   2.785
13430WAT     H140532   1.476   3.450   2.878
13430WAT     H240533   1.568   3.523   2.765
13431WAT      O40534   4.504   1.619   8.028
13431WAT     H140535   4.505   1.710   7.987
13431WAT     H240536   4.570   1.615   8.103
13432WAT      O40537   7.670   9.396   2.930
13432WAT     H140538   7.625   9.344   3.002
13432WAT     H240539   7.762   9.358   2.914
13433WAT      O40540   5.043   7.103   2.039
13433WAT     H140541   5.062   7.044   1.960
13433WAT     H240542   4.990   7.182   2.009
13434WAT      O40543   0.676   9.782   8.439
13434WAT     H140544   0.717   9.756   8.527
13434WAT     H240545   0.742   9.769   8.366
13435WAT      O40546   8.971   5.254   5.907
13435WAT     H140547   9.034   5.329   5.925
13435WAT     H240548   8.972   5.190   5.984
13436WAT      O40549   3.926   3.439   7.959
13436WAT     H140550   3.902   3.534   7.940
13436WAT     H240551   3.969   3.434   8.049
13437WAT      O40552   8.394   6.795   3.219
13437WAT     H140553   8.418   6.891   3.229
13437WAT     H240554   8.458   6.750   3.157
13438WAT      O40555   4.547   2.773   4.821
13438WAT     H140556   4.485   2.818   4.885
13438WAT     H240557   4.501   2.695   4.779
13439WAT      O40558   6.334   1.723   6.049
13439WAT     H140559   6.257   1.664   6.073
13439WAT     H240560   6.384   1.682   5.972
13440WAT      O40561   9.681   7.973   5.847
13440WAT     H140562   9.685   8.018   5.758
13440WAT     H240563   9.588   7.940   5.864
13441WAT      O40564   1.409   8.633   4.931
13441WAT     H140565   1.456   8.583   4.858
13441WAT     H240566   1.358   8.568   4.988
13442WAT      O40567   9.119   2.345   9.435
13442WAT     H140568   9.023   2.351   9.465
13442WAT     H240569   9.166   2.429   9.461
13443WAT      O40570   6.016   0.144   2.922
13443WAT     H140571   5.970   0.093   2.995
13443WAT     H240572   5.960   0.224   2.897
13444WAT      O40573   8.411   5.416   3.339
13444WAT     H140574   8.346   5.393   3.267
13444WAT     H240575   8.442   5.510   3.328
13445WAT      O40576   0.761   1.381   8.473
13445WAT     H140577   0.792   1.386   8.378
13445WAT     H240578   0.834   1.343   8.530
13446WAT      O40579   2.467   5.928   9.437
13446WAT     H140580   2.492   5.831   9.441
13446WAT     H240581   2.393   5.941   9.371
13447WAT      O40582   7.310   4.989   2.868
13447WAT     H140583   7.226   4.971   2.919
13447WAT     H240584   7.315   5.086   2.844
13448WAT      O40585   8.787   0.315   4.904
13448WAT     H140586   8.689   0.294   4.905
13448WAT     H240587   8.811   0.364   4.987
13449WAT      O40588   4.172   6.280   9.589
13449WAT     H140589   4.227   6.360   9.564
13449WAT     H240590   4.141   6.289   9.684
13450WAT      O40591   5.931   8.715   0.729
13450WAT     H140592   5.862   8.656   0.771
13450WAT     H240593   5.887   8.771   0.658
13451WAT      O40594   5.249   3.813   9.582
13451WAT     H140595   5.195   3.873   9.641
13451WAT     H240596   5.216   3.718   9.592
13452WAT      O40597   7.085   8.846   9.880
13452WAT     H140598   7.064   8.943   9.887
13452WAT     H240599   7.034   8.796   9.951
13453WAT      O40600   7.459   0.536   2.477
13453WAT     H140601   7.505   0.621   2.452
13453WAT     H240602   7.528   0.466   2.497
13454WAT      O40603   0.817   5.613   0.067
13454WAT     H140604   0.771   5.538   0.115
13454WAT     H240605   0.911   5.587   0.047
13455WAT      O40606   0.825   6.301   7.817
13455WAT     H140607   0.736   6.293   7.862
13455WAT     H240608   0.817   6.362   7.738
13456WAT      O40609   8.363   8.448   0.235
13456WAT     H140610   8.288   8.502   0.195
13456WAT     H240611   8.400   8.386   0.167
13457WAT      O40612   1.040   2.056   3.971
13457WAT     H140613   0.991   2.112   4.037
13457WAT     H240614   1.000   2.069   3.880
13458WAT      O40615   4.145   6.762   7.718
13458WAT     H140616   4.107   6.670   7.710
13458WAT     H240617   4.182   6.775   7.810
13459WAT      O40618   8.380   3.553   2.128
13459WAT     H140619   8.398   3.651   2.120
13459WAT     H240620   8.329   3.521   2.049
13460WAT      O40621   8.342   0.726   1.040
13460WAT     H140622   8.250   0.726   1.000
13460WAT     H240623   8.397   0.798   0.997
13461WAT      O40624   8.258   4.221   4.452
13461WAT     H140625   8.314   4.141   4.432
13461WAT     H240626   8.213   4.252   4.369
13462WAT      O40627   2.573   9.351   3.910
13462WAT     H140628   2.514   9.420   3.869
13462WAT     H240629   2.628   9.393   3.983
13463WAT      O40630   4.442   9.762   1.681
13463WAT     H140631   4.501   9.682   1.689
13463WAT     H240632   4.346   9.733   1.677
13464WAT      O40633   8.390   6.311   4.130
13464WAT     H140634   8.404   6.401   4.089
13464WAT     H240635   8.326   6.319   4.206
13465WAT      O40636   4.187   2.671   1.649
13465WAT     H140637   4.176   2.771   1.645
13465WAT     H240638   4.279   2.647   1.621
13466WAT      O40639   6.973   3.136   9.300
13466WAT     H140640   6.999   3.233   9.294
13466WAT     H240641   7.051   3.083   9.332
13467WAT      O40642   3.659   2.263   5.642
13467WAT     H140643   3.705   2.347   5.674
13467WAT     H240644   3.712   2.184   5.671
13468WAT      O40645   0.004   9.075   8.974
13468WAT     H140646   0.096   9.049   8.944
13468WAT     H240647  -0.064   9.030   8.916
13469WAT      O40648   5.585   8.977   3.661
13469WAT     H140649   5.578   8.958   3.563
13469WAT     H240650   5.534   8.909   3.712
13470WAT      O40651   1.343   8.811   9.781
13470WAT     H140652   1.389   8.858   9.706
13470WAT     H240653   1.254   8.777   9.749
13471WAT      O40654   3.594   8.363   7.401
13471WAT     H140655   3.667   8.298   7.419
13471WAT     H240656   3.539   8.375   7.484
13472WAT      O40657   6.390   9.689   5.918
13472WAT     H140658   6.331   9.770   5.914
13472WAT     H240659   6.485   9.716   5.905
13473WAT      O40660   8.278   9.728   0.032
13473WAT     H140661   8.221   9.710  -0.047
13473WAT     H240662   8.322   9.643   0.063
13474WAT      O40663   4.924   4.925   7.272
13474WAT     H140664   4.874   4.984   7.335
13474WAT     H240665   4.897   4.946   7.178
13475WAT      O40666   3.598   4.152   7.542
13475WAT     H140667   3.672   4.109   7.592
13475WAT     H240668   3.556   4.086   7.480
13476WAT      O40669   6.879   1.159   2.603
13476WAT     H140670   6.877   1.240   2.544
13476WAT     H240671   6.867   1.077   2.547
13477WAT      O40672   7.801   1.782   0.716
13477WAT     H140673   7.818   1.811   0.810
13477WAT     H240674   7.777   1.861   0.660
13478WAT      O40675   8.352   9.498   4.984
13478WAT     H140676   8.309   9.572   5.035
13478WAT     H240677   8.444   9.481   5.021
13479WAT      O40678   2.114   1.901   7.431
13479WAT     H140679   2.168   1.957   7.369
13479WAT     H240680   2.169   1.875   7.510
13480WAT      O40681   0.834   2.379   9.825
13480WAT     H140682   0.881   2.409   9.908
13480WAT     H240683   0.786   2.457   9.785
13481WAT      O40684   2.990   5.928   7.820
13481WAT     H140685   2.939   5.949   7.737
13481WAT     H240686   2.979   6.002   7.886
13482WAT      O40687   4.673   7.729   9.613
13482WAT     H140688   4.696   7.824   9.635
13482WAT     H240689   4.744   7.669   9.648
13483WAT      O40690   8.883   6.043   4.704
13483WAT     H140691   8.935   5.977   4.758
13483WAT     H240692   8.917   6.135   4.721
13484WAT      O40693   9.540   1.792   6.752
13484WAT     H140694   9.602   1.778   6.829
13484WAT     H240695   9.524   1.704   6.707
13485WAT      O40696   3.807   0.426   6.639
13485WAT     H140697   3.810   0.491   6.715
13485WAT     H240698   3.712   0.398   6.623
13486WAT      O40699   0.078   8.015   2.913
13486WAT     H140700   0.085   8.103   2.959
13486WAT     H240701   0.112   8.023   2.819
13487WAT      O40702   1.999   7.251   5.538
13487WAT     H140703   2.035   7.158   5.543
13487WAT     H240704   2.073   7.314   5.516
13488WAT      O40705   7.156   2.232   4.416
13488WAT     H140706   7.164   2.274   4.325
13488WAT     H240707   7.132   2.136   4.406
13489WAT      O40708   6.002   7.297   6.458
13489WAT     H140709   5.930   7.233   6.433
13489WAT     H240710   6.056   7.320   6.377
13490WAT      O40711   3.036   6.915   9.645
13490WAT     H140712   3.057   7.001   9.691
13490WAT     H240713   2.989   6.933   9.559
13491WAT      O40714   4.040   5.417   7.523
13491WAT     H140715   4.102   5.340   7.538
13491WAT     H240716   3.970   5.391   7.457
13492WAT      O40717   4.683   1.684   8.271
13492WAT     H140718   4.616   1.758   8.268
13492WAT     H240719   4.736   1.691   8.356
13493WAT      O40720   8.491   0.691   7.952
13493WAT     H140721   8.528   0.740   8.031
13493WAT     H240722   8.511   0.593   7.962
13494WAT      O40723   5.561   9.610   2.257
13494WAT     H140724   5.527   9.546   2.326
13494WAT     H240725   5.487   9.671   2.230
13495WAT      O40726   4.760   1.134   4.841
13495WAT     H140727   4.671   1.100   4.869
13495WAT     H240728   4.818   1.146   4.922
13496WAT      O40729   3.977   6.036   5.249
13496WAT     H140730   3.914   5.962   5.226
13496WAT     H240731   3.931   6.101   5.310
13497WAT      O40732   4.271   8.399   8.905
13497WAT     H140733   4.216   8.376   8.985
13497WAT     H240734   4.368   8.390   8.927
13498WAT      O40735   3.854   6.561   6.454
13498WAT     H140736   3.944   6.523   6.473
13498WAT     H240737   3.792   6.538   6.528
13499WAT      O40738   3.565   0.892   6.977
13499WAT     H140739   3.663   0.883   6.994
13499WAT     H240740   3.547   0.976   6.926
13500WAT      O40741   4.852   0.917   0.757
13500WAT     H140742   4.861   0.821   0.782
13500WAT     H240743   4.755   0.941   0.751
13501WAT      O40744   2.082   3.315   5.445
13501WAT     H140745   2.034   3.293   5.360
13501WAT     H240746   2.137   3.397   5.432
13502WAT      O40747   9.727   7.307   9.482
13502WAT     H140748   9.774   7.280   9.397
13502WAT     H240749   9.788   7.366   9.535
13503WAT      O40750   1.134   8.442   0.630
13503WAT     H140751   1.079   8.367   0.594
13503WAT     H240752   1.227   8.409   0.648
13504WAT      O40753   4.340   6.631   5.780
13504WAT     H140754   4.341   6.533   5.759
13504WAT     H240755   4.303   6.682   5.703
13505WAT      O40756   5.769   7.594   3.875
13505WAT     H140757   5.729   7.575   3.786
13505WAT     H240758   5.777   7.509   3.927
13506WAT      O40759   5.950   0.192   3.233
13506WAT     H140760   5.874   0.257   3.230
13506WAT     H240761   5.981   0.180   3.327
13507WAT      O40762   1.264   6.438   1.311
13507WAT     H140763   1.184   6.383   1.335
13507WAT     H240764   1.341   6.378   1.287
13508WAT      O40765   6.383   9.623   3.002
13508WAT     H140766   6.426   9.584   3.083
13508WAT     H240767   6.439   9.603   2.922
13509WAT      O40768   6.859   5.384   0.782
13509WAT     H140769   6.947   5.419   0.750
13509WAT     H240770   6.798   5.373   0.704
13510WAT      O40771   0.089   6.370   6.788
13510WAT     H140772   0.125   6.419   6.866
13510WAT     H240773   0.060   6.278   6.816
13511WAT      O40774   3.965   3.481   4.082
13511WAT     H140775   3.988   3.527   3.996
13511WAT     H240776   4.014   3.394   4.087
13512WAT      O40777   7.375   0.612   2.748
13512WAT     H140778   7.411   0.604   2.655
13512WAT     H240779   7.281   0.644   2.745
13513WAT      O40780   3.779   5.914   9.217
13513WAT     H140781   3.777   5.912   9.117
13513WAT     H240782   3.685   5.912   9.252
13514WAT      O40783   6.167   3.940   0.215
13514WAT     H140784   6.186   3.932   0.313
13514WAT     H240785   6.252   3.930   0.164
13515WAT      O40786   9.147   1.483   9.611
13515WAT     H140787   9.053   1.468   9.642
13515WAT     H240788   9.186   1.561   9.659
13516WAT      O40789   3.588   4.438   0.376
13516WAT     H140790   3.566   4.384   0.457
13516WAT     H240791   3.576   4.535   0.396
13517WAT      O40792   9.059   5.590   3.170
13517WAT     H140793   9.039   5.526   3.097
13517WAT     H240794   9.158   5.603   3.178
13518WAT      O40795   2.264   9.704   3.701
13518WAT     H140796   2.265   9.755   3.615
13518WAT     H240797   2.356   9.670   3.720
13519WAT      O40798   6.734   1.807   1.633
13519WAT     H140799   6.822   1.791   1.588
13519WAT     H240800   6.703   1.900   1.614
13520WAT      O40801   1.441   6.371   3.557
13520WAT     H140802   1.493   6.352   3.640
13520WAT     H240803   1.400   6.462   3.563
13521WAT      O40804   1.873   0.231   9.214
13521WAT     H140805   1.923   0.222   9.127
13521WAT     H240806   1.780   0.261   9.195
13522WAT      O40807   0.547   7.386   6.640
13522WAT     H140808   0.499   7.422   6.720
13522WAT     H240809   0.482   7.344   6.577
13523WAT      O40810   6.134   9.498   4.505
13523WAT     H140811   6.196   9.440   4.559
13523WAT     H240812   6.066   9.539   4.566
13524WAT      O40813   0.128   1.274   1.656
13524WAT     H140814   0.099   1.276   1.561
13524WAT     H240815   0.085   1.349   1.707
13525WAT      O40816   8.548   1.773   2.723
13525WAT     H140817   8.514   1.846   2.663
13525WAT     H240818   8.648   1.772   2.721
13526WAT      O40819   5.255   2.811   5.022
13526WAT     H140820   5.333   2.777   4.969
13526WAT     H240821   5.235   2.905   4.994
13527WAT      O40822   4.765   5.702   8.437
13527WAT     H140823   4.694   5.724   8.371
13527WAT     H240824   4.788   5.605   8.431
13528WAT      O40825   0.984   7.126   6.458
13528WAT     H140826   0.971   7.177   6.373
13528WAT     H240827   0.896   7.117   6.505
13529WAT      O40828   3.345   7.107   0.207
13529WAT     H140829   3.349   7.204   0.182
13529WAT     H240830   3.351   7.097   0.306
13530WAT      O40831   3.939   6.901   0.698
13530WAT     H140832   3.900   6.811   0.720
13530WAT     H240833   4.017   6.918   0.758
13531WAT      O40834   5.450   1.756   8.367
13531WAT     H140835   5.423   1.672   8.320
13531WAT     H240836   5.547   1.752   8.389
13532WAT      O40837   8.751   1.438   4.186
13532WAT     H140838   8.684   1.374   4.224
13532WAT     H240839   8.794   1.398   4.105
13533WAT      O40840   9.826   5.781   9.821
13533WAT     H140841   9.740   5.819   9.787
13533WAT     H240842   9.891   5.772   9.746
13534WAT      O40843   4.094   9.769   5.145
13534WAT     H140844   4.132   9.793   5.055
13534WAT     H240845   4.165   9.775   5.214
13535WAT      O40846   1.552   4.633   8.576
13535WAT     H140847   1.574   4.592   8.664
13535WAT     H240848   1.528   4.561   8.511
13536WAT      O40849   0.953   3.634   6.983
13536WAT     H140850   0.890   3.639   6.906
13536WAT     H240851   0.902   3.621   7.068
13537WAT      O40852   8.155   6.374   9.369
13537WAT     H140853   8.223   6.404   9.436
13537WAT     H240854   8.066   6.415   9.391
13538WAT      O40855   4.383   7.461   9.849
13538WAT     H140856   4.290   7.488   9.874
13538WAT     H240857   4.415   7.517   9.773
13539WAT      O40858   1.228   5.485   1.795
13539WAT     H140859   1.243   5.389   1.816
13539WAT     H240860   1.173   5.493   1.711
13540WAT      O40861   3.898   4.906   0.983
13540WAT     H140862   3.869   4.962   1.061
13540WAT     H240863   3.820   4.852   0.950
13541WAT      O40864   1.738   8.387   0.333
13541WAT     H140865   1.741   8.288   0.324
13541WAT     H240866   1.798   8.416   0.407
13542WAT      O40867   4.564   8.779   3.336
13542WAT     H140868   4.604   8.849   3.278
13542WAT     H240869   4.473   8.808   3.366
13543WAT      O40870   0.953   5.377   3.364
13543WAT     H140871   0.954   5.459   3.307
13543WAT     H240872   1.035   5.374   3.420
13544WAT      O40873   8.581   8.984   9.653
13544WAT     H140874   8.592   8.904   9.712
13544WAT     H240875   8.601   8.958   9.558
13545WAT      O40876   9.012   6.887   1.366
13545WAT     H140877   9.086   6.834   1.325
13545WAT     H240878   9.050   6.961   1.422
13546WAT      O40879   1.627   0.113   3.145
13546WAT     H140880   1.609   0.035   3.085
13546WAT     H240881   1.598   0.091   3.238
13547WAT      O40882   8.729   4.478   8.224
13547WAT     H140883   8.790   4.549   8.190
13547WAT     H240884   8.777   4.390   8.225
13548WAT      O40885   4.645   6.101   4.349
13548WAT     H140886   4.550   6.117   4.378
13548WAT     H240887   4.704   6.098   4.429
13549WAT      O40888   3.279   7.302   3.875
13549WAT     H140889   3.212   7.370   3.904
13549WAT     H240890   3.288   7.231   3.946
13550WAT      O40891   5.224   3.188   6.024
13550WAT     H140892   5.155   3.259   6.036
13550WAT     H240893   5.292   3.218   5.957
13551WAT      O40894   6.338   5.432   3.724
13551WAT     H140895   6.272   5.459   3.794
13551WAT     H240896   6.300   5.454   3.634
13552WAT      O40897   3.030   9.009   3.978
13552WAT     H140898   3.020   9.059   4.064
13552WAT     H240899   3.108   9.046   3.928
13553WAT      O40900   6.235   6.465   9.812
13553WAT     H140901   6.201   6.497   9.900
13553WAT     H240902   6.288   6.537   9.767
13554WAT      O40903   0.245   4.443   4.423
13554WAT     H140904   0.292   4.459   4.510
13554WAT     H240905   0.252   4.346   4.399
13555WAT      O40906   6.457   2.914   7.082
13555WAT     H140907   6.547   2.957   7.088
13555WAT     H240908   6.445   2.873   6.992
13556WAT      O40909   3.204   4.625   4.505
13556WAT     H140910   3.172   4.719   4.500
13556WAT     H240911   3.134   4.564   4.468
13557WAT      O40912   7.301   1.208   5.900
13557WAT     H140913   7.388   1.230   5.942
13557WAT     H240914   7.314   1.137   5.830
13558WAT      O40915   2.428   3.748   8.080
13558WAT     H140916   2.349   3.809   8.086
13558WAT     H240917   2.438   3.716   7.986
13559WAT      O40918   9.006   6.445   3.334
13559WAT     H140919   9.010   6.405   3.243
13559WAT     H240920   9.058   6.388   3.398
13560WAT      O40921   3.012   8.508   3.358
13560WAT     H140922   2.942   8.455   3.311
13560WAT     H240923   3.092   8.451   3.374
13561WAT      O40924   6.019   6.580   4.752
13561WAT     H140925   6.091   6.591   4.684
13561WAT     H240926   5.989   6.670   4.784
13562WAT      O40927   0.629   9.190   8.271
13562WAT     H140928   0.553   9.126   8.283
13562WAT     H240929   0.593   9.279   8.243
13563WAT      O40930   6.765   4.208   6.418
13563WAT     H140931   6.742   4.149   6.340
13563WAT     H240932   6.803   4.152   6.491
13564WAT      O40933   3.851   5.165   6.853
13564WAT     H140934   3.872   5.069   6.870
13564WAT     H240935   3.892   5.222   6.924
13565WAT      O40936   9.180   7.128   3.715
13565WAT     H140937   9.263   7.184   3.705
13565WAT     H240938   9.198   7.053   3.779
13566WAT      O40939   3.824   5.345   7.355
13566WAT     H140940   3.804   5.439   7.329
13566WAT     H240941   3.772   5.321   7.437
13567WAT      O40942   7.534   4.552   3.812
13567WAT     H140943   7.493   4.596   3.732
13567WAT     H240944   7.631   4.533   3.793
13568WAT      O40945   5.915   2.776   7.327
13568WAT     H140946   5.995   2.716   7.324
13568WAT     H240947   5.896   2.811   7.235
13569WAT      O40948   4.629   1.030   4.060
13569WAT     H140949   4.586   0.994   4.143
13569WAT     H240950   4.712   0.978   4.041
13570WAT      O40951   2.048   8.513   8.614
13570WAT     H140952   1.997   8.487   8.532
13570WAT     H240953   1.997   8.583   8.664
13571WAT      O40954   8.211   4.813   6.357
13571WAT     H140955   8.119   4.809   6.319
13571WAT     H240956   8.244   4.720   6.375
13572WAT      O40957   1.946   1.482   3.192
13572WAT     H140958   1.955   1.576   3.224
13572WAT     H240959   2.019   1.461   3.128
13573WAT      O40960   2.721   8.004   9.826
13573WAT     H140961   2.700   7.995   9.729
13573WAT     H240962   2.767   7.922   9.859
13574WAT      O40963   8.930   4.319   0.585
13574WAT     H140964   8.877   4.300   0.503
13574WAT     H240965   8.977   4.407   0.575
13575WAT      O40966   1.884   7.438   0.108
13575WAT     H140967   1.948   7.439   0.185
13575WAT     H240968   1.846   7.346   0.097
13576WAT      O40969   0.532   3.806   5.238
13576WAT     H140970   0.565   3.787   5.146
13576WAT     H240971   0.434   3.828   5.235
13577WAT      O40972   5.110   0.567   5.809
13577WAT     H140973   5.014   0.543   5.795
13577WAT     H240974   5.117   0.651   5.863
13578WAT      O40975   3.108   6.822   2.032
13578WAT     H140976   3.079   6.726   2.028
13578WAT     H240977   3.179   6.832   2.102
13579WAT      O40978   0.665   7.177   5.575
13579WAT     H140979   0.603   7.244   5.616
13579WAT     H240980   0.689   7.206   5.483
13580WAT      O40981   9.459   8.191   1.066
13580WAT     H140982   9.471   8.125   0.992
13580WAT     H240983   9.377   8.246   1.049
13581WAT      O40984   9.357   7.806   4.463
13581WAT     H140985   9.439   7.857   4.436
13581WAT     H240986   9.348   7.810   4.562
13582WAT      O40987   6.317   8.525   8.012
13582WAT     H140988   6.252   8.466   7.963
13582WAT     H240989   6.300   8.620   7.988
13583WAT      O40990   9.272   6.522   0.978
13583WAT     H140991   9.257   6.554   0.884
13583WAT     H240992   9.192   6.472   1.009
13584WAT      O40993   2.669   5.472   4.091
13584WAT     H140994   2.720   5.528   4.027
13584WAT     H240995   2.611   5.530   4.148
13585WAT      O40996   4.934   1.651   9.422
13585WAT     H140997   4.846   1.635   9.377
13585WAT     H240998   5.007   1.613   9.366
13586WAT      O40999   7.736   7.210   5.603
13586WAT     H141000   7.823   7.163   5.622
13586WAT     H241001   7.727   7.225   5.505
13587WAT      O41002   8.316   3.884   5.341
13587WAT     H141003   8.224   3.916   5.366
13587WAT     H241004   8.308   3.801   5.286
13588WAT      O41005   9.890   8.745   6.141
13588WAT     H141006   9.822   8.691   6.190
13588WAT     H241007   9.926   8.691   6.064
13589WAT      O41008   3.628   2.123   7.827
13589WAT     H141009   3.710   2.093   7.779
13589WAT     H241010   3.549   2.114   7.766
13590WAT      O41011   8.133   1.204   1.025
13590WAT     H141012   8.078   1.247   1.097
13590WAT     H241013   8.189   1.274   0.981
13591WAT      O41014   1.152   2.204   8.845
13591WAT     H141015   1.121   2.281   8.788
13591WAT     H241016   1.218   2.149   8.793
13592WAT      O41017   2.215   2.223   4.175
13592WAT     H141018   2.191   2.283   4.252
13592WAT     H241019   2.245   2.279   4.098
13593WAT      O41020   1.890   6.426   0.402
13593WAT     H141021   1.962   6.424   0.472
13593WAT     H241022   1.815   6.367   0.429
13594WAT      O41023   6.366   0.342   2.179
13594WAT     H141024   6.432   0.291   2.125
13594WAT     H241025   6.298   0.279   2.218
13595WAT      O41026   5.807   9.650   0.985
13595WAT     H141027   5.826   9.585   1.059
13595WAT     H241028   5.708   9.661   0.976
13596WAT      O41029   5.698   2.459   2.384
13596WAT     H141030   5.735   2.444   2.293
13596WAT     H241031   5.756   2.415   2.452
13597WAT      O41032   7.653   7.559   1.085
13597WAT     H141033   7.601   7.629   1.037
13597WAT     H241034   7.603   7.472   1.082
13598WAT      O41035   1.164   4.887   1.527
13598WAT     H141036   1.173   4.851   1.434
13598WAT     H241037   1.088   4.842   1.573
13599WAT      O41038   3.457   5.472   9.729
13599WAT     H141039   3.427   5.376   9.732
13599WAT     H241040   3.529   5.485   9.797
13600WAT      O41041   2.182   4.883   5.721
13600WAT     H141042   2.261   4.822   5.733
13600WAT     H241043   2.183   4.954   5.791
13601WAT      O41044   0.327   6.457   6.000
13601WAT     H141045   0.243   6.447   6.053
13601WAT     H241046   0.336   6.379   5.937
13602WAT      O41047   5.576   0.023   6.510
13602WAT     H141048   5.570   0.123   6.503
13602WAT     H241049   5.588  -0.002   6.606
13603WAT      O41050   2.594   5.064   3.729
13603WAT     H141051   2.666   5.002   3.697
13603WAT     H241052   2.504   5.025   3.707
13604WAT      O41053   9.502   3.330   3.949
13604WAT     H141054   9.404   3.328   3.967
13604WAT     H241055   9.517   3.339   3.850
13605WAT      O41056   7.211   8.938   9.661
13605WAT     H141057   7.167   8.892   9.737
13605WAT     H241058   7.250   9.025   9.693
13606WAT      O41059   6.768   3.816   5.738
13606WAT     H141060   6.814   3.729   5.719
13606WAT     H241061   6.684   3.822   5.685
13607WAT      O41062   5.511   6.570   8.874
13607WAT     H141063   5.431   6.613   8.832
13607WAT     H241064   5.594   6.601   8.828
13608WAT      O41065   9.539   3.194   9.063
13608WAT     H141066   9.585   3.117   9.107
13608WAT     H241067   9.442   3.192   9.087
13609WAT      O41068   4.673   0.125   5.801
13609WAT     H141069   4.730   0.208   5.798
13609WAT     H241070   4.589   0.140   5.750
13610WAT      O41071   5.105   2.761   2.277
13610WAT     H141072   5.080   2.857   2.268
13610WAT     H241073   5.100   2.735   2.374
13611WAT      O41074   5.295   1.557   2.698
13611WAT     H141075   5.206   1.534   2.738
13611WAT     H241076   5.290   1.646   2.654
13612WAT      O41077   1.429   0.922   9.714
13612WAT     H141078   1.418   1.017   9.744
13612WAT     H241079   1.403   0.915   9.618
13613WAT      O41080   4.072   4.528   4.726
13613WAT     H141081   4.061   4.565   4.634
13613WAT     H241082   3.995   4.557   4.783
13614WAT      O41083   3.917   2.238   4.395
13614WAT     H141084   3.818   2.245   4.387
13614WAT     H241085   3.948   2.289   4.475
13615WAT      O41086   0.753   1.821   1.666
13615WAT     H141087   0.765   1.745   1.602
13615WAT     H241088   0.826   1.818   1.734
13616WAT      O41089   2.250   6.476   0.769
13616WAT     H141090   2.282   6.568   0.746
13616WAT     H241091   2.267   6.458   0.866
13617WAT      O41092   1.156   3.523   8.833
13617WAT     H141093   1.239   3.509   8.888
13617WAT     H241094   1.145   3.448   8.769
13618WAT      O41095   5.216   0.403   7.089
13618WAT     H141096   5.136   0.456   7.059
13618WAT     H241097   5.186   0.326   7.144
13619WAT      O41098   8.752   4.050   8.355
13619WAT     H141099   8.826   3.984   8.367
13619WAT     H241100   8.667   4.003   8.334
13620WAT      O41101   1.271   6.875   2.766
13620WAT     H141102   1.267   6.892   2.864
13620WAT     H241103   1.365   6.852   2.740
13621WAT      O41104   7.150   8.654   5.465
13621WAT     H141105   7.067   8.612   5.500
13621WAT     H241106   7.230   8.606   5.502
13622WAT      O41107   6.557   5.339   2.377
13622WAT     H141108   6.579   5.304   2.286
13622WAT     H241109   6.497   5.275   2.425
13623WAT      O41110   4.941   4.259   9.323
13623WAT     H141111   4.899   4.297   9.405
13623WAT     H241112   4.926   4.160   9.321
13624WAT      O41113   1.920   6.584   0.186
13624WAT     H141114   1.916   6.548   0.280
13624WAT     H241115   1.884   6.515   0.123
13625WAT      O41116   4.815   0.848   0.232
13625WAT     H141117   4.769   0.898   0.305
13625WAT     H241118   4.764   0.858   0.147
13626WAT      O41119   0.498   1.593   5.726
13626WAT     H141120   0.562   1.591   5.649
13626WAT     H241121   0.548   1.618   5.809
13627WAT      O41122   1.553   5.806   4.508
13627WAT     H141123   1.502   5.737   4.457
13627WAT     H241124   1.640   5.824   4.463
13628WAT      O41125   0.648   0.467   9.583
13628WAT     H141126   0.742   0.498   9.566
13628WAT     H241127   0.622   0.488   9.677
13629WAT      O41128   7.569   4.868   6.707
13629WAT     H141129   7.584   4.869   6.806
13629WAT     H241130   7.641   4.815   6.663
13630WAT      O41131   1.682   4.707   0.828
13630WAT     H141132   1.647   4.615   0.851
13630WAT     H241133   1.609   4.774   0.844
13631WAT      O41134   2.529   1.249   9.802
13631WAT     H141135   2.587   1.194   9.742
13631WAT     H241136   2.457   1.292   9.748
13632WAT      O41137   6.754   5.142   6.282
13632WAT     H141138   6.750   5.052   6.237
13632WAT     H241139   6.661   5.180   6.286
13633WAT      O41140   6.502   9.445   8.939
13633WAT     H141141   6.512   9.379   8.864
13633WAT     H241142   6.551   9.529   8.917
13634WAT      O41143   0.401   5.326   3.802
13634WAT     H141144   0.392   5.325   3.702
13634WAT     H241145   0.453   5.406   3.830
13635WAT      O41146   5.481   2.375   6.881
13635WAT     H141147   5.434   2.419   6.957
13635WAT     H241148   5.504   2.443   6.812
13636WAT      O41149   7.204   6.779   8.935
13636WAT     H141150   7.177   6.765   8.840
13636WAT     H241151   7.277   6.846   8.939
13637WAT      O41152   3.842   1.620   4.071
13637WAT     H141153   3.850   1.682   3.993
13637WAT     H241154   3.856   1.672   4.155
13638WAT      O41155   0.420   6.285   6.821
13638WAT     H141156   0.459   6.192   6.819
13638WAT     H241157   0.341   6.289   6.760
13639WAT      O41158   6.013   5.170   1.317
13639WAT     H141159   6.084   5.112   1.277
13639WAT     H241160   5.980   5.234   1.247
13640WAT      O41161   7.469   8.697   5.322
13640WAT     H141162   7.435   8.665   5.411
13640WAT     H241163   7.566   8.674   5.313
13641WAT      O41164   6.676   1.538   7.684
13641WAT     H141165   6.632   1.579   7.605
13641WAT     H241166   6.744   1.471   7.655
13642WAT      O41167   7.861   7.655   4.749
13642WAT     H141168   7.813   7.652   4.661
13642WAT     H241169   7.958   7.668   4.733
13643WAT      O41170   0.684   8.788   0.993
13643WAT     H141171   0.620   8.822   1.062
13643WAT     H241172   0.668   8.690   0.979
13644WAT      O41173   1.914   0.775   7.003
13644WAT     H141174   2.012   0.763   7.024
13644WAT     H241175   1.865   0.801   7.086
13645WAT      O41176   6.229   7.483   2.635
13645WAT     H141177   6.158   7.513   2.699
13645WAT     H241178   6.204   7.394   2.597
13646WAT      O41179   4.664   7.856   1.673
13646WAT     H141180   4.644   7.819   1.582
13646WAT     H241181   4.702   7.948   1.663
13647WAT      O41182   9.133   3.120   6.162
13647WAT     H141183   9.229   3.094   6.172
13647WAT     H241184   9.120   3.215   6.192
13648WAT      O41185   3.886   1.847   4.750
13648WAT     H141186   3.811   1.781   4.754
13648WAT     H241187   3.973   1.799   4.751
13649WAT      O41188   7.928   2.007   9.118
13649WAT     H141189   7.940   1.913   9.149
13649WAT     H241190   8.016   2.055   9.123
13650WAT      O41191   5.136   0.570   8.831
13650WAT     H141192   5.181   0.601   8.748
13650WAT     H241193   5.200   0.513   8.884
13651WAT      O41194   4.671   1.814   4.347
13651WAT     H141195   4.725   1.890   4.311
13651WAT     H241196   4.725   1.730   4.344
13652WAT      O41197   5.666   3.785   8.267
13652WAT     H141198   5.608   3.776   8.348
13652WAT     H241199   5.619   3.839   8.198
13653WAT      O41200   0.086   9.031   6.843
13653WAT     H141201   0.090   8.931   6.849
13653WAT     H241202   0.171   9.065   6.802
13654WAT      O41203   2.121   5.034   0.113
13654WAT     H141204   2.185   4.958   0.106
13654WAT     H241205   2.060   5.033   0.033
13655WAT      O41206   8.666   8.759   1.871
13655WAT     H141207   8.730   8.776   1.946
13655WAT     H241208   8.611   8.677   1.891
13656WAT      O41209   7.359   9.389   0.740
13656WAT     H141210   7.346   9.477   0.694
13656WAT     H241211   7.291   9.379   0.813
13657WAT      O41212   5.532   1.671   6.631
13657WAT     H141213   5.545   1.755   6.577
13657WAT     H241214   5.566   1.686   6.724
13658WAT      O41215   4.897   4.388   8.462
13658WAT     H141216   4.819   4.343   8.420
13658WAT     H241217   4.865   4.462   8.522
13659WAT      O41218   0.834   5.096   2.954
13659WAT     H141219   0.898   5.137   3.019
13659WAT     H241220   0.784   5.168   2.906
13660WAT      O41221   2.508   6.283   0.718
13660WAT     H141222   2.608   6.295   0.723
13660WAT     H241223   2.464   6.373   0.712
13661WAT      O41224   5.146   0.650   6.607
13661WAT     H141225   5.154   0.596   6.691
13661WAT     H241226   5.058   0.632   6.564
13662WAT      O41227   5.565   5.580   0.943
13662WAT     H141228   5.577   5.658   1.005
13662WAT     H241229   5.467   5.569   0.923
13663WAT      O41230   5.753   4.490   9.435
13663WAT     H141231   5.719   4.478   9.528
13663WAT     H241232   5.839   4.441   9.424
13664WAT      O41233   1.632   4.584   9.150
13664WAT     H141234   1.559   4.637   9.195
13664WAT     H241235   1.605   4.488   9.145
13665WAT      O41236   8.278   7.751   4.135
13665WAT     H141237   8.340   7.786   4.066
13665WAT     H241238   8.312   7.662   4.168
13666WAT      O41239   5.378   3.219   7.977
13666WAT     H141240   5.435   3.263   8.046
13666WAT     H241241   5.436   3.170   7.912
13667WAT      O41242   5.751   4.025   8.603
13667WAT     H141243   5.660   3.985   8.603
13667WAT     H241244   5.807   3.981   8.674
13668WAT      O41245   1.586   3.326   4.776
13668WAT     H141246   1.640   3.267   4.837
13668WAT     H241247   1.508   3.274   4.741
13669WAT      O41248   9.853   8.392   2.475
13669WAT     H141249   9.787   8.464   2.453
13669WAT     H241250   9.861   8.329   2.398
13670WAT      O41251   9.187   6.737   5.692
13670WAT     H141252   9.264   6.800   5.690
13670WAT     H241253   9.218   6.646   5.719
13671WAT      O41254   8.520   6.800   0.056
13671WAT     H141255   8.425   6.793   0.024
13671WAT     H241256   8.547   6.896   0.058
13672WAT      O41257   4.661   8.998   1.615
13672WAT     H141258   4.563   9.014   1.604
13672WAT     H241259   4.675   8.926   1.683
13673WAT      O41260   8.262   1.888   3.630
13673WAT     H141261   8.322   1.910   3.553
13673WAT     H241262   8.171   1.865   3.595
13674WAT      O41263   7.929   7.006   6.529
13674WAT     H141264   7.965   6.941   6.462
13674WAT     H241265   7.955   6.976   6.621
13675WAT      O41266   0.098   9.385   5.477
13675WAT     H141267   0.165   9.459   5.476
13675WAT     H241268   0.069   9.367   5.571
13676WAT      O41269   3.187   7.240   3.613
13676WAT     H141270   3.176   7.141   3.609
13676WAT     H241271   3.202   7.268   3.708
13677WAT      O41272   2.978   8.840   1.095
13677WAT     H141273   2.912   8.825   1.169
13677WAT     H241274   2.977   8.762   1.032
13678WAT      O41275   9.401   6.964   2.278
13678WAT     H141276   9.429   7.052   2.240
13678WAT     H241277   9.461   6.892   2.243
13679WAT      O41278   1.486   3.359   5.644
13679WAT     H141279   1.451   3.265   5.646
13679WAT     H241280   1.440   3.410   5.571
13680WAT      O41281   6.934   0.142   1.408
13680WAT     H141282   6.906   0.233   1.440
13680WAT     H241283   6.979   0.093   1.482
13681WAT      O41284   3.653   8.744   2.050
13681WAT     H141285   3.611   8.823   2.096
13681WAT     H241286   3.625   8.742   1.954
13682WAT      O41287   4.918   5.009   7.898
13682WAT     H141288   5.006   4.969   7.923
13682WAT     H241289   4.852   4.992   7.971
13683WAT      O41290   0.840   9.412   6.021
13683WAT     H141291   0.938   9.392   6.021
13683WAT     H241292   0.788   9.327   6.032
13684WAT      O41293   8.760   1.950   7.211
13684WAT     H141294   8.794   1.938   7.304
13684WAT     H241295   8.818   2.016   7.163
13685WAT      O41296   8.744   8.998   7.668
13685WAT     H141297   8.709   8.949   7.747
13685WAT     H241298   8.722   9.096   7.677
13686WAT      O41299   8.257   0.946   9.871
13686WAT     H141300   8.169   0.987   9.893
13686WAT     H241301   8.329   0.993   9.923
13687WAT      O41302   3.754   9.832   4.819
13687WAT     H141303   3.806   9.910   4.855
13687WAT     H241304   3.793   9.747   4.855
13688WAT      O41305   3.478   1.155   8.832
13688WAT     H141306   3.469   1.061   8.799
13688WAT     H241307   3.439   1.163   8.923
13689WAT      O41308   9.817   8.604   3.350
13689WAT     H141309   9.828   8.703   3.343
13689WAT     H241310   9.786   8.567   3.262
13690WAT      O41311   9.233   0.597   0.918
13690WAT     H141312   9.174   0.621   0.841
13690WAT     H241313   9.301   0.529   0.889
13691WAT      O41314   5.284   3.264   8.680
13691WAT     H141315   5.279   3.229   8.774
13691WAT     H241316   5.380   3.266   8.651
13692WAT      O41317   3.899   8.622   2.978
13692WAT     H141318   3.807   8.650   2.949
13692WAT     H241319   3.893   8.575   3.066
13693WAT      O41320   2.883   1.930   2.049
13693WAT     H141321   2.814   1.960   1.983
13693WAT     H241322   2.966   1.985   2.038
13694WAT      O41323   1.152   3.604   3.051
13694WAT     H141324   1.167   3.700   3.072
13694WAT     H241325   1.124   3.594   2.956
13695WAT      O41326   4.420   2.212   4.137
13695WAT     H141327   4.419   2.112   4.145
13695WAT     H241328   4.437   2.237   4.041
13696WAT      O41329   2.621   1.194   9.375
13696WAT     H141330   2.557   1.269   9.392
13696WAT     H241331   2.662   1.204   9.284
13697WAT      O41332   3.076   4.747   4.112
13697WAT     H141333   3.038   4.709   4.028
13697WAT     H241334   3.003   4.768   4.176
13698WAT      O41335   5.988   1.143   8.588
13698WAT     H141336   5.979   1.225   8.646
13698WAT     H241337   5.982   1.169   8.492
13699WAT      O41338   1.900   1.449   2.829
13699WAT     H141339   1.890   1.548   2.845
13699WAT     H241340   1.839   1.399   2.890
13700WAT      O41341   7.308   5.522   2.401
13700WAT     H141342   7.283   5.425   2.401
13700WAT     H241343   7.273   5.566   2.318
13701WAT      O41344   3.200   5.263   8.256
13701WAT     H141345   3.190   5.176   8.304
13701WAT     H241346   3.297   5.284   8.245
13702WAT      O41347   3.414   2.548   7.102
13702WAT     H141348   3.349   2.575   7.173
13702WAT     H241349   3.415   2.449   7.094
13703WAT      O41350   9.203   4.436   3.987
13703WAT     H141351   9.255   4.398   4.063
13703WAT     H241352   9.250   4.416   3.901
13704WAT      O41353   1.489   6.602   7.103
13704WAT     H141354   1.486   6.606   7.203
13704WAT     H241355   1.537   6.683   7.068
13705WAT      O41356   3.243   8.415   7.513
13705WAT     H141357   3.157   8.418   7.565
13705WAT     H241358   3.284   8.506   7.511
13706WAT      O41359   0.760   2.138   8.769
13706WAT     H141360   0.689   2.081   8.728
13706WAT     H241361   0.828   2.080   8.813
13707WAT      O41362   6.158   1.595   4.771
13707WAT     H141363   6.209   1.607   4.685
13707WAT     H241364   6.217   1.549   4.838
13708WAT      O41365   0.277   8.721   0.421
13708WAT     H141366   0.221   8.642   0.394
13708WAT     H241367   0.361   8.721   0.368
13709WAT      O41368   1.921   5.461   5.393
13709WAT     H141369   1.832   5.454   5.348
13709WAT     H241370   1.966   5.546   5.364
13710WAT      O41371   8.629   4.624   2.066
13710WAT     H141372   8.627   4.525   2.080
13710WAT     H241373   8.571   4.647   1.988
13711WAT      O41374   4.063   0.179   9.385
13711WAT     H141375   4.152   0.170   9.338
13711WAT     H241376   4.006   0.245   9.336
13712WAT      O41377   3.485   8.890   0.083
13712WAT     H141378   3.418   8.846   0.024
13712WAT     H241379   3.552   8.939   0.027
13713WAT      O41380   2.616   0.162   5.739
13713WAT     H141381   2.636   0.146   5.835
13713WAT     H241382   2.517   0.173   5.727
13714WAT      O41383   1.289   6.389   5.872
13714WAT     H141384   1.351   6.454   5.917
13714WAT     H241385   1.319   6.296   5.891
13715WAT      O41386   7.143   0.165   7.067
13715WAT     H141387   7.229   0.140   7.023
13715WAT     H241388   7.073   0.180   6.997
13716WAT      O41389   6.040   7.199   4.524
13716WAT     H141390   6.028   7.162   4.617
13716WAT     H241391   6.041   7.123   4.458
13717WAT      O41392   5.887   2.996   8.031
13717WAT     H141393   5.926   3.088   8.041
13717WAT     H241394   5.949   2.929   8.070
13718WAT      O41395   2.760   5.301   7.041
13718WAT     H141396   2.773   5.368   7.113
13718WAT     H241397   2.703   5.340   6.968
13719WAT      O41398   7.907   0.500   4.046
13719WAT     H141399   7.952   0.558   3.978
13719WAT     H241400   7.952   0.511   4.135
13720WAT      O41401   7.811   5.636   6.626
13720WAT     H141402   7.817   5.718   6.682
13720WAT     H241403   7.883   5.638   6.556
13721WAT      O41404   6.477   4.893   8.147
13721WAT     H141405   6.454   4.886   8.244
13721WAT     H241406   6.433   4.818   8.097
13722WAT      O41407   4.733   4.418   6.709
13722WAT     H141408   4.700   4.330   6.674
13722WAT     H241409   4.779   4.468   6.635
13723WAT      O41410   0.160   1.896   7.116
13723WAT     H141411   0.067   1.928   7.094
13723WAT     H241412   0.183   1.924   7.209
13724WAT      O41413   4.125   3.463   1.053
13724WAT     H141414   4.127   3.365   1.073
13724WAT     H241415   4.189   3.511   1.113
13725WAT      O41416   1.506   0.978   8.864
13725WAT     H141417   1.479   0.885   8.888
13725WAT     H241418   1.553   0.978   8.776
13726WAT      O41419   4.977   5.277   2.170
13726WAT     H141420   5.042   5.319   2.234
13726WAT     H241421   4.989   5.318   2.079
13727WAT      O41422   2.833   4.748   1.890
13727WAT     H141423   2.922   4.793   1.899
13727WAT     H241424   2.848   4.650   1.876
13728WAT      O41425   2.452   3.125   2.511
13728WAT     H141426   2.480   3.056   2.578
13728WAT     H241427   2.534   3.173   2.478
13729WAT      O41428   0.816   0.790   8.033
13729WAT     H141429   0.758   0.755   7.959
13729WAT     H241430   0.793   0.743   8.118
13730WAT      O41431   9.599   4.374   1.780
13730WAT     H141432   9.573   4.410   1.870
13730WAT     H241433   9.517   4.344   1.732
13731WAT      O41434   4.557   4.708   8.673
13731WAT     H141435   4.515   4.685   8.761
13731WAT     H241436   4.613   4.789   8.683
13732WAT      O41437   4.431   2.883   7.195
13732WAT     H141438   4.530   2.869   7.187
13732WAT     H241439   4.400   2.847   7.283
13733WAT      O41440   1.776   7.296   5.778
13733WAT     H141441   1.873   7.312   5.797
13733WAT     H241442   1.755   7.325   5.684
13734WAT      O41443   5.613   9.670   7.399
13734WAT     H141444   5.556   9.742   7.438
13734WAT     H241445   5.623   9.685   7.301
13735WAT      O41446   6.682   7.952   6.425
13735WAT     H141447   6.711   8.040   6.388
13735WAT     H241448   6.761   7.890   6.429
13736WAT      O41449   4.686   5.035   0.123
13736WAT     H141450   4.685   5.030   0.023
13736WAT     H241451   4.592   5.045   0.156
13737WAT      O41452   5.529   9.595   0.945
13737WAT     H141453   5.488   9.676   0.986
13737WAT     H241454   5.514   9.516   1.004
13738WAT      O41455   2.682   9.308   1.729
13738WAT     H141456   2.749   9.380   1.712
13738WAT     H241457   2.654   9.267   1.642
13739WAT      O41458   8.611   3.506   2.248
13739WAT     H141459   8.520   3.517   2.207
13739WAT     H241460   8.645   3.414   2.228
13740WAT      O41461   7.922   9.098   8.723
13740WAT     H141462   7.988   9.156   8.770
13740WAT     H241463   7.834   9.144   8.718
13741WAT      O41464   2.640   7.145   6.202
13741WAT     H141465   2.722   7.102   6.241
13741WAT     H241466   2.664   7.233   6.161
13742WAT      O41467   6.775   2.772   1.969
13742WAT     H141468   6.718   2.716   2.029
13742WAT     H241469   6.841   2.713   1.922
13743WAT      O41470   8.943   3.647   0.173
13743WAT     H141471   8.885   3.628   0.253
13743WAT     H241472   9.037   3.622   0.193
13744WAT      O41473   1.983   5.316   2.390
13744WAT     H141474   1.959   5.311   2.293
13744WAT     H241475   2.045   5.240   2.412
13745WAT      O41476   4.564   6.630   6.373
13745WAT     H141477   4.652   6.677   6.386
13745WAT     H241478   4.495   6.695   6.342
13746WAT      O41479   2.960   0.925   1.418
13746WAT     H141480   2.927   0.984   1.344
13746WAT     H241481   2.921   0.834   1.407
13747WAT      O41482   7.399   6.834   8.039
13747WAT     H141483   7.491   6.874   8.040
13747WAT     H241484   7.351   6.857   8.124
13748WAT      O41485   6.758   4.941   6.746
13748WAT     H141486   6.802   4.851   6.756
13748WAT     H241487   6.719   4.949   6.655
13749WAT      O41488   2.702   8.051   7.034
13749WAT     H141489   2.762   7.973   7.017
13749WAT     H241490   2.626   8.050   6.969
13750WAT      O41491   7.341   6.573   8.059
13750WAT     H141492   7.298   6.572   8.149
13750WAT     H241493   7.360   6.668   8.032
13751WAT      O41494   1.965   0.092   4.221
13751WAT     H141495   1.978   0.163   4.151
13751WAT     H241496   2.042   0.029   4.218
13752WAT      O41497   7.985   7.300   9.038
13752WAT     H141498   7.920   7.344   8.977
13752WAT     H241499   8.061   7.261   8.984
13753WAT      O41500   3.877   2.795   5.784
13753WAT     H141501   3.804   2.837   5.839
13753WAT     H241502   3.857   2.699   5.770
13754WAT      O41503   9.707   5.671   6.845
13754WAT     H141504   9.615   5.705   6.866
13754WAT     H241505   9.721   5.583   6.892
13755WAT      O41506   7.998   3.530   9.332
13755WAT     H141507   8.024   3.459   9.267
13755WAT     H241508   7.902   3.518   9.358
13756WAT      O41509   1.316   5.229   1.844
13756WAT     H141510   1.316   5.156   1.775
13756WAT     H241511   1.411   5.255   1.864
13757WAT      O41512   7.072   3.893   1.835
13757WAT     H141513   7.056   3.923   1.929
13757WAT     H241514   7.098   3.796   1.836
13758WAT      O41515   5.086   9.268   6.242
13758WAT     H141516   5.061   9.363   6.225
13758WAT     H241517   5.086   9.217   6.156
13759WAT      O41518   8.891   5.461   1.675
13759WAT     H141519   8.980   5.457   1.629
13759WAT     H241520   8.902   5.504   1.764
13760WAT      O41521   0.191   5.972   1.361
13760WAT     H141522   0.103   6.019   1.364
13760WAT     H241523   0.214   5.939   1.453
13761WAT      O41524   2.854   8.109   6.099
13761WAT     H141525   2.879   8.194   6.052
13761WAT     H241526   2.783   8.062   6.047
13762WAT      O41527   3.802   7.657   3.820
13762WAT     H141528   3.801   7.567   3.777
13762WAT     H241529   3.784   7.647   3.918
13763WAT      O41530   5.367   5.778   1.585
13763WAT     H141531   5.465   5.760   1.576
13763WAT     H241532   5.320   5.752   1.500
13764WAT      O41533   3.480   9.815   6.395
13764WAT     H141534   3.528   9.874   6.460
13764WAT     H241535   3.502   9.846   6.302
13765WAT      O41536   0.270   3.595   6.793
13765WAT     H141537   0.347   3.656   6.807
13765WAT     H241538   0.247   3.591   6.696
13766WAT      O41539   2.092   7.746   5.733
13766WAT     H141540   2.139   7.778   5.650
13766WAT     H241541   2.157   7.745   5.809
13767WAT      O41542   3.053   3.530   7.937
13767WAT     H141543   3.045   3.608   7.875
13767WAT     H241544   3.032   3.559   8.030
13768WAT      O41545   3.636   0.354   0.690
13768WAT     H141546   3.589   0.395   0.768
13768WAT     H241547   3.629   0.415   0.611
13769WAT      O41548   4.631   0.463   3.745
13769WAT     H141549   4.633   0.434   3.649
13769WAT     H241550   4.600   0.559   3.749
13770WAT      O41551   1.577   0.688   7.437
13770WAT     H141552   1.586   0.588   7.430
13770WAT     H241553   1.480   0.713   7.431
13771WAT      O41554   8.309   7.483   3.938
13771WAT     H141555   8.372   7.486   3.861
13771WAT     H241556   8.356   7.515   4.021
13772WAT      O41557   7.282   8.384   7.240
13772WAT     H141558   7.241   8.296   7.264
13772WAT     H241559   7.302   8.386   7.143
13773WAT      O41560   1.484   1.622   3.962
13773WAT     H141561   1.473   1.659   4.055
13773WAT     H241562   1.494   1.523   3.967
13774WAT      O41563   0.006   2.896   9.660
13774WAT     H141564  -0.046   2.836   9.600
13774WAT     H241565   0.096   2.856   9.676
13775WAT      O41566   9.234   0.353   7.240
13775WAT     H141567   9.227   0.330   7.337
13775WAT     H241568   9.241   0.269   7.186
13776WAT      O41569   8.772   9.747   8.595
13776WAT     H141570   8.821   9.797   8.666
13776WAT     H241571   8.737   9.661   8.632
13777WAT      O41572   2.889   8.763   4.063
13777WAT     H141573   2.802   8.782   4.109
13777WAT     H241574   2.925   8.848   4.026
13778WAT      O41575   7.761   7.475   3.933
13778WAT     H141576   7.733   7.547   3.997
13778WAT     H241577   7.859   7.459   3.941
13779WAT      O41578   9.047   8.795   3.320
13779WAT     H141579   9.003   8.867   3.373
13779WAT     H241580   9.116   8.835   3.260
13780WAT      O41581   0.134   3.755   9.064
13780WAT     H141582   0.127   3.808   9.149
13780WAT     H241583   0.155   3.817   8.988
13781WAT      O41584   1.259   1.341   0.450
13781WAT     H141585   1.284   1.411   0.382
13781WAT     H241586   1.324   1.344   0.526
13782WAT      O41587   6.158   3.775   3.675
13782WAT     H141588   6.061   3.789   3.695
13782WAT     H241589   6.206   3.750   3.759
13783WAT      O41590   3.953   0.789   4.339
13783WAT     H141591   3.972   0.699   4.299
13783WAT     H241592   3.979   0.860   4.275
13784WAT      O41593   6.124   4.080   8.562
13784WAT     H141594   6.125   4.179   8.549
13784WAT     H241595   6.052   4.056   8.628
13785WAT      O41596   0.926   9.647   5.634
13785WAT     H141597   0.900   9.563   5.681
13785WAT     H241598   0.849   9.681   5.580
13786WAT      O41599   9.165   1.083   4.136
13786WAT     H141600   9.115   1.031   4.067
13786WAT     H241601   9.257   1.105   4.103
13787WAT      O41602   3.973   7.419   1.698
13787WAT     H141603   3.899   7.435   1.634
13787WAT     H241604   4.013   7.506   1.726
13788WAT      O41605   5.828   7.460   2.462
13788WAT     H141606   5.810   7.449   2.559
13788WAT     H241607   5.790   7.547   2.430
13789WAT      O41608   3.657   2.623   7.195
13789WAT     H141609   3.722   2.547   7.187
13789WAT     H241610   3.575   2.602   7.142
13790WAT      O41611   9.352   9.238   6.209
13790WAT     H141612   9.309   9.150   6.190
13790WAT     H241613   9.290   9.312   6.185
13791WAT      O41614   8.490   0.886   6.550
13791WAT     H141615   8.505   0.881   6.649
13791WAT     H241616   8.393   0.901   6.532
13792WAT      O41617   4.776   6.606   7.874
13792WAT     H141618   4.842   6.672   7.838
13792WAT     H241619   4.708   6.585   7.803
13793WAT      O41620   1.303   3.433   8.227
13793WAT     H141621   1.397   3.442   8.194
13793WAT     H241622   1.243   3.494   8.174
13794WAT      O41623   4.554   7.951   1.080
13794WAT     H141624   4.631   8.013   1.092
13794WAT     H241625   4.553   7.883   1.153
13795WAT      O41626   7.610   7.535   3.700
13795WAT     H141627   7.678   7.570   3.635
13795WAT     H241628   7.654   7.516   3.788
13796WAT      O41629   3.292   8.857   7.513
13796WAT     H141630   3.326   8.765   7.490
13796WAT     H241631   3.254   8.856   7.605
13797WAT      O41632   7.195   1.521   1.020
13797WAT     H141633   7.126   1.454   1.050
13797WAT     H241634   7.159   1.613   1.030
13798WAT      O41635   3.653   1.638   7.504
13798WAT     H141636   3.742   1.601   7.529
13798WAT     H241637   3.649   1.651   7.405
13799WAT      O41638   3.222   6.503   0.682
13799WAT     H141639   3.259   6.582   0.731
13799WAT     H241640   3.241   6.420   0.734
13800WAT      O41641   1.685   0.282   5.554
13800WAT     H141642   1.621   0.231   5.497
13800WAT     H241643   1.775   0.239   5.552
13801WAT      O41644   7.162   5.832   3.568
13801WAT     H141645   7.192   5.837   3.663
13801WAT     H241646   7.075   5.783   3.563
13802WAT      O41647   6.225   2.068   5.092
13802WAT     H141648   6.251   2.158   5.127
13802WAT     H241649   6.171   2.020   5.161
13803WAT      O41650   2.159   9.085   0.740
13803WAT     H141651   2.255   9.058   0.746
13803WAT     H241652   2.133   9.094   0.644
13804WAT      O41653   7.379   5.884   6.521
13804WAT     H141654   7.451   5.822   6.488
13804WAT     H241655   7.304   5.830   6.559
13805WAT      O41656   0.711   7.409   2.847
13805WAT     H141657   0.616   7.429   2.822
13805WAT     H241658   0.732   7.314   2.828
13806WAT      O41659   8.617   8.862   3.063
13806WAT     H141660   8.688   8.844   3.131
13806WAT     H241661   8.651   8.927   2.995
13807WAT      O41662   6.979   3.902   0.043
13807WAT     H141663   7.008   3.830  -0.020
13807WAT     H241664   7.009   3.878   0.136
13808WAT      O41665   3.747   0.296   7.159
13808WAT     H141666   3.755   0.221   7.093
13808WAT     H241667   3.670   0.279   7.220
13809WAT      O41668   4.886   6.648   3.007
13809WAT     H141669   4.862   6.579   2.939
13809WAT     H241670   4.985   6.659   3.010
13810WAT      O41671   1.939   5.912   0.597
13810WAT     H141672   2.018   5.966   0.629
13810WAT     H241673   1.881   5.889   0.675
13811WAT      O41674   4.144   1.215   5.497
13811WAT     H141675   4.133   1.144   5.568
13811WAT     H241676   4.231   1.201   5.450
13812WAT      O41677   7.185   3.108   0.886
13812WAT     H141678   7.101   3.150   0.921
13812WAT     H241679   7.264   3.142   0.938
13813WAT      O41680   9.286   2.409   6.451
13813WAT     H141681   9.279   2.360   6.364
13813WAT     H241682   9.288   2.508   6.434
13814WAT      O41683   2.512   2.253   0.173
13814WAT     H141684   2.577   2.283   0.103
13814WAT     H241685   2.436   2.317   0.178
13815WAT      O41686   2.318   6.744   0.070
13815WAT     H141687   2.298   6.732  -0.027
13815WAT     H241688   2.233   6.737   0.123
13816WAT      O41689   1.144   0.502   3.388
13816WAT     H141690   1.166   0.490   3.485
13816WAT     H241691   1.058   0.456   3.367
13817WAT      O41692   7.158   4.188   5.790
13817WAT     H141693   7.101   4.130   5.731
13817WAT     H241694   7.249   4.198   5.749
13818WAT      O41695   6.135   6.978   7.631
13818WAT     H141696   6.109   7.041   7.558
13818WAT     H241697   6.183   7.028   7.703
13819WAT      O41698   0.622   8.220   5.408
13819WAT     H141699   0.533   8.206   5.364
13819WAT     H241700   0.623   8.310   5.452
13820WAT      O41701   7.017   9.097   0.027
13820WAT     H141702   7.035   9.189  -0.009
13820WAT     H241703   6.922   9.073   0.010
13821WAT      O41704   2.100   1.794   3.992
13821WAT     H141705   2.046   1.710   3.991
13821WAT     H241706   2.195   1.772   3.970
13822WAT      O41707   4.991   5.880   5.950
13822WAT     H141708   5.027   5.970   5.925
13822WAT     H241709   4.946   5.839   5.871
13823WAT      O41710   1.370   0.346   7.920
13823WAT     H141711   1.405   0.420   7.862
13823WAT     H241712   1.446   0.307   7.972
13824WAT      O41713   5.704   2.779   0.249
13824WAT     H141714   5.742   2.784   0.156
13824WAT     H241715   5.742   2.853   0.304
13825WAT      O41716   1.585   3.852   7.429
13825WAT     H141717   1.557   3.853   7.333
13825WAT     H241718   1.593   3.757   7.460
13826WAT      O41719   3.377   9.072   7.803
13826WAT     H141720   3.421   9.097   7.716
13826WAT     H241721   3.287   9.114   7.808
13827WAT      O41722   2.319   6.268   3.505
13827WAT     H141723   2.276   6.264   3.595
13827WAT     H241724   2.329   6.363   3.477
13828WAT      O41725   2.629   3.962   5.230
13828WAT     H141726   2.612   3.891   5.161
13828WAT     H241727   2.553   4.026   5.232
13829WAT      O41728   0.809   3.771   1.186
13829WAT     H141729   0.772   3.854   1.145
13829WAT     H241730   0.889   3.741   1.133
13830WAT      O41731   3.703   1.167   7.285
13830WAT     H141732   3.604   1.157   7.291
13830WAT     H241733   3.747   1.094   7.337
13831WAT      O41734   6.942   3.607   4.654
13831WAT     H141735   6.995   3.528   4.684
13831WAT     H241736   6.927   3.668   4.732
13832WAT      O41737   9.615   7.791   1.619
13832WAT     H141738   9.606   7.799   1.718
13832WAT     H241739   9.639   7.696   1.596
13833WAT      O41740   9.433   9.612   0.728
13833WAT     H141741   9.387   9.699   0.713
13833WAT     H241742   9.414   9.550   0.652
13834WAT      O41743   5.241   0.066   1.131
13834WAT     H141744   5.314   0.030   1.073
13834WAT     H241745   5.247   0.166   1.135
13835WAT      O41746   9.678   3.432   3.373
13835WAT     H141747   9.664   3.419   3.275
13835WAT     H241748   9.710   3.525   3.390
13836WAT      O41749   4.491   5.596   0.502
13836WAT     H141750   4.421   5.570   0.568
13836WAT     H241751   4.556   5.658   0.546
13837WAT      O41752   1.155   6.077   5.434
13837WAT     H141753   1.089   6.130   5.381
13837WAT     H241754   1.247   6.114   5.420
13838WAT      O41755   8.474   6.435   0.216
13838WAT     H141756   8.469   6.505   0.287
13838WAT     H241757   8.529   6.469   0.139
13839WAT      O41758   0.165   4.270   0.210
13839WAT     H141759   0.229   4.267   0.287
13839WAT     H241760   0.130   4.363   0.198
13840WAT      O41761   3.332   8.379   7.913
13840WAT     H141762   3.280   8.294   7.919
13840WAT     H241763   3.277   8.454   7.952
13841WAT      O41764   7.860   5.807   5.501
13841WAT     H141765   7.915   5.878   5.458
13841WAT     H241766   7.919   5.740   5.545
13842WAT      O41767   5.729   1.241   8.819
13842WAT     H141768   5.734   1.283   8.728
13842WAT     H241769   5.681   1.154   8.813
13843WAT      O41770   5.731   7.510   1.289
13843WAT     H141771   5.717   7.411   1.277
13843WAT     H241772   5.807   7.540   1.231
13844WAT      O41773   8.363   3.452   1.451
13844WAT     H141774   8.282   3.459   1.510
13844WAT     H241775   8.412   3.367   1.473
13845WAT      O41776   0.534   3.666   0.588
13845WAT     H141777   0.459   3.719   0.628
13845WAT     H241778   0.593   3.633   0.661
13846WAT      O41779   8.751   6.971   1.311
13846WAT     H141780   8.690   6.892   1.321
13846WAT     H241781   8.842   6.947   1.344
13847WAT      O41782   4.330   6.214   2.082
13847WAT     H141783   4.375   6.222   2.172
13847WAT     H241784   4.232   6.227   2.093
13848WAT      O41785   0.456   9.379   7.917
13848WAT     H141786   0.526   9.436   7.875
13848WAT     H241787   0.373   9.380   7.861
13849WAT      O41788   7.057   4.132   9.461
13849WAT     H141789   7.060   4.201   9.534
13849WAT     H241790   7.126   4.154   9.392
13850WAT      O41791   0.528   7.510   4.301
13850WAT     H141792   0.464   7.530   4.227
13850WAT     H241793   0.520   7.413   4.327
13851WAT      O41794   2.403   9.701   8.336
13851WAT     H141795   2.411   9.635   8.261
13851WAT     H241796   2.323   9.759   8.320
13852WAT      O41797   1.881   7.337   4.088
13852WAT     H141798   1.852   7.377   4.001
13852WAT     H241799   1.977   7.310   4.082
13853WAT      O41800   1.977   8.031   2.232
13853WAT     H141801   1.988   7.936   2.202
13853WAT     H241802   2.045   8.088   2.188
13854WAT      O41803   3.062   4.762   8.449
13854WAT     H141804   3.081   4.685   8.389
13854WAT     H241805   3.080   4.736   8.544
13855WAT      O41806   7.151   4.942   7.643
13855WAT     H141807   7.108   5.021   7.686
13855WAT     H241808   7.230   4.973   7.590
13856WAT      O41809   0.887   3.251   1.142
13856WAT     H141810   0.885   3.329   1.080
13856WAT     H241811   0.805   3.251   1.199
13857WAT      O41812   6.881   6.912   2.000
13857WAT     H141813   6.834   6.886   1.916
13857WAT     H241814   6.971   6.950   1.978
13858WAT      O41815   7.438   6.263   0.003
13858WAT     H141816   7.400   6.186   0.054
13858WAT     H241817   7.429   6.245  -0.095
13859WAT      O41818   2.236   2.051   1.756
13859WAT     H141819   2.227   2.008   1.845
13859WAT     H241820   2.158   2.027   1.699
13860WAT      O41821   1.388   3.483   3.022
13860WAT     H141822   1.293   3.513   3.026
13860WAT     H241823   1.418   3.454   3.113
13861WAT      O41824   7.948   2.995   1.541
13861WAT     H141825   8.007   2.964   1.466
13861WAT     H241826   7.978   3.084   1.574
13862WAT      O41827   8.733   5.786   3.417
13862WAT     H141828   8.741   5.807   3.514
13862WAT     H241829   8.739   5.870   3.363
13863WAT      O41830   2.336   8.747   0.789
13863WAT     H141831   2.355   8.843   0.766
13863WAT     H241832   2.239   8.737   0.811
13864WAT      O41833   2.867   3.666   5.073
13864WAT     H141834   2.958   3.625   5.064
13864WAT     H241835   2.799   3.594   5.085
13865WAT      O41836   8.720   4.246   9.388
13865WAT     H141837   8.771   4.174   9.435
13865WAT     H241838   8.696   4.318   9.453
13866WAT      O41839   5.200   9.120   1.636
13866WAT     H141840   5.227   9.087   1.545
13866WAT     H241841   5.140   9.199   1.626
13867WAT      O41842   0.048   2.435   3.652
13867WAT     H141843   0.015   2.490   3.575
13867WAT     H241844  -0.008   2.352   3.660
13868WAT      O41845   0.720   1.215   9.119
13868WAT     H141846   0.777   1.136   9.096
13868WAT     H241847   0.770   1.277   9.179
13869WAT      O41848   8.704   9.039   4.752
13869WAT     H141849   8.735   9.049   4.846
13869WAT     H241850   8.707   9.128   4.706
13870WAT      O41851   6.852   3.739   8.878
13870WAT     H141852   6.773   3.760   8.935
13870WAT     H241853   6.826   3.676   8.806
13871WAT      O41854   1.136   7.548   3.645
13871WAT     H141855   1.116   7.465   3.698
13871WAT     H241856   1.230   7.544   3.610
13872WAT      O41857   6.657   9.514   3.048
13872WAT     H141858   6.682   9.478   3.138
13872WAT     H241859   6.666   9.441   2.980
13873WAT      O41860   6.009   0.897   2.648
13873WAT     H141861   6.032   0.962   2.721
13873WAT     H241862   6.003   0.945   2.561
13874WAT      O41863   7.869   6.760   7.348
13874WAT     H141864   7.854   6.791   7.442
13874WAT     H241865   7.899   6.836   7.291
13875WAT      O41866   3.076   5.168   2.237
13875WAT     H141867   3.044   5.217   2.156
13875WAT     H241868   3.085   5.232   2.313
13876WAT      O41869   9.681   6.690   5.463
13876WAT     H141870   9.748   6.741   5.408
13876WAT     H241871   9.602   6.747   5.482
13877WAT      O41872   8.302   0.626   4.391
13877WAT     H141873   8.356   0.669   4.319
13877WAT     H241874   8.352   0.547   4.427
13878WAT      O41875   0.767   4.731   9.476
13878WAT     H141876   0.830   4.796   9.520
13878WAT     H241877   0.676   4.743   9.514
13879WAT      O41878   1.277   9.105   1.861
13879WAT     H141879   1.282   9.006   1.843
13879WAT     H241880   1.241   9.151   1.780
13880WAT      O41881   1.971   8.048   2.530
13880WAT     H141882   1.989   8.047   2.431
13880WAT     H241883   2.058   8.050   2.579
13881WAT      O41884   4.128   5.312   8.645
13881WAT     H141885   4.189   5.286   8.720
13881WAT     H241886   4.146   5.407   8.619
13882WAT      O41887   4.304   4.101   4.669
13882WAT     H141888   4.393   4.119   4.712
13882WAT     H241889   4.286   4.171   4.600
13883WAT      O41890   0.237   4.693   0.873
13883WAT     H141891   0.263   4.694   0.777
13883WAT     H241892   0.273   4.775   0.918
13884WAT      O41893   1.729   1.691   4.862
13884WAT     H141894   1.672   1.690   4.779
13884WAT     H241895   1.790   1.770   4.858
13885WAT      O41896   0.619   3.564   1.216
13885WAT     H141897   0.607   3.514   1.130
13885WAT     H241898   0.686   3.637   1.203
13886WAT      O41899   2.898   3.394   0.701
13886WAT     H141900   2.858   3.454   0.631
13886WAT     H241901   2.880   3.299   0.677
13887WAT      O41902   5.288   3.649   7.335
13887WAT     H141903   5.356   3.592   7.288
13887WAT     H241904   5.240   3.705   7.268
13888WAT      O41905   0.674   5.947   8.983
13888WAT     H141906   0.623   5.864   8.959
13888WAT     H241907   0.627   5.993   9.058
13889WAT      O41908   3.419   8.212   4.605
13889WAT     H141909   3.340   8.259   4.566
13889WAT     H241910   3.438   8.129   4.552
13890WAT      O41911   0.286   6.601   2.792
13890WAT     H141912   0.347   6.557   2.858
13890WAT     H241913   0.335   6.615   2.706
13891WAT      O41914   4.680   0.317   6.153
13891WAT     H141915   4.676   0.340   6.056
13891WAT     H241916   4.776   0.316   6.183
13892WAT      O41917   3.184   1.759   9.755
13892WAT     H141918   3.172   1.836   9.693
13892WAT     H241919   3.269   1.770   9.807
13893WAT      O41920   7.188   0.141   3.234
13893WAT     H141921   7.137   0.085   3.300
13893WAT     H241922   7.143   0.229   3.224
13894WAT      O41923   5.769   4.981   4.139
13894WAT     H141924   5.782   4.947   4.046
13894WAT     H241925   5.829   5.059   4.154
13895WAT      O41926   6.249   2.579   1.493
13895WAT     H141927   6.338   2.613   1.462
13895WAT     H241928   6.177   2.640   1.459
13896WAT      O41929   8.260   6.984   7.696
13896WAT     H141930   8.212   6.907   7.738
13896WAT     H241931   8.219   7.004   7.607
13897WAT      O41932   0.046   1.279   6.803
13897WAT     H141933   0.047   1.247   6.897
13897WAT     H241934  -0.047   1.301   6.776
13898WAT      O41935   3.874   6.147   8.748
13898WAT     H141936   3.892   6.238   8.709
13898WAT     H241937   3.800   6.154   8.815
13899WAT      O41938   1.139   6.161   8.895
13899WAT     H141939   1.151   6.062   8.902
13899WAT     H241940   1.125   6.199   8.987
13900WAT      O41941   7.974   3.927   3.450
13900WAT     H141942   7.996   3.990   3.376
13900WAT     H241943   8.034   3.945   3.528
13901WAT      O41944   2.773   9.265   2.233
13901WAT     H141945   2.861   9.219   2.244
13901WAT     H241946   2.749   9.312   2.318
13902WAT      O41947   6.539   0.725   4.499
13902WAT     H141948   6.451   0.767   4.476
13902WAT     H241949   6.526   0.630   4.525
13903WAT      O41950   1.026   7.705   7.389
13903WAT     H141951   0.941   7.738   7.350
13903WAT     H241952   1.051   7.763   7.467
13904WAT      O41953   2.573   2.831   6.214
13904WAT     H141954   2.518   2.912   6.232
13904WAT     H241955   2.670   2.855   6.218
13905WAT      O41956   9.184   8.803   0.592
13905WAT     H141957   9.152   8.844   0.678
13905WAT     H241958   9.249   8.730   0.612
13906WAT      O41959   5.270   6.720   6.999
13906WAT     H141960   5.239   6.804   6.955
13906WAT     H241961   5.273   6.647   6.931
13907WAT      O41962   6.660   9.477   4.647
13907WAT     H141963   6.732   9.442   4.707
13907WAT     H241964   6.627   9.403   4.588
13908WAT      O41965   8.446   3.423   9.637
13908WAT     H141966   8.402   3.377   9.560
13908WAT     H241967   8.536   3.383   9.654
13909WAT      O41968   3.518   0.466   4.488
13909WAT     H141969   3.458   0.534   4.530
13909WAT     H241970   3.595   0.448   4.549
13910WAT      O41971   6.018   5.031   2.022
13910WAT     H141972   6.074   5.003   2.101
13910WAT     H241973   5.951   4.960   2.002
13911WAT      O41974   4.460   1.236   9.185
13911WAT     H141975   4.491   1.288   9.105
13911WAT     H241976   4.388   1.173   9.158
13912WAT      O41977   6.110   7.539   4.314
13912WAT     H141978   6.123   7.620   4.258
13912WAT     H241979   6.133   7.457   4.261
13913WAT      O41980   9.386   9.660   5.031
13913WAT     H141981   9.439   9.575   5.033
13913WAT     H241982   9.325   9.662   5.110
13914WAT      O41983   9.718   4.988   6.856
13914WAT     H141984   9.801   4.991   6.912
13914WAT     H241985   9.639   4.972   6.915
13915WAT      O41986   2.666   7.081   7.169
13915WAT     H141987   2.707   7.131   7.093
13915WAT     H241988   2.613   7.144   7.226
13916WAT      O41989   5.764   5.159   2.636
13916WAT     H141990   5.708   5.084   2.601
13916WAT     H241991   5.749   5.168   2.735
13917WAT      O41992   9.318   8.670   8.135
13917WAT     H141993   9.264   8.608   8.079
13917WAT     H241994   9.266   8.696   8.216
13918WAT      O41995   0.105   3.149   6.809
13918WAT     H141996   0.112   3.145   6.709
13918WAT     H241997   0.049   3.073   6.842
13919WAT      O41998   5.946   9.344   1.600
13919WAT     H141999   5.896   9.261   1.626
13919WAT     H242000   6.044   9.326   1.599
13920WAT      O42001   9.003   1.337   6.716
13920WAT     H142002   8.973   1.265   6.778
13920WAT     H242003   9.049   1.410   6.768
13921WAT      O42004   3.904   0.990   9.547
13921WAT     H142005   3.947   1.064   9.599
13921WAT     H242006   3.841   0.941   9.606
13922WAT      O42007   5.904   9.002   4.955
13922WAT     H142008   5.845   9.021   5.033
13922WAT     H242009   5.991   8.964   4.987
13923WAT      O42010   2.318   8.504   8.294
13923WAT     H142011   2.407   8.531   8.332
13923WAT     H242012   2.307   8.405   8.302
13924WAT      O42013   5.456   1.572   3.774
13924WAT     H142014   5.426   1.611   3.861
13924WAT     H242015   5.496   1.644   3.718
13925WAT      O42016   2.218   2.803   7.541
13925WAT     H142017   2.213   2.752   7.627
13925WAT     H242018   2.310   2.842   7.531
13926WAT      O42019   3.245   6.852   8.109
13926WAT     H142020   3.284   6.880   8.022
13926WAT     H242021   3.264   6.922   8.178
13927WAT      O42022   1.344   7.954   1.016
13927WAT     H142023   1.319   7.897   0.938
13927WAT     H242024   1.357   8.048   0.986
13928WAT      O42025   5.988   4.097   0.328
13928WAT     H142026   6.035   4.028   0.272
13928WAT     H242027   6.050   4.132   0.398
13929WAT      O42028   7.445   4.099   0.997
13929WAT     H142029   7.393   4.026   0.952
13929WAT     H242030   7.429   4.096   1.096
13930WAT      O42031   1.423   1.700   9.074
13930WAT     H142032   1.379   1.659   9.154
13930WAT     H242033   1.380   1.666   8.991
13931WAT      O42034   7.024   2.458   3.698
13931WAT     H142035   7.063   2.415   3.779
13931WAT     H242036   7.050   2.405   3.617
13932WAT      O42037   1.704   4.913   8.947
13932WAT     H142038   1.673   5.006   8.964
13932WAT     H242039   1.625   4.854   8.930
13933WAT      O42040   2.092   5.603   2.015
13933WAT     H142041   2.106   5.545   1.935
13933WAT     H242042   2.161   5.582   2.084
13934WAT      O42043   3.595   2.670   8.596
13934WAT     H142044   3.671   2.672   8.661
13934WAT     H242045   3.629   2.637   8.507
13935WAT      O42046   1.925   5.254   7.459
13935WAT     H142047   1.965   5.263   7.550
13935WAT     H242048   1.935   5.160   7.428
13936WAT      O42049   4.109   2.305   5.614
13936WAT     H142050   4.128   2.234   5.545
13936WAT     H242051   4.058   2.264   5.689
13937WAT      O42052   8.452   9.167   8.634
13937WAT     H142053   8.537   9.148   8.682
13937WAT     H242054   8.431   9.092   8.572
13938WAT      O42055   8.057   3.345   8.557
13938WAT     H142056   8.088   3.252   8.534
13938WAT     H242057   8.004   3.382   8.481
13939WAT      O42058   2.973   8.820   9.128
13939WAT     H142059   2.938   8.815   9.221
13939WAT     H242060   2.914   8.767   9.067
13940WAT      O42061   4.622   0.084   1.487
13940WAT     H142062   4.570   0.022   1.546
13940WAT     H242063   4.720   0.075   1.508
13941WAT      O42064   6.084   1.930   4.133
13941WAT     H142065   6.174   1.896   4.160
13941WAT     H242066   6.071   2.022   4.168
13942WAT      O42067   8.535   6.622   6.601
13942WAT     H142068   8.489   6.668   6.525
13942WAT     H242069   8.472   6.559   6.645
13943WAT      O42070   8.499   0.847   3.861
13943WAT     H142071   8.458   0.756   3.854
13943WAT     H242072   8.582   0.850   3.806
13944WAT      O42073   8.516   9.695   8.072
13944WAT     H142074   8.457   9.697   7.991
13944WAT     H242075   8.469   9.647   8.146
13945WAT      O42076   8.497   9.256   0.300
13945WAT     H142077   8.520   9.261   0.397
13945WAT     H242078   8.490   9.349   0.263
13946WAT      O42079   8.282   2.406   4.983
13946WAT     H142080   8.335   2.423   4.900
13946WAT     H242081   8.300   2.313   5.015
13947WAT      O42082   6.698   4.635   3.470
13947WAT     H142083   6.768   4.596   3.411
13947WAT     H242084   6.696   4.734   3.459
13948WAT      O42085   7.163   6.597   8.643
13948WAT     H142086   7.090   6.633   8.702
13948WAT     H242087   7.147   6.500   8.627
13949WAT      O42088   4.945   6.462   7.316
13949WAT     H142089   4.879   6.534   7.292
13949WAT     H242090   5.037   6.492   7.291
13950WAT      O42091   0.067   3.299   6.213
13950WAT     H142092   0.089   3.369   6.144
13950WAT     H242093   0.116   3.320   6.297
13951WAT      O42094   4.156   1.355   3.961
13951WAT     H142095   4.210   1.328   4.041
13951WAT     H242096   4.058   1.348   3.983
13952WAT      O42097   5.189   0.559   1.761
13952WAT     H142098   5.131   0.514   1.829
13952WAT     H242099   5.279   0.577   1.801
13953WAT      O42100   1.179   7.373   2.771
13953WAT     H142101   1.136   7.420   2.849
13953WAT     H242102   1.273   7.348   2.795
13954WAT      O42103   2.937   0.198   1.986
13954WAT     H142104   2.952   0.167   2.080
13954WAT     H242105   3.021   0.240   1.951
13955WAT      O42106   5.745   3.516   8.197
13955WAT     H142107   5.719   3.604   8.238
13955WAT     H242108   5.783   3.532   8.106
13956WAT      O42109   2.563   1.831   0.696
13956WAT     H142110   2.504   1.842   0.777
13956WAT     H242111   2.652   1.873   0.714
13957WAT      O42112   6.749   9.554   6.142
13957WAT     H142113   6.828   9.568   6.201
13957WAT     H242114   6.702   9.469   6.169
13958WAT      O42115   7.664   1.173   1.342
13958WAT     H142116   7.704   1.238   1.278
13958WAT     H242117   7.569   1.198   1.361
13959WAT      O42118   1.900   2.830   1.864
13959WAT     H142119   1.843   2.851   1.785
13959WAT     H242120   1.841   2.817   1.945
13960WAT      O42121   2.765   4.668   4.999
13960WAT     H142122   2.770   4.660   4.900
13960WAT     H242123   2.787   4.579   5.041
13961WAT      O42124   3.590   6.863   2.214
13961WAT     H142125   3.597   6.935   2.282
13961WAT     H242126   3.663   6.796   2.230
13962WAT      O42127   5.927   3.439   7.471
13962WAT     H142128   5.840   3.486   7.482
13962WAT     H242129   5.955   3.442   7.375
13963WAT      O42130   9.166   5.480   6.844
13963WAT     H142131   9.158   5.383   6.822
13963WAT     H242132   9.103   5.503   6.918
13964WAT      O42133   4.943   7.251   9.265
13964WAT     H142134   4.929   7.259   9.166
13964WAT     H242135   4.855   7.232   9.310
13965WAT      O42136   3.018   7.140   1.486
13965WAT     H142137   2.931   7.090   1.486
13965WAT     H242138   3.008   7.225   1.538
13966WAT      O42139   7.716   5.543   7.802
13966WAT     H142140   7.745   5.602   7.878
13966WAT     H242141   7.626   5.573   7.769
13967WAT      O42142   2.740   0.217   8.647
13967WAT     H142143   2.709   0.252   8.559
13967WAT     H242144   2.670   0.232   8.716
13968WAT      O42145   4.937   7.336   3.572
13968WAT     H142146   4.859   7.295   3.620
13968WAT     H242147   4.983   7.401   3.633
13969WAT      O42148   8.998   6.661   7.239
13969WAT     H142149   9.028   6.708   7.157
13969WAT     H242150   8.935   6.721   7.290
13970WAT      O42151   3.601   4.306   2.232
13970WAT     H142152   3.557   4.274   2.148
13970WAT     H242153   3.568   4.252   2.310
13971WAT      O42154   9.794   6.454   0.826
13971WAT     H142155   9.802   6.545   0.868
13971WAT     H242156   9.886   6.421   0.802
13972WAT      O42157   1.994   7.080   6.844
13972WAT     H142158   2.041   7.160   6.808
13972WAT     H242159   1.979   7.091   6.943
13973WAT      O42160   2.899   7.809   6.142
13973WAT     H142161   2.806   7.819   6.107
13973WAT     H242162   2.919   7.884   6.205
13974WAT      O42163   1.570   6.050   6.088
13974WAT     H142164   1.556   5.955   6.114
13974WAT     H242165   1.536   6.110   6.160
13975WAT      O42166   5.483   8.951   4.831
13975WAT     H142167   5.471   8.855   4.858
13975WAT     H242168   5.560   8.958   4.768
13976WAT      O42169   8.447   5.750   7.329
13976WAT     H142170   8.367   5.809   7.317
13976WAT     H242171   8.427   5.681   7.399
13977WAT      O42172   2.295   7.291   0.011
13977WAT     H142173   2.330   7.374   0.055
13977WAT     H242174   2.359   7.262  -0.060
13978WAT      O42175   3.172   6.675   3.552
13978WAT     H142176   3.120   6.642   3.473
13978WAT     H242177   3.145   6.624   3.634
13979WAT      O42178   8.024   6.814   7.834
13979WAT     H142179   7.999   6.752   7.908
13979WAT     H242180   7.955   6.885   7.825
13980WAT      O42181   0.710   3.506   0.789
13980WAT     H142182   0.637   3.487   0.856
13980WAT     H242183   0.741   3.421   0.748
13981WAT      O42184   7.798   5.609   2.367
13981WAT     H142185   7.798   5.516   2.330
13981WAT     H242186   7.733   5.614   2.442
13982WAT      O42187   6.724   6.626   2.338
13982WAT     H142188   6.682   6.708   2.377
13982WAT     H242189   6.807   6.651   2.289
13983WAT      O42190   8.382   5.393   0.912
13983WAT     H142191   8.415   5.321   0.973
13983WAT     H242192   8.306   5.440   0.955
13984WAT      O42193   8.998   4.839   2.233
13984WAT     H142194   9.011   4.907   2.160
13984WAT     H242195   9.069   4.769   2.226
13985WAT      O42196   9.621   7.106   6.991
13985WAT     H142197   9.595   7.047   7.067
13985WAT     H242198   9.539   7.145   6.950
13986WAT      O42199   7.253   7.182   8.023
13986WAT     H142200   7.262   7.150   8.118
13986WAT     H242201   7.158   7.172   7.994
13987WAT      O42202   9.098   7.425   2.148
13987WAT     H142203   9.065   7.446   2.239
13987WAT     H242204   9.197   7.409   2.151
13988WAT      O42205   2.707   2.556   1.269
13988WAT     H142206   2.723   2.581   1.173
13988WAT     H242207   2.794   2.555   1.318
13989WAT      O42208   5.445   1.437   6.212
13989WAT     H142209   5.442   1.410   6.308
13989WAT     H242210   5.532   1.406   6.172
13990WAT      O42211   8.294   0.119   9.789
13990WAT     H142212   8.221   0.175   9.827
13990WAT     H242213   8.289   0.027   9.828
13991WAT      O42214   0.189   0.032   3.033
13991WAT     H142215   0.137  -0.041   3.079
13991WAT     H242216   0.126   0.099   2.994
13992WAT      O42217   4.772   5.745   2.850
13992WAT     H142218   4.858   5.794   2.869
13992WAT     H242219   4.765   5.727   2.752
13993WAT      O42220   0.918   7.455   7.391
13993WAT     H142221   0.975   7.399   7.331
13993WAT     H242222   0.961   7.544   7.403
13994WAT      O42223   4.811   7.311   6.712
13994WAT     H142224   4.822   7.254   6.630
13994WAT     H242225   4.892   7.301   6.770
13995WAT      O42226   5.868   7.443   3.461
13995WAT     H142227   5.959   7.424   3.497
13995WAT     H242228   5.810   7.479   3.535
13996WAT      O42229   4.158   6.100   3.013
13996WAT     H142230   4.155   6.007   3.049
13996WAT     H242231   4.199   6.161   3.081
13997WAT      O42232   1.072   2.555   6.689
13997WAT     H142233   0.989   2.610   6.697
13997WAT     H242234   1.052   2.460   6.712
13998WAT      O42235   1.660   5.407   5.308
13998WAT     H142236   1.675   5.473   5.235
13998WAT     H242237   1.576   5.356   5.290
13999WAT      O42238   6.005   3.419   6.384
13999WAT     H142239   6.028   3.349   6.452
13999WAT     H242240   5.932   3.386   6.326
14000WAT      O42241   2.366   4.687   3.068
14000WAT     H142242   2.449   4.643   3.101
14000WAT     H242243   2.331   4.635   2.989
14001WAT      O42244   3.292   4.708   3.096
14001WAT     H142245   3.381   4.753   3.110
14001WAT     H242246   3.303   4.632   3.033
14002WAT      O42247   7.792   3.947   5.576
14002WAT     H142248   7.694   3.963   5.587
14002WAT     H242249   7.829   3.907   5.660
14003WAT      O42250   4.689   2.859   7.239
14003WAT     H142251   4.769   2.918   7.250
14003WAT     H242252   4.711   2.786   7.175
14004WAT      O42253   2.939   8.052   5.358
14004WAT     H142254   3.017   8.098   5.316
14004WAT     H242255   2.939   8.070   5.457
14005WAT      O42256   7.180   0.820   6.393
14005WAT     H142257   7.221   0.729   6.395
14005WAT     H242258   7.111   0.826   6.464
14006WAT      O42259   2.107   2.045   6.196
14006WAT     H142260   2.097   1.963   6.253
14006WAT     H242261   2.086   2.126   6.249
14007WAT      O42262   4.843   5.361   1.344
14007WAT     H142263   4.827   5.404   1.433
14007WAT     H242264   4.941   5.350   1.329
14008WAT      O42265   9.110   2.452   1.461
14008WAT     H142266   9.035   2.444   1.395
14008WAT     H242267   9.073   2.471   1.551
14009WAT      O42268   5.727   8.384   3.650
14009WAT     H142269   5.791   8.342   3.714
14009WAT     H242270   5.646   8.417   3.700
14010WAT      O42271   0.435   4.578   5.979
14010WAT     H142272   0.398   4.640   5.910
14010WAT     H242273   0.390   4.489   5.970
14011WAT      O42274   1.761   9.641   5.905
14011WAT     H142275   1.808   9.589   5.976
14011WAT     H242276   1.668   9.661   5.934
14012WAT      O42277   5.526   8.299   5.277
14012WAT     H142278   5.545   8.244   5.196
14012WAT     H242279   5.523   8.240   5.358
14013WAT      O42280   2.736   5.841   7.127
14013WAT     H142281   2.813   5.802   7.076
14013WAT     H242282   2.759   5.934   7.157
14014WAT      O42283   7.166   5.292   0.476
14014WAT     H142284   7.162   5.229   0.398
14014WAT     H242285   7.212   5.247   0.552
14015WAT      O42286   2.335   9.442   3.793
14015WAT     H142287   2.371   9.464   3.702
14015WAT     H242288   2.271   9.366   3.786
14016WAT      O42289   3.320   4.452   0.199
14016WAT     H142290   3.366   4.522   0.254
14016WAT     H242291   3.222   4.452   0.219
14017WAT      O42292   9.851   9.110   2.760
14017WAT     H142293   9.883   9.127   2.667
14017WAT     H242294   9.907   9.039   2.803
14018WAT      O42295   3.449   5.960   6.391
14018WAT     H142296   3.446   5.889   6.461
14018WAT     H242297   3.411   5.924   6.306
14019WAT      O42298   4.381   9.323   9.535
14019WAT     H142299   4.321   9.398   9.508
14019WAT     H242300   4.325   9.243   9.558
14020WAT      O42301   5.974   0.948   1.747
14020WAT     H142302   5.894   0.914   1.697
14020WAT     H242303   5.955   1.041   1.779
14021WAT      O42304   4.708   0.823   8.207
14021WAT     H142305   4.759   0.803   8.123
14021WAT     H242306   4.756   0.786   8.286
14022WAT      O42307   8.754   3.496   9.755
14022WAT     H142308   8.849   3.523   9.772
14022WAT     H242309   8.706   3.491   9.842
14023WAT      O42310   8.171   8.193   7.819
14023WAT     H142311   8.092   8.236   7.775
14023WAT     H242312   8.145   8.101   7.850
14024WAT      O42313   4.622   0.059   4.622
14024WAT     H142314   4.585   0.083   4.532
14024WAT     H242315   4.642  -0.039   4.625
14025WAT      O42316   7.623   1.835   9.311
14025WAT     H142317   7.639   1.933   9.324
14025WAT     H242318   7.590   1.795   9.396
14026WAT      O42319   8.073   7.297   3.673
14026WAT     H142320   8.009   7.316   3.599
14026WAT     H242321   8.166   7.297   3.637
14027WAT      O42322   0.638   8.458   5.159
14027WAT     H142323   0.574   8.463   5.082
14027WAT     H242324   0.718   8.403   5.133
14028WAT      O42325   2.570   6.993   6.569
14028WAT     H142326   2.575   6.971   6.666
14028WAT     H242327   2.576   7.092   6.557
14029WAT      O42328   9.474   6.415   5.955
14029WAT     H142329   9.548   6.380   6.013
14029WAT     H242330   9.485   6.379   5.862
14030WAT      O42331   3.329   4.863   1.075
14030WAT     H142332   3.333   4.893   1.171
14030WAT     H242333   3.284   4.774   1.070
14031WAT      O42334   7.009   9.592   3.972
14031WAT     H142335   7.087   9.649   3.947
14031WAT     H242336   6.961   9.634   4.049
14032WAT      O42337   0.825   0.541   2.110
14032WAT     H142338   0.782   0.573   2.194
14032WAT     H242339   0.837   0.618   2.047
14033WAT      O42340   3.539   0.431   5.232
14033WAT     H142341   3.471   0.373   5.187
14033WAT     H242342   3.526   0.526   5.205
14034WAT      O42343   9.183   6.424   9.658
14034WAT     H142344   9.167   6.470   9.570
14034WAT     H242345   9.278   6.437   9.685
14035WAT      O42346   1.066   5.417   1.110
14035WAT     H142347   1.164   5.398   1.098
14035WAT     H242348   1.054   5.490   1.177
14036WAT      O42349   2.155   3.832   4.423
14036WAT     H142350   2.117   3.746   4.390
14036WAT     H242351   2.236   3.856   4.368
14037WAT      O42352   5.826   3.190   2.909
14037WAT     H142353   5.854   3.268   2.965
14037WAT     H242354   5.899   3.121   2.910
14038WAT      O42355   3.694   8.602   7.777
14038WAT     H142356   3.641   8.535   7.724
14038WAT     H242357   3.664   8.694   7.753
14039WAT      O42358   1.092   8.070   6.673
14039WAT     H142359   1.112   8.004   6.746
14039WAT     H242360   1.051   8.023   6.595
14040WAT      O42361   5.087   5.029   9.860
14040WAT     H142362   5.019   4.997   9.926
14040WAT     H242363   5.130   4.951   9.816
14041WAT      O42364   9.071   6.488   0.459
14041WAT     H142365   8.979   6.521   0.441
14041WAT     H242366   9.074   6.389   0.446
14042WAT      O42367   9.063   1.356   0.204
14042WAT     H142368   9.031   1.447   0.232
14042WAT     H242369   9.161   1.360   0.185
14043WAT      O42370   9.066   9.183   1.095
14043WAT     H142371   9.140   9.204   1.030
14043WAT     H242372   9.103   9.181   1.188
14044WAT      O42373   8.152   8.079   2.281
14044WAT     H142374   8.245   8.069   2.243
14044WAT     H242375   8.154   8.146   2.355
14045WAT      O42376   1.472   1.072   7.174
14045WAT     H142377   1.489   0.978   7.143
14045WAT     H242378   1.374   1.087   7.183
14046WAT      O42379   1.645   0.528   0.474
14046WAT     H142380   1.683   0.540   0.382
14046WAT     H242381   1.657   0.613   0.526
14047WAT      O42382   4.409   8.804   3.849
14047WAT     H142383   4.365   8.755   3.773
14047WAT     H242384   4.381   8.900   3.847
14048WAT      O42385   5.807   9.024   6.015
14048WAT     H142386   5.777   8.951   6.077
14048WAT     H242387   5.752   9.021   5.932
14049WAT      O42388   4.368   0.819   9.696
14049WAT     H142389   4.458   0.778   9.709
14049WAT     H242390   4.341   0.870   9.778
14050WAT      O42391   9.816   1.576   1.252
14050WAT     H142392   9.841   1.641   1.180
14050WAT     H242393   9.765   1.624   1.323
14051WAT      O42394   1.525   5.549   0.655
14051WAT     H142395   1.429   5.564   0.631
14051WAT     H242396   1.549   5.453   0.637
14052WAT      O42397   9.540   7.839   3.625
14052WAT     H142398   9.464   7.810   3.683
14052WAT     H242399   9.510   7.912   3.564
14053WAT      O42400   8.363   5.414   9.443
14053WAT     H142401   8.270   5.416   9.407
14053WAT     H242402   8.416   5.488   9.403
14054WAT      O42403   7.933   4.499   9.190
14054WAT     H142404   7.977   4.425   9.140
14054WAT     H242405   7.847   4.466   9.229
14055WAT      O42406   1.101   6.298   9.869
14055WAT     H142407   1.166   6.329   9.939
14055WAT     H242408   1.061   6.377   9.823
14056WAT      O42409   6.292   8.227   6.053
14056WAT     H142410   6.208   8.185   6.088
14056WAT     H242411   6.312   8.189   5.963
14057WAT      O42412   3.312   8.741   1.234
14057WAT     H142413   3.384   8.779   1.292
14057WAT     H242414   3.310   8.641   1.244
14058WAT      O42415   2.497   6.320   2.894
14058WAT     H142416   2.435   6.397   2.880
14058WAT     H242417   2.585   6.353   2.927
14059WAT      O42418   0.203   7.445   7.590
14059WAT     H142419   0.280   7.489   7.544
14059WAT     H242420   0.130   7.428   7.524
14060WAT      O42421   3.876   1.451   3.622
14060WAT     H142422   3.941   1.376   3.632
14060WAT     H242423   3.908   1.530   3.674
14061WAT      O42424   8.318   1.388   0.463
14061WAT     H142425   8.335   1.429   0.373
14061WAT     H242426   8.339   1.454   0.534
14062WAT      O42427   2.764   4.031   1.608
14062WAT     H142428   2.740   3.991   1.520
14062WAT     H242429   2.863   4.048   1.612
14063WAT      O42430   2.763   9.033   8.437
14063WAT     H142431   2.829   9.000   8.369
14063WAT     H242432   2.790   9.124   8.468
14064WAT      O42433   6.125   0.485   9.859
14064WAT     H142434   6.171   0.573   9.852
14064WAT     H242435   6.134   0.450   9.952
14065WAT      O42436   0.914   1.731   5.628
14065WAT     H142437   0.982   1.665   5.594
14065WAT     H242438   0.952   1.779   5.707
14066WAT      O42439   4.411   2.647   7.627
14066WAT     H142440   4.462   2.651   7.713
14066WAT     H242441   4.319   2.613   7.645
14067WAT      O42442   4.378   5.940   6.299
14067WAT     H142443   4.410   5.901   6.386
14067WAT     H242444   4.317   6.017   6.318
14068WAT      O42445   5.280   7.553   0.093
14068WAT     H142446   5.212   7.581   0.025
14068WAT     H242447   5.361   7.612   0.084
14069WAT      O42448   7.094   3.386   4.041
14069WAT     H142449   7.016   3.323   4.034
14069WAT     H242450   7.176   3.341   4.005
14070WAT      O42451   5.244   6.684   8.479
14070WAT     H142452   5.182   6.700   8.556
14070WAT     H242453   5.191   6.679   8.394
14071WAT      O42454   0.901   2.244   1.607
14071WAT     H142455   0.937   2.331   1.572
14071WAT     H242456   0.972   2.197   1.660
14072WAT      O42457   9.378   6.335   2.831
14072WAT     H142458   9.414   6.331   2.924
14072WAT     H242459   9.343   6.245   2.805
14073WAT      O42460   3.590   0.887   2.923
14073WAT     H142461   3.650   0.830   2.980
14073WAT     H242462   3.522   0.830   2.878
14074WAT      O42463   6.557   6.894   6.535
14074WAT     H142464   6.486   6.825   6.547
14074WAT     H242465   6.540   6.945   6.451
14075WAT      O42466   6.197   6.917   4.892
14075WAT     H142467   6.177   6.991   4.955
14075WAT     H242468   6.114   6.892   4.842
14076WAT      O42469   9.486   8.390   6.815
14076WAT     H142470   9.437   8.310   6.780
14076WAT     H242471   9.491   8.460   6.743
14077WAT      O42472   6.230   7.511   1.733
14077WAT     H142473   6.310   7.450   1.739
14077WAT     H242474   6.254   7.601   1.768
14078WAT      O42475   1.399   3.643   4.038
14078WAT     H142476   1.351   3.607   3.958
14078WAT     H242477   1.418   3.568   4.101
14079WAT      O42478   7.448   3.856   5.094
14079WAT     H142479   7.546   3.845   5.112
14079WAT     H242480   7.423   3.952   5.101
14080WAT      O42481   4.253   9.147   2.881
14080WAT     H142482   4.348   9.180   2.885
14080WAT     H242483   4.235   9.113   2.789
14081WAT      O42484   4.882   7.938   4.631
14081WAT     H142485   4.981   7.935   4.621
14081WAT     H242486   4.854   8.032   4.653
14082WAT      O42487   8.543   1.500   7.490
14082WAT     H142488   8.510   1.575   7.548
14082WAT     H242489   8.567   1.535   7.400
14083WAT      O42490   1.113   8.010   3.014
14083WAT     H142491   1.171   7.928   3.021
14083WAT     H242492   1.039   7.992   2.948
14084WAT      O42493   3.138   5.868   4.086
14084WAT     H142494   3.113   5.771   4.090
14084WAT     H242495   3.059   5.924   4.107
14085WAT      O42496   3.945   2.572   9.418
14085WAT     H142497   3.851   2.568   9.384
14085WAT     H242498   3.965   2.489   9.469
14086WAT      O42499   9.331   0.854   4.490
14086WAT     H142500   9.351   0.785   4.421
14086WAT     H242501   9.234   0.877   4.487
14087WAT      O42502   8.464   2.348   1.891
14087WAT     H142503   8.397   2.299   1.946
14087WAT     H242504   8.456   2.320   1.795
14088WAT      O42505   9.856   9.128   9.674
14088WAT     H142506   9.807   9.062   9.731
14088WAT     H242507   9.953   9.129   9.699
14089WAT      O42508   1.503   4.915   9.464
14089WAT     H142509   1.591   4.922   9.511
14089WAT     H242510   1.441   4.985   9.498
14090WAT      O42511   0.520   8.974   7.250
14090WAT     H142512   0.532   8.877   7.228
14090WAT     H242513   0.604   9.024   7.227
14091WAT      O42514   7.237   6.891   7.561
14091WAT     H142515   7.193   6.817   7.511
14091WAT     H242516   7.323   6.859   7.600
14092WAT      O42517   7.936   4.931   7.646
14092WAT     H142518   7.912   4.873   7.568
14092WAT     H242519   7.853   4.968   7.687
14093WAT      O42520   5.020   7.538   5.481
14093WAT     H142521   4.988   7.452   5.441
14093WAT     H242522   5.119   7.533   5.496
14094WAT      O42523   5.354   6.162   2.205
14094WAT     H142524   5.332   6.235   2.270
14094WAT     H242525   5.351   6.074   2.252
14095WAT      O42526   5.588   3.289   3.143
14095WAT     H142527   5.497   3.279   3.183
14095WAT     H242528   5.643   3.350   3.201
14096WAT      O42529   0.934   6.125   2.814
14096WAT     H142530   1.014   6.149   2.869
14096WAT     H242531   0.888   6.209   2.784
14097WAT      O42532   4.853   9.419   0.814
14097WAT     H142533   4.870   9.346   0.880
14097WAT     H242534   4.763   9.459   0.832
14098WAT      O42535   5.018   0.550   6.100
14098WAT     H142536   4.949   0.517   6.036
14098WAT     H242537   5.062   0.632   6.063
14099WAT      O42538   3.844   5.727   1.727
14099WAT     H142539   3.833   5.811   1.673
14099WAT     H242540   3.757   5.703   1.770
14100WAT      O42541   3.017   8.574   1.239
14100WAT     H142542   3.035   8.668   1.268
14100WAT     H242543   3.008   8.571   1.139
14101WAT      O42544   2.883   2.822   3.538
14101WAT     H142545   2.803   2.876   3.512
14101WAT     H242546   2.951   2.827   3.465
14102WAT      O42547   0.976   4.180   8.951
14102WAT     H142548   0.997   4.167   9.048
14102WAT     H242549   1.056   4.220   8.906
14103WAT      O42550   8.142   8.809   4.150
14103WAT     H142551   8.161   8.835   4.244
14103WAT     H242552   8.203   8.860   4.088
14104WAT      O42553   7.624   2.168   1.275
14104WAT     H142554   7.598   2.115   1.355
14104WAT     H242555   7.706   2.128   1.234
14105WAT      O42556   0.713   8.917   8.908
14105WAT     H142557   0.660   8.869   8.978
14105WAT     H242558   0.805   8.878   8.903
14106WAT      O42559   7.544   2.868   6.228
14106WAT     H142560   7.590   2.955   6.210
14106WAT     H242561   7.599   2.815   6.292
14107WAT      O42562   7.409   8.986   3.452
14107WAT     H142563   7.409   8.906   3.393
14107WAT     H242564   7.320   8.994   3.497
14108WAT      O42565   4.039   7.626   4.095
14108WAT     H142566   4.101   7.559   4.054
14108WAT     H242567   3.945   7.593   4.088
14109WAT      O42568   5.598   0.840   3.119
14109WAT     H142569   5.675   0.791   3.078
14109WAT     H242570   5.606   0.938   3.100
14110WAT      O42571   0.544   1.980   2.889
14110WAT     H142572   0.635   1.982   2.849
14110WAT     H242573   0.522   2.070   2.927
14111WAT      O42574   4.327   6.552   9.586
14111WAT     H142575   4.310   6.565   9.683
14111WAT     H242576   4.416   6.591   9.562
14112WAT      O42577   2.920   4.542   7.020
14112WAT     H142578   2.919   4.608   6.945
14112WAT     H242579   2.991   4.474   7.003
14113WAT      O42580   6.447   0.722   5.977
14113WAT     H142581   6.546   0.732   5.967
14113WAT     H242582   6.412   0.662   5.906
14114WAT      O42583   6.488   7.128   6.669
14114WAT     H142584   6.479   7.037   6.628
14114WAT     H242585   6.462   7.124   6.766
14115WAT      O42586   0.534   4.268   8.353
14115WAT     H142587   0.457   4.290   8.293
14115WAT     H242588   0.505   4.278   8.449
14116WAT      O42589   0.027   7.160   0.637
14116WAT     H142590   0.118   7.130   0.664
14116WAT     H242591  -0.035   7.082   0.635
14117WAT      O42592   2.679   9.001   0.051
14117WAT     H142593   2.687   8.901   0.053
14117WAT     H242594   2.679   9.033  -0.044
14118WAT      O42595   7.974   7.360   2.118
14118WAT     H142596   7.995   7.266   2.144
14118WAT     H242597   7.877   7.377   2.133
14119WAT      O42598   0.080   1.255   5.346
14119WAT     H142599   0.153   1.283   5.408
14119WAT     H242600   0.118   1.207   5.268
14120WAT      O42601   1.579   7.235   9.452
14120WAT     H142602   1.522   7.288   9.390
14120WAT     H242603   1.653   7.293   9.487
14121WAT      O42604   1.677   1.684   7.729
14121WAT     H142605   1.644   1.651   7.817
14121WAT     H242606   1.726   1.611   7.681
14122WAT      O42607   5.719   6.622   0.781
14122WAT     H142608   5.767   6.616   0.693
14122WAT     H242609   5.648   6.692   0.775
14123WAT      O42610   2.560   5.033   8.089
14123WAT     H142611   2.507   5.107   8.048
14123WAT     H242612   2.649   5.068   8.118
14124WAT      O42613   4.303   0.849   7.476
14124WAT     H142614   4.250   0.896   7.547
14124WAT     H242615   4.396   0.833   7.509
14125WAT      O42616   6.654   9.003   1.095
14125WAT     H142617   6.666   9.000   1.194
14125WAT     H242618   6.741   9.026   1.051
14126WAT      O42619   5.275   8.427   5.343
14126WAT     H142620   5.266   8.386   5.434
14126WAT     H242621   5.372   8.433   5.319
14127WAT      O42622   7.149   6.085   1.831
14127WAT     H142623   7.099   6.041   1.756
14127WAT     H242624   7.085   6.139   1.885
14128WAT      O42625   1.862   1.978   7.310
14128WAT     H142626   1.943   1.980   7.367
14128WAT     H242627   1.781   2.002   7.365
14129WAT      O42628   1.397   1.202   8.742
14129WAT     H142629   1.436   1.119   8.784
14129WAT     H242630   1.299   1.189   8.729
14130WAT      O42631   6.647   3.883   4.399
14130WAT     H142632   6.632   3.919   4.307
14130WAT     H242633   6.614   3.789   4.404
14131WAT      O42634   4.527   3.844   4.562
14131WAT     H142635   4.602   3.861   4.499
14131WAT     H242636   4.549   3.885   4.651
14132WAT      O42637   1.389   2.372   4.036
14132WAT     H142638   1.358   2.416   3.951
14132WAT     H242639   1.324   2.391   4.109
14133WAT      O42640   8.671   9.205   9.414
14133WAT     H142641   8.740   9.251   9.469
14133WAT     H242642   8.680   9.106   9.425
14134WAT      O42643   4.713   8.189   4.007
14134WAT     H142644   4.651   8.256   4.048
14134WAT     H242645   4.806   8.226   4.007
14135WAT      O42646   5.810   5.758   1.943
14135WAT     H142647   5.869   5.748   2.023
14135WAT     H242648   5.866   5.748   1.860
14136WAT      O42649   6.374   4.771   6.117
14136WAT     H142650   6.330   4.682   6.120
14136WAT     H242651   6.304   4.842   6.107
14137WAT      O42652   4.245   3.454   3.089
14137WAT     H142653   4.237   3.354   3.091
14137WAT     H242654   4.233   3.486   2.995
14138WAT      O42655   2.600   5.963   1.882
14138WAT     H142656   2.592   6.059   1.857
14138WAT     H242657   2.521   5.936   1.938
14139WAT      O42658   7.736   4.682   2.110
14139WAT     H142659   7.761   4.588   2.084
14139WAT     H242660   7.780   4.746   2.047
14140WAT      O42661   2.566   9.624   3.641
14140WAT     H142662   2.525   9.561   3.576
14140WAT     H242663   2.666   9.622   3.630
14141WAT      O42664   8.030   8.267   4.251
14141WAT     H142665   8.119   8.314   4.253
14141WAT     H242666   8.028   8.197   4.322
14142WAT      O42667   9.046   2.612   0.877
14142WAT     H142668   9.139   2.638   0.903
14142WAT     H242669   9.046   2.579   0.782
14143WAT      O42670   7.557   1.561   3.138
14143WAT     H142671   7.532   1.657   3.127
14143WAT     H242672   7.474   1.505   3.136
14144WAT      O42673   0.252   0.399   1.086
14144WAT     H142674   0.191   0.354   1.021
14144WAT     H242675   0.235   0.498   1.084
14145WAT      O42676   9.491   0.840   0.375
14145WAT     H142677   9.467   0.761   0.433
14145WAT     H242678   9.558   0.897   0.422
14146WAT      O42679   4.095   7.818   5.291
14146WAT     H142680   4.018   7.866   5.333
14146WAT     H242681   4.181   7.852   5.331
14147WAT      O42682   4.402   8.272   3.997
14147WAT     H142683   4.363   8.190   4.038
14147WAT     H242684   4.371   8.280   3.902
14148WAT      O42685   0.272   8.314   6.322
14148WAT     H142686   0.225   8.239   6.276
14148WAT     H242687   0.355   8.279   6.366
14149WAT      O42688   5.399   7.394   3.623
14149WAT     H142689   5.379   7.435   3.712
14149WAT     H242690   5.338   7.315   3.609
14150WAT      O42691   4.076   7.353   2.750
14150WAT     H142692   4.098   7.262   2.786
14150WAT     H242693   4.081   7.420   2.824
14151WAT      O42694   8.146   8.979   6.440
14151WAT     H142695   8.128   9.066   6.394
14151WAT     H242696   8.171   8.995   6.535
14152WAT      O42697   9.081   7.426   7.353
14152WAT     H142698   9.159   7.444   7.293
14152WAT     H242699   9.098   7.467   7.443
14153WAT      O42700   7.129   6.248   2.672
14153WAT     H142701   7.127   6.193   2.756
14153WAT     H242702   7.223   6.255   2.640
14154WAT      O42703   4.948   6.517   0.045
14154WAT     H142704   4.905   6.603   0.073
14154WAT     H242705   4.899   6.478  -0.032
14155WAT      O42706   3.313   5.432   0.858
14155WAT     H142707   3.339   5.523   0.824
14155WAT     H242708   3.281   5.440   0.953
14156WAT      O42709   7.128   1.456   6.013
14156WAT     H142710   7.204   1.447   5.948
14156WAT     H242711   7.092   1.365   6.034
14157WAT      O42712   7.772   7.813   0.303
14157WAT     H142713   7.871   7.818   0.319
14157WAT     H242714   7.753   7.836   0.208
14158WAT      O42715   0.594   6.595   7.942
14158WAT     H142716   0.688   6.624   7.958
14158WAT     H242717   0.550   6.572   8.029
14159WAT      O42718   7.764   0.711   7.713
14159WAT     H142719   7.809   0.800   7.706
14159WAT     H242720   7.698   0.700   7.639
14160WAT      O42721   8.394   7.538   4.932
14160WAT     H142722   8.402   7.443   4.900
14160WAT     H242723   8.485   7.577   4.942
14161WAT      O42724   2.630   2.757   7.663
14161WAT     H142725   2.591   2.731   7.751
14161WAT     H242726   2.691   2.836   7.675
14162WAT      O42727   6.517   4.102   3.852
14162WAT     H142728   6.482   4.039   3.781
14162WAT     H242729   6.606   4.070   3.883
14163WAT      O42730   0.660   1.187   0.511
14163WAT     H142731   0.657   1.274   0.560
14163WAT     H242732   0.710   1.199   0.425
14164WAT      O42733   5.074   2.768   7.753
14164WAT     H142734   5.124   2.807   7.675
14164WAT     H242735   4.997   2.827   7.777
14165WAT      O42736   9.360   6.462   5.046
14165WAT     H142737   9.428   6.399   5.007
14165WAT     H242738   9.387   6.486   5.139
14166WAT      O42739   5.677   6.334   6.202
14166WAT     H142740   5.662   6.341   6.103
14166WAT     H242741   5.615   6.395   6.250
14167WAT      O42742   9.433   3.917   7.745
14167WAT     H142743   9.458   3.891   7.838
14167WAT     H242744   9.502   3.978   7.707
14168WAT      O42745   4.439   6.775   9.256
14168WAT     H142746   4.460   6.692   9.309
14168WAT     H242747   4.343   6.771   9.226
14169WAT      O42748   5.134   8.588   8.936
14169WAT     H142749   5.052   8.532   8.922
14169WAT     H242750   5.214   8.529   8.945
14170WAT      O42751   8.078   6.655   7.074
14170WAT     H142752   8.177   6.661   7.059
14170WAT     H242753   8.031   6.680   6.989
14171WAT      O42754   1.196   2.728   8.411
14171WAT     H142755   1.105   2.691   8.393
14171WAT     H242756   1.264   2.656   8.399
14172WAT      O42757   4.769   5.323   2.353
14172WAT     H142758   4.831   5.307   2.277
14172WAT     H242759   4.789   5.259   2.427
14173WAT      O42760   2.850   5.643   2.031
14173WAT     H142761   2.834   5.548   2.004
14173WAT     H242762   2.770   5.676   2.082
14174WAT      O42763   0.828   7.431   8.543
14174WAT     H142764   0.832   7.490   8.463
14174WAT     H242765   0.732   7.406   8.562
14175WAT      O42766   7.331   4.346   7.077
14175WAT     H142767   7.395   4.366   7.151
14175WAT     H242768   7.269   4.424   7.064
14176WAT      O42769   8.727   4.567   1.183
14176WAT     H142770   8.800   4.517   1.231
14176WAT     H242771   8.643   4.563   1.237
14177WAT      O42772   8.562   6.189   5.000
14177WAT     H142773   8.541   6.093   4.981
14177WAT     H242774   8.485   6.246   4.972
14178WAT      O42775   9.194   8.709   5.270
14178WAT     H142776   9.206   8.755   5.358
14178WAT     H242777   9.251   8.754   5.201
14179WAT      O42778   1.983   7.688   7.852
14179WAT     H142779   1.939   7.615   7.799
14179WAT     H242780   1.994   7.659   7.947
14180WAT      O42781   0.278   7.099   5.386
14180WAT     H142782   0.335   7.096   5.468
14180WAT     H242783   0.247   7.193   5.370
14181WAT      O42784   9.322   7.201   0.028
14181WAT     H142785   9.250   7.137   0.054
14181WAT     H242786   9.310   7.228  -0.068
14182WAT      O42787   4.048   6.166   0.772
14182WAT     H142788   4.098   6.079   0.772
14182WAT     H242789   4.093   6.230   0.834
14183WAT      O42790   3.346   7.347   4.693
14183WAT     H142791   3.343   7.328   4.791
14183WAT     H242792   3.423   7.408   4.674
14184WAT      O42793   3.269   2.749   6.750
14184WAT     H142794   3.217   2.751   6.835
14184WAT     H242795   3.356   2.703   6.765
14185WAT      O42796   7.906   7.799   6.454
14185WAT     H142797   7.992   7.792   6.404
14185WAT     H242798   7.909   7.741   6.535
14186WAT      O42799   9.284   9.597   4.461
14186WAT     H142800   9.201   9.650   4.442
14186WAT     H242801   9.364   9.650   4.435
14187WAT      O42802   7.377   3.390   7.720
14187WAT     H142803   7.281   3.403   7.695
14187WAT     H242804   7.411   3.306   7.678
14188WAT      O42805   3.806   2.326   7.016
14188WAT     H142806   3.852   2.412   6.992
14188WAT     H242807   3.832   2.300   7.109
14189WAT      O42808   7.280   8.417   6.927
14189WAT     H142809   7.193   8.461   6.946
14189WAT     H242810   7.266   8.337   6.869
14190WAT      O42811   3.169   0.675   0.246
14190WAT     H142812   3.219   0.589   0.235
14190WAT     H242813   3.211   0.745   0.189
14191WAT      O42814   6.937   8.945   0.318
14191WAT     H142815   7.015   9.006   0.330
14191WAT     H242816   6.969   8.854   0.295
14192WAT      O42817   9.753   9.562   3.652
14192WAT     H142818   9.849   9.588   3.640
14192WAT     H242819   9.734   9.549   3.749
14193WAT      O42820   2.781   4.551   0.482
14193WAT     H142821   2.811   4.456   0.490
14193WAT     H242822   2.790   4.581   0.387
14194WAT      O42823   6.392   3.905   1.856
14194WAT     H142824   6.381   3.814   1.895
14194WAT     H242825   6.474   3.907   1.799
14195WAT      O42826   3.663   3.416   0.408
14195WAT     H142827   3.637   3.412   0.504
14195WAT     H242828   3.652   3.325   0.366
14196WAT      O42829   4.413   1.630   3.491
14196WAT     H142830   4.343   1.561   3.474
14196WAT     H242831   4.498   1.585   3.517
14197WAT      O42832   9.410   1.373   0.353
14197WAT     H142833   9.436   1.362   0.257
14197WAT     H242834   9.353   1.455   0.363
14198WAT      O42835   2.655   9.618   2.891
14198WAT     H142836   2.589   9.683   2.928
14198WAT     H242837   2.742   9.627   2.939
14199WAT      O42838   4.061   5.920   1.050
14199WAT     H142839   4.023   6.012   1.053
14199WAT     H242840   4.153   5.923   1.011
14200WAT      O42841   3.729   8.196   3.217
14200WAT     H142842   3.826   8.172   3.215
14200WAT     H242843   3.696   8.205   3.123
14201WAT      O42844   8.082   1.634   2.529
14201WAT     H142845   8.060   1.553   2.473
14201WAT     H242846   8.152   1.610   2.596
14202WAT      O42847   4.483   1.950   1.042
14202WAT     H142848   4.530   1.929   1.128
14202WAT     H242849   4.529   2.028   0.998
14203WAT      O42850   5.164   0.122   9.360
14203WAT     H142851   5.110   0.045   9.326
14203WAT     H242852   5.177   0.114   9.459
14204WAT      O42853   0.657   7.716   3.506
14204WAT     H142854   0.585   7.783   3.489
14204WAT     H242855   0.733   7.761   3.552
14205WAT      O42856   1.385   7.074   6.317
14205WAT     H142857   1.306   7.013   6.303
14205WAT     H242858   1.370   7.160   6.269
14206WAT      O42859   5.702   4.229   8.963
14206WAT     H142860   5.731   4.246   8.868
14206WAT     H242861   5.775   4.257   9.025
14207WAT      O42862   8.263   6.293   0.841
14207WAT     H142863   8.319   6.366   0.878
14207WAT     H242864   8.184   6.332   0.793
14208WAT      O42865   7.104   0.368   8.752
14208WAT     H142866   7.039   0.321   8.812
14208WAT     H242867   7.173   0.414   8.808
14209WAT      O42868   9.374   7.437   2.200
14209WAT     H142869   9.450   7.501   2.204
14209WAT     H242870   9.363   7.392   2.289
14210WAT      O42871   6.249   1.812   7.900
14210WAT     H142872   6.228   1.908   7.918
14210WAT     H242873   6.168   1.767   7.862
14211WAT      O42874   9.567   2.284   5.185
14211WAT     H142875   9.488   2.302   5.244
14211WAT     H242876   9.634   2.229   5.235
14212WAT      O42877   8.481   4.412   6.550
14212WAT     H142878   8.561   4.419   6.490
14212WAT     H242879   8.428   4.331   6.525
14213WAT      O42880   7.582   6.755   2.507
14213WAT     H142881   7.627   6.667   2.493
14213WAT     H242882   7.528   6.778   2.426
14214WAT      O42883   4.608   2.826   5.714
14214WAT     H142884   4.671   2.890   5.758
14214WAT     H242885   4.651   2.786   5.634
14215WAT      O42886   8.956   6.044   3.904
14215WAT     H142887   8.858   6.066   3.905
14215WAT     H242888   8.995   6.063   3.994
14216WAT      O42889   4.697   8.427   2.300
14216WAT     H142890   4.795   8.407   2.312
14216WAT     H242891   4.685   8.524   2.280
14217WAT      O42892   4.870   2.535   1.729
14217WAT     H142893   4.886   2.499   1.637
14217WAT     H242894   4.775   2.519   1.755
14218WAT      O42895   0.701   8.523   6.303
14218WAT     H142896   0.646   8.586   6.249
14218WAT     H242897   0.648   8.491   6.382
14219WAT      O42898   0.580   8.116   2.716
14219WAT     H142899   0.550   8.182   2.785
14219WAT     H242900   0.662   8.150   2.670
14220WAT      O42901   0.301   4.289   8.875
14220WAT     H142902   0.356   4.317   8.953
14220WAT     H242903   0.242   4.213   8.901
14221WAT      O42904   4.431   7.747   7.141
14221WAT     H142905   4.472   7.829   7.102
14221WAT     H242906   4.332   7.753   7.135
14222WAT      O42907   5.012   2.000   0.915
14222WAT     H142908   5.057   1.972   0.830
14222WAT     H242909   4.943   1.933   0.940
14223WAT      O42910   1.217   4.432   9.800
14223WAT     H142911   1.182   4.417   9.893
14223WAT     H242912   1.267   4.518   9.797
14224WAT      O42913   0.281   0.162   3.253
14224WAT     H142914   0.252   0.121   3.167
14224WAT     H242915   0.381   0.156   3.261
14225WAT      O42916   1.501   5.426   3.658
14225WAT     H142917   1.558   5.438   3.577
14225WAT     H242918   1.462   5.334   3.659
14226WAT      O42919   1.628   4.317   3.866
14226WAT     H142920   1.607   4.237   3.922
14226WAT     H242921   1.641   4.397   3.925
14227WAT      O42922   3.637   9.022   2.534
14227WAT     H142923   3.573   9.080   2.483
14227WAT     H242924   3.705   9.079   2.579
14228WAT      O42925   0.885   4.135   1.278
14228WAT     H142926   0.796   4.102   1.246
14228WAT     H242927   0.898   4.109   1.373
14229WAT      O42928   0.122   2.333   9.149
14229WAT     H142929   0.069   2.417   9.160
14229WAT     H242930   0.072   2.256   9.188
14230WAT      O42931   5.256   6.419   5.567
14230WAT     H142932   5.336   6.383   5.519
14230WAT     H242933   5.216   6.493   5.513
14231WAT      O42934   8.326   3.975   2.905
14231WAT     H142935   8.367   3.892   2.941
14231WAT     H242936   8.230   3.980   2.933
14232WAT      O42937   6.430   3.560   3.032
14232WAT     H142938   6.449   3.465   3.006
14232WAT     H242939   6.491   3.621   2.982
14233WAT      O42940   9.480   6.629   3.162
14233WAT     H142941   9.535   6.629   3.246
14233WAT     H242942   9.408   6.698   3.170
14234WAT      O42943   5.511   8.313   8.761
14234WAT     H142944   5.438   8.276   8.704
14234WAT     H242945   5.591   8.252   8.758
14235WAT      O42946   7.589   1.887   3.109
14235WAT     H142947   7.507   1.849   3.065
14235WAT     H242948   7.629   1.957   3.050
14236WAT      O42949   6.097   4.805   3.023
14236WAT     H142950   6.150   4.845   3.098
14236WAT     H242951   6.024   4.747   3.060
14237WAT      O42952   1.124   8.339   7.690
14237WAT     H142953   1.130   8.272   7.764
14237WAT     H242954   1.033   8.381   7.690
14238WAT      O42955   3.272   3.361   0.653
14238WAT     H142956   3.371   3.349   0.642
14238WAT     H242957   3.252   3.453   0.685
14239WAT      O42958   5.260   8.728   3.406
14239WAT     H142959   5.264   8.635   3.441
14239WAT     H242960   5.164   8.752   3.387
14240WAT      O42961   9.458   7.091   2.702
14240WAT     H142962   9.531   7.109   2.636
14240WAT     H242963   9.465   7.155   2.778
14241WAT      O42964   1.461   9.445   3.741
14241WAT     H142965   1.546   9.397   3.717
14241WAT     H242966   1.416   9.397   3.816
14242WAT      O42967   9.693   0.298   6.487
14242WAT     H142968   9.760   0.339   6.549
14242WAT     H242969   9.731   0.295   6.395
14243WAT      O42970   8.366   2.702   6.306
14243WAT     H142971   8.371   2.789   6.256
14243WAT     H242972   8.419   2.709   6.390
14244WAT      O42973   9.455   8.337   6.421
14244WAT     H142974   9.520   8.396   6.373
14244WAT     H242975   9.391   8.394   6.472
14245WAT      O42976   3.410   4.166   1.669
14245WAT     H142977   3.396   4.251   1.618
14245WAT     H242978   3.323   4.137   1.709
14246WAT      O42979   6.358   6.643   0.994
14246WAT     H142980   6.265   6.608   0.991
14246WAT     H242981   6.382   6.684   0.906
14247WAT      O42982   8.835   8.390   4.980
14247WAT     H142983   8.801   8.307   5.024
14247WAT     H242984   8.821   8.468   5.041
14248WAT      O42985   8.352   8.095   8.169
14248WAT     H142986   8.415   8.142   8.231
14248WAT     H242987   8.397   8.081   8.081
14249WAT      O42988   7.383   5.069   7.527
14249WAT     H142989   7.338   5.131   7.463
14249WAT     H242990   7.395   5.115   7.615
14250WAT      O42991   1.297   3.422   1.509
14250WAT     H142992   1.355   3.357   1.559
14250WAT     H242993   1.215   3.375   1.476
14251WAT      O42994   0.398   9.646   0.571
14251WAT     H142995   0.416   9.562   0.622
14251WAT     H242996   0.466   9.716   0.596
14252WAT      O42997   3.476   5.717   3.786
14252WAT     H142998   3.454   5.634   3.736
14252WAT     H242999   3.418   5.792   3.753
14253WAT      O43000   0.573   9.301   3.439
14253WAT     H143001   0.667   9.292   3.473
14253WAT     H243002   0.570   9.372   3.368
14254WAT      O43003   6.856   6.815   0.098
14254WAT     H143004   6.889   6.866   0.178
14254WAT     H243005   6.760   6.839   0.082
14255WAT      O43006   2.873   9.503   1.376
14255WAT     H143007   2.926   9.430   1.331
14255WAT     H243008   2.922   9.590   1.366
14256WAT      O43009   2.480   4.465   6.052
14256WAT     H143010   2.574   4.502   6.053
14256WAT     H243011   2.417   4.534   6.088
14257WAT      O43012   9.281   4.765   2.325
14257WAT     H143013   9.262   4.824   2.404
14257WAT     H243014   9.343   4.692   2.353
14258WAT      O43015   5.094   8.891   6.302
14258WAT     H143016   5.193   8.884   6.318
14258WAT     H243017   5.061   8.980   6.334
14259WAT      O43018   5.177   2.552   5.558
14259WAT     H143019   5.172   2.651   5.554
14259WAT     H243020   5.141   2.520   5.646
14260WAT      O43021   6.705   5.147   8.323
14260WAT     H143022   6.669   5.077   8.383
14260WAT     H243023   6.784   5.111   8.273
14261WAT      O43024   3.981   9.329   8.032
14261WAT     H143025   3.991   9.347   7.934
14261WAT     H243026   3.928   9.245   8.045
14262WAT      O43027   5.043   7.784   0.313
14262WAT     H143028   5.073   7.788   0.217
14262WAT     H243029   5.057   7.692   0.349
14263WAT      O43030   1.041   0.658   8.793
14263WAT     H143031   1.100   0.664   8.712
14263WAT     H243032   1.096   0.667   8.876
14264WAT      O43033   5.514   9.420   6.030
14264WAT     H143034   5.575   9.364   6.085
14264WAT     H243035   5.566   9.461   5.955
14265WAT      O43036   9.670   2.474   6.319
14265WAT     H143037   9.583   2.515   6.291
14265WAT     H243038   9.652   2.394   6.376
14266WAT      O43039   9.054   4.783   7.496
14266WAT     H143040   9.051   4.844   7.417
14266WAT     H243041   8.961   4.769   7.531
14267WAT      O43042   0.616   5.429   1.392
14267WAT     H143043   0.654   5.356   1.449
14267WAT     H243044   0.519   5.411   1.375
14268WAT      O43045   7.714   1.137   1.696
14268WAT     H143046   7.773   1.136   1.615
14268WAT     H243047   7.705   1.044   1.731
14269WAT      O43048   9.141   2.715   5.005
14269WAT     H143049   9.105   2.626   5.030
14269WAT     H243050   9.124   2.781   5.079
14270WAT      O43051   4.175   3.294   8.906
14270WAT     H143052   4.129   3.285   8.818
14270WAT     H243053   4.254   3.355   8.897
14271WAT      O43054   9.686   3.599   2.899
14271WAT     H143055   9.711   3.517   2.951
14271WAT     H243056   9.591   3.592   2.868
14272WAT      O43057   2.884   4.985   8.647
14272WAT     H143058   2.792   4.964   8.617
14272WAT     H243059   2.950   4.945   8.584
14273WAT      O43060   2.199   2.638   5.137
14273WAT     H143061   2.254   2.577   5.194
14273WAT     H243062   2.111   2.656   5.181
14274WAT      O43063   2.758   9.615   6.716
14274WAT     H143064   2.812   9.580   6.793
14274WAT     H243065   2.818   9.653   6.647
14275WAT      O43066   7.549   9.727   3.222
14275WAT     H143067   7.506   9.816   3.230
14275WAT     H243068   7.484   9.656   3.249
14276WAT      O43069   4.674   6.652   1.162
14276WAT     H143070   4.674   6.752   1.172
14276WAT     H243071   4.640   6.628   1.071
14277WAT      O43072   0.360   5.040   4.730
14277WAT     H143073   0.449   5.021   4.687
14277WAT     H243074   0.363   5.011   4.826
14278WAT      O43075   4.794   8.275   7.198
14278WAT     H143076   4.744   8.196   7.234
14278WAT     H243077   4.798   8.347   7.267
14279WAT      O43078   8.403   9.183   2.673
14279WAT     H143079   8.499   9.210   2.665
14279WAT     H243080   8.366   9.220   2.759
14280WAT      O43081   6.544   3.716   7.715
14280WAT     H143082   6.541   3.647   7.788
14280WAT     H243083   6.451   3.746   7.694
14281WAT      O43084   6.861   1.657   6.729
14281WAT     H143085   6.809   1.684   6.648
14281WAT     H243086   6.913   1.574   6.708
14282WAT      O43087   8.618   9.657   2.107
14282WAT     H143088   8.697   9.690   2.158
14282WAT     H243089   8.601   9.717   2.029
14283WAT      O43090   5.263   8.359   4.555
14283WAT     H143091   5.214   8.286   4.604
14283WAT     H243092   5.216   8.377   4.468
14284WAT      O43093   8.013   9.305   9.296
14284WAT     H143094   7.949   9.228   9.303
14284WAT     H243095   7.993   9.358   9.214
14285WAT      O43096   9.544   9.726   3.598
14285WAT     H143097   9.607   9.654   3.626
14285WAT     H243098   9.548   9.737   3.499
14286WAT      O43099   5.021   6.271   0.178
14286WAT     H143100   5.063   6.334   0.112
14286WAT     H243101   4.966   6.204   0.129
14287WAT      O43102   2.423   5.918   8.327
14287WAT     H143103   2.420   5.941   8.424
14287WAT     H243104   2.454   5.823   8.316
14288WAT      O43105   2.771   1.652   1.520
14288WAT     H143106   2.750   1.554   1.527
14288WAT     H243107   2.771   1.693   1.611
14289WAT      O43108   2.416   4.855   0.463
14289WAT     H143109   2.459   4.804   0.537
14289WAT     H243110   2.317   4.849   0.472
14290WAT      O43111   6.399   0.073   6.913
14290WAT     H143112   6.433   0.066   7.006
14290WAT     H243113   6.385   0.170   6.889
14291WAT      O43114   8.199   4.281   0.402
14291WAT     H143115   8.136   4.314   0.331
14291WAT     H243116   8.293   4.284   0.368
14292WAT      O43117   0.211   1.952   1.297
14292WAT     H143118   0.236   1.881   1.362
14292WAT     H243119   0.270   1.948   1.217
14293WAT      O43120   1.699   8.464   6.186
14293WAT     H143121   1.634   8.538   6.204
14293WAT     H243122   1.648   8.382   6.158
14294WAT      O43123   1.979   1.139   0.524
14294WAT     H143124   2.044   1.120   0.450
14294WAT     H243125   2.008   1.220   0.574
14295WAT      O43126   6.027   5.573   8.666
14295WAT     H143127   6.008   5.623   8.582
14295WAT     H243128   5.988   5.623   8.744
14296WAT      O43129   0.315   2.446   3.154
14296WAT     H143130   0.323   2.447   3.254
14296WAT     H243131   0.405   2.431   3.114
14297WAT      O43132   8.381   3.216   6.964
14297WAT     H143133   8.383   3.226   6.865
14297WAT     H243134   8.342   3.298   7.006
14298WAT      O43135   0.529   7.860   1.087
14298WAT     H143136   0.591   7.938   1.083
14298WAT     H243137   0.437   7.888   1.058
14299WAT      O43138   0.432   4.611   5.335
14299WAT     H143139   0.411   4.681   5.403
14299WAT     H243140   0.360   4.611   5.265
14300WAT      O43141   2.034   8.260   5.990
14300WAT     H143142   2.039   8.337   6.053
14300WAT     H243143   2.102   8.191   6.014
14301WAT      O43144   6.054   5.546   5.713
14301WAT     H143145   6.097   5.636   5.722
14301WAT     H243146   6.104   5.479   5.768
14302WAT      O43147   2.699   5.287   5.685
14302WAT     H143148   2.774   5.223   5.703
14302WAT     H243149   2.737   5.374   5.654
14303WAT      O43150   7.976   1.465   4.674
14303WAT     H143151   7.972   1.517   4.759
14303WAT     H243152   8.011   1.374   4.691
14304WAT      O43153   1.016   5.964   2.136
14304WAT     H143154   0.937   6.026   2.145
14304WAT     H243155   1.078   5.999   2.066
14305WAT      O43156   3.342   9.188   5.175
14305WAT     H143157   3.269   9.190   5.243
14305WAT     H243158   3.425   9.150   5.216
14306WAT      O43159   2.846   8.746   6.394
14306WAT     H143160   2.917   8.676   6.384
14306WAT     H243161   2.785   8.721   6.469
14307WAT      O43162   5.429   1.998   6.578
14307WAT     H143163   5.329   2.003   6.580
14307WAT     H243164   5.467   2.041   6.660
14308WAT      O43165   6.114   5.031   0.160
14308WAT     H143166   6.087   5.044   0.065
14308WAT     H243167   6.045   4.974   0.207
14309WAT      O43168   1.663   2.867   9.280
14309WAT     H143169   1.694   2.776   9.308
14309WAT     H243170   1.585   2.894   9.335
14310WAT      O43171   6.005   0.589   2.036
14310WAT     H143172   6.101   0.562   2.043
14310WAT     H243173   5.947   0.517   2.074
14311WAT      O43174   3.256   9.342   7.953
14311WAT     H143175   3.266   9.390   7.866
14311WAT     H243176   3.344   9.301   7.979
14312WAT      O43177   9.029   9.774   6.539
14312WAT     H143178   8.956   9.709   6.517
14312WAT     H243179   8.998   9.837   6.610
14313WAT      O43180   1.771   0.716   6.541
14313WAT     H143181   1.870   0.720   6.527
14313WAT     H243182   1.742   0.620   6.548
14314WAT      O43183   3.485   6.032   7.158
14314WAT     H143184   3.492   5.973   7.238
14314WAT     H243185   3.476   6.127   7.188
14315WAT      O43186   4.196   6.189   8.581
14315WAT     H143187   4.156   6.115   8.635
14315WAT     H243188   4.182   6.276   8.628
14316WAT      O43189   4.157   7.749   7.184
14316WAT     H143190   4.134   7.659   7.222
14316WAT     H243191   4.118   7.821   7.241
14317WAT      O43192   2.042   0.219   1.267
14317WAT     H143193   2.102   0.257   1.196
14317WAT     H243194   2.032   0.285   1.341
14318WAT      O43195   0.148   9.384   4.513
14318WAT     H143196   0.099   9.373   4.426
14318WAT     H243197   0.245   9.397   4.495
14319WAT      O43198   2.148   7.340   3.049
14319WAT     H143199   2.130   7.435   3.025
14319WAT     H243200   2.228   7.335   3.110
14320WAT      O43201   0.782   0.392   6.517
14320WAT     H143202   0.741   0.314   6.469
14320WAT     H243203   0.853   0.359   6.580
14321WAT      O43204   5.511   6.036   3.586
14321WAT     H143205   5.582   6.106   3.579
14321WAT     H243206   5.527   5.981   3.669
14322WAT      O43207   1.101   1.476   1.516
14322WAT     H143208   1.162   1.521   1.452
14322WAT     H243209   1.142   1.390   1.546
14323WAT      O43210   8.854   3.072   4.740
14323WAT     H143211   8.860   2.984   4.788
14323WAT     H243212   8.778   3.124   4.778
14324WAT      O43213   7.003   2.454   0.500
14324WAT     H143214   7.097   2.419   0.510
14324WAT     H243215   6.950   2.389   0.444
14325WAT      O43216   8.378   3.082   5.028
14325WAT     H143217   8.472   3.064   5.057
14325WAT     H243218   8.317   3.015   5.069
14326WAT      O43219   6.582   8.071   2.427
14326WAT     H143220   6.540   8.003   2.368
14326WAT     H243221   6.545   8.062   2.520
14327WAT      O43222   3.151   7.294   2.014
14327WAT     H143223   3.111   7.245   2.091
14327WAT     H243224   3.172   7.229   1.941
14328WAT      O43225   8.017   3.899   8.864
14328WAT     H143226   8.022   3.937   8.771
14328WAT     H243227   8.090   3.833   8.877
14329WAT      O43228   0.744   0.886   2.827
14329WAT     H143229   0.680   0.952   2.867
14329WAT     H243230   0.733   0.797   2.872
14330WAT      O43231   2.371   2.471   6.998
14330WAT     H143232   2.402   2.566   7.002
14330WAT     H243233   2.314   2.458   6.917
14331WAT      O43234   6.226   8.171   6.569
14331WAT     H143235   6.239   8.075   6.594
14331WAT     H243236   6.304   8.203   6.516
14332WAT      O43237   8.308   9.013   4.327
14332WAT     H143238   8.344   9.074   4.398
14332WAT     H243239   8.259   9.068   4.259
14333WAT      O43240   2.560   3.664   2.817
14333WAT     H143241   2.563   3.569   2.847
14333WAT     H243242   2.653   3.698   2.806
14334WAT      O43243   5.158   0.052   9.613
14334WAT     H143244   5.224   0.072   9.685
14334WAT     H243245   5.068   0.037   9.653
14335WAT      O43246   3.220   4.172   1.910
14335WAT     H143247   3.228   4.271   1.898
14335WAT     H243248   3.150   4.152   1.978
14336WAT      O43249   4.067   8.461   7.969
14336WAT     H143250   4.143   8.397   7.979
14336WAT     H243251   4.045   8.472   7.872
14337WAT      O43252   2.476   3.629   4.114
14337WAT     H143253   2.533   3.647   4.194
14337WAT     H243254   2.512   3.552   4.063
14338WAT      O43255   1.467   8.432   0.423
14338WAT     H143256   1.460   8.527   0.452
14338WAT     H243257   1.544   8.421   0.361
14339WAT      O43258   4.697   4.990   3.400
14339WAT     H143259   4.641   5.059   3.355
14339WAT     H243260   4.793   5.001   3.371
14340WAT      O43261   1.417   4.335   7.164
14340WAT     H143262   1.483   4.362   7.235
14340WAT     H243263   1.324   4.342   7.201
14341WAT      O43264   9.074   6.291   4.195
14341WAT     H143265   9.048   6.195   4.183
14341WAT     H243266   9.173   6.301   4.185
14342WAT      O43267   7.852   2.335   7.741
14342WAT     H143268   7.783   2.406   7.731
14342WAT     H243269   7.826   2.274   7.816
14343WAT      O43270   9.315   3.334   5.315
14343WAT     H143271   9.402   3.374   5.345
14343WAT     H243272   9.332   3.262   5.249
14344WAT      O43273   9.400   5.972   3.039
14344WAT     H143274   9.462   6.022   2.979
14344WAT     H243275   9.403   5.874   3.016
14345WAT      O43276   8.799   1.947   6.791
14345WAT     H143277   8.816   1.883   6.716
14345WAT     H243278   8.753   2.029   6.756
14346WAT      O43279   2.820   4.512   5.667
14346WAT     H143280   2.758   4.590   5.678
14346WAT     H243281   2.828   4.489   5.570
14347WAT      O43282   8.431   3.080   8.048
14347WAT     H143283   8.331   3.075   8.046
14347WAT     H243284   8.470   3.007   7.992
14348WAT      O43285   3.908   3.872   0.633
14348WAT     H143286   3.864   3.902   0.548
14348WAT     H243287   3.910   3.772   0.636
14349WAT      O43288   6.717   3.879   3.151
14349WAT     H143289   6.741   3.971   3.118
14349WAT     H243290   6.670   3.829   3.078
14350WAT      O43291   1.637   9.291   0.138
14350WAT     H143292   1.680   9.292   0.048
14350WAT     H243293   1.538   9.277   0.127
14351WAT      O43294   1.745   2.911   0.396
14351WAT     H143295   1.689   2.920   0.314
14351WAT     H243296   1.817   2.979   0.395
14352WAT      O43297   1.358   9.384   0.301
14352WAT     H143298   1.346   9.326   0.221
14352WAT     H243299   1.414   9.337   0.369
14353WAT      O43300   6.080   3.691   7.030
14353WAT     H143301   6.158   3.627   7.031
14353WAT     H243302   6.028   3.681   7.114
14354WAT      O43303   3.675   9.237   3.126
14354WAT     H143304   3.609   9.164   3.107
14354WAT     H243305   3.728   9.256   3.043
14355WAT      O43306   5.451   5.217   8.618
14355WAT     H143307   5.452   5.274   8.700
14355WAT     H243308   5.429   5.273   8.538
14356WAT      O43309   7.898   5.010   9.606
14356WAT     H143310   7.894   4.995   9.507
14356WAT     H243311   7.809   5.045   9.638
14357WAT      O43312   3.756   3.798   6.157
14357WAT     H143313   3.669   3.759   6.189
14357WAT     H243314   3.770   3.888   6.197
14358WAT      O43315   1.051   1.769   7.993
14358WAT     H143316   1.075   1.815   8.079
14358WAT     H243317   1.123   1.783   7.926
14359WAT      O43318   9.815   6.099   5.975
14359WAT     H143319   9.785   6.192   5.999
14359WAT     H243320   9.815   6.089   5.875
14360WAT      O43321   0.202   2.092   8.690
14360WAT     H143322   0.207   2.148   8.773
14360WAT     H243323   0.225   1.997   8.713
14361WAT      O43324   6.875   3.519   9.268
14361WAT     H143325   6.851   3.508   9.364
14361WAT     H243326   6.816   3.589   9.227
14362WAT      O43327   0.300   0.230   6.079
14362WAT     H143328   0.368   0.256   6.147
14362WAT     H243329   0.238   0.162   6.118
14363WAT      O43330   3.322   0.499   8.361
14363WAT     H143331   3.339   0.400   8.359
14363WAT     H243332   3.366   0.539   8.441
14364WAT      O43333   9.010   6.985   4.230
14364WAT     H143334   9.066   6.904   4.250
14364WAT     H243335   8.947   6.964   4.155
14365WAT      O43336   5.988   5.301   2.646
14365WAT     H143337   5.903   5.251   2.631
14365WAT     H243338   5.967   5.395   2.674
14366WAT      O43339   8.514   1.168   3.579
14366WAT     H143340   8.603   1.210   3.595
14366WAT     H243341   8.475   1.138   3.666
14367WAT      O43342   3.744   5.813   3.415
14367WAT     H143343   3.776   5.766   3.497
14367WAT     H243344   3.687   5.750   3.361
14368WAT      O43345   8.766   1.485   1.217
14368WAT     H143346   8.763   1.433   1.131
14368WAT     H243347   8.706   1.442   1.284
14369WAT      O43348   8.839   0.781   2.178
14369WAT     H143349   8.864   0.798   2.083
14369WAT     H243350   8.868   0.859   2.234
14370WAT      O43351   0.809   3.064   3.382
14370WAT     H143352   0.759   3.045   3.467
14370WAT     H243353   0.892   3.116   3.403
14371WAT      O43354   5.403   4.537   0.819
14371WAT     H143355   5.437   4.603   0.752
14371WAT     H243356   5.447   4.553   0.907
14372WAT      O43357   0.881   5.949   3.194
14372WAT     H143358   0.909   6.016   3.125
14372WAT     H243359   0.960   5.899   3.227
14373WAT      O43360   8.429   8.662   6.024
14373WAT     H143361   8.420   8.575   5.975
14373WAT     H243362   8.470   8.730   5.963
14374WAT      O43363   2.602   3.180   3.570
14374WAT     H143364   2.605   3.084   3.542
14374WAT     H243365   2.681   3.200   3.628
14375WAT      O43366   2.551   0.614   4.964
14375WAT     H143367   2.468   0.656   4.928
14375WAT     H243368   2.629   0.640   4.907
14376WAT      O43369   9.477   4.335   3.789
14376WAT     H143370   9.535   4.384   3.854
14376WAT     H243371   9.445   4.250   3.831
14377WAT      O43372   0.948   7.538   1.199
14377WAT     H143373   0.873   7.603   1.211
14377WAT     H243374   0.937   7.489   1.113
14378WAT      O43375   3.893   7.838   7.824
14378WAT     H143376   3.891   7.911   7.893
14378WAT     H243377   3.896   7.749   7.869
14379WAT      O43378   1.919   5.656   1.578
14379WAT     H143379   1.848   5.725   1.588
14379WAT     H243380   1.944   5.648   1.482
14380WAT      O43381   3.521   9.757   5.377
14380WAT     H143382   3.543   9.662   5.351
14380WAT     H243383   3.469   9.800   5.304
14381WAT      O43384   3.844   6.108   1.285
14381WAT     H143385   3.902   6.086   1.363
14381WAT     H243386   3.901   6.135   1.208
14382WAT      O43387   0.598   9.701   5.830
14382WAT     H143388   0.645   9.760   5.897
14382WAT     H243389   0.656   9.623   5.809
14383WAT      O43390   2.251   3.078   1.689
14383WAT     H143391   2.224   3.172   1.670
14383WAT     H243392   2.343   3.062   1.654
14384WAT      O43393   6.248   5.024   3.789
14384WAT     H143394   6.252   4.954   3.860
14384WAT     H243395   6.327   5.014   3.729
14385WAT      O43396   2.679   5.372   1.261
14385WAT     H143397   2.692   5.359   1.359
14385WAT     H243398   2.734   5.306   1.210
14386WAT      O43399   7.080   3.818   5.246
14386WAT     H143400   7.095   3.917   5.252
14386WAT     H243401   7.029   3.787   5.326
14387WAT      O43402   0.185   2.172   6.788
14387WAT     H143403   0.269   2.195   6.738
14387WAT     H243404   0.139   2.256   6.816
14388WAT      O43405   2.256   1.138   5.654
14388WAT     H143406   2.183   1.146   5.722
14388WAT     H243407   2.250   1.048   5.609
14389WAT      O43408   9.859   8.444   9.045
14389WAT     H143409   9.850   8.543   9.051
14389WAT     H243410   9.825   8.413   8.956
14390WAT      O43411   9.697   8.587   6.288
14390WAT     H143412   9.738   8.511   6.337
14390WAT     H243413   9.670   8.658   6.353
14391WAT      O43414   8.684   1.242   8.437
14391WAT     H143415   8.741   1.225   8.356
14391WAT     H243416   8.663   1.155   8.482
14392WAT      O43417   0.441   8.623   9.703
14392WAT     H143418   0.443   8.536   9.653
14392WAT     H243419   0.347   8.644   9.730
14393WAT      O43420   7.795   2.178   9.539
14393WAT     H143421   7.755   2.175   9.447
14393WAT     H243422   7.882   2.228   9.536
14394WAT      O43423   7.835   9.346   4.151
14394WAT     H143424   7.868   9.256   4.122
14394WAT     H243425   7.771   9.381   4.082
14395WAT      O43426   1.546   1.279   6.320
14395WAT     H143427   1.463   1.273   6.265
14395WAT     H243428   1.621   1.313   6.264
14396WAT      O43429   7.428   2.524   4.996
14396WAT     H143430   7.442   2.426   4.988
14396WAT     H243431   7.376   2.557   4.917
14397WAT      O43432   2.457   8.258   9.326
14397WAT     H143433   2.452   8.183   9.391
14397WAT     H243434   2.477   8.223   9.235
14398WAT      O43435   0.922   4.621   5.947
14398WAT     H143436   0.928   4.720   5.940
14398WAT     H243437   0.826   4.594   5.949
14399WAT      O43438   9.463   1.541   6.660
14399WAT     H143439   9.463   1.544   6.560
14399WAT     H243440   9.370   1.556   6.694
14400WAT      O43441   9.621   5.269   8.409
14400WAT     H143442   9.527   5.261   8.441
14400WAT     H243443   9.621   5.300   8.314
14401WAT      O43444   0.487   5.653   2.683
14401WAT     H143445   0.398   5.608   2.693
14401WAT     H243446   0.478   5.731   2.621
14402WAT      O43447   9.549   4.244   0.938
14402WAT     H143448   9.641   4.267   0.906
14402WAT     H243449   9.505   4.326   0.975
14403WAT      O43450   8.873   9.814   1.969
14403WAT     H143451   8.850   9.811   1.872
14403WAT     H243452   8.963   9.775   1.983
14404WAT      O43453   1.347   7.577   6.337
14404WAT     H143454   1.425   7.612   6.389
14404WAT     H243455   1.267   7.634   6.354
14405WAT      O43456   8.607   0.136   5.204
14405WAT     H143457   8.577   0.223   5.164
14405WAT     H243458   8.545   0.111   5.279
14406WAT      O43459   9.614   0.862   7.394
14406WAT     H143460   9.698   0.902   7.431
14406WAT     H243461   9.583   0.917   7.317
14407WAT      O43462   2.454   4.625   3.437
14407WAT     H143463   2.379   4.627   3.503
14407WAT     H243464   2.444   4.545   3.377
14408WAT      O43465   2.191   3.606   2.981
14408WAT     H143466   2.233   3.564   3.061
14408WAT     H243467   2.252   3.677   2.945
14409WAT      O43468   0.708   6.843   7.616
14409WAT     H143469   0.667   6.868   7.704
14409WAT     H243470   0.804   6.817   7.630
14410WAT      O43471   8.157   6.676   2.346
14410WAT     H143472   8.223   6.750   2.362
14410WAT     H243473   8.119   6.645   2.433
14411WAT      O43474   3.959   2.567   5.422
14411WAT     H143475   4.017   2.535   5.348
14411WAT     H243476   4.015   2.608   5.494
14412WAT      O43477   9.356   5.312   9.174
14412WAT     H143478   9.435   5.342   9.121
14412WAT     H243479   9.336   5.379   9.246
14413WAT      O43480   8.944   1.128   6.884
14413WAT     H143481   8.988   1.159   6.968
14413WAT     H243482   8.918   1.032   6.893
14414WAT      O43483   8.476   7.787   5.873
14414WAT     H143484   8.434   7.824   5.956
14414WAT     H243485   8.571   7.820   5.866
14415WAT      O43486   4.435   0.612   5.983
14415WAT     H143487   4.364   0.543   5.967
14415WAT     H243488   4.507   0.603   5.914
14416WAT      O43489   3.139   2.820   6.265
14416WAT     H143490   3.125   2.899   6.206
14416WAT     H243491   3.186   2.847   6.349
14417WAT      O43492   4.419   1.173   5.487
14417WAT     H143493   4.478   1.249   5.516
14417WAT     H243494   4.441   1.091   5.540
14418WAT      O43495   2.322   6.405   8.604
14418WAT     H143496   2.261   6.325   8.598
14418WAT     H243497   2.417   6.375   8.595
14419WAT      O43498   9.432   8.739   7.077
14419WAT     H143499   9.369   8.812   7.102
14419WAT     H243500   9.478   8.763   6.991
14420WAT      O43501   9.195   4.754   0.454
14420WAT     H143502   9.256   4.749   0.533
14420WAT     H243503   9.180   4.850   0.429
14421WAT      O43504   4.278   7.504   6.208
14421WAT     H143505   4.323   7.470   6.125
14421WAT     H243506   4.347   7.536   6.273
14422WAT      O43507   0.847   3.631   7.875
14422WAT     H143508   0.767   3.689   7.894
14422WAT     H243509   0.820   3.535   7.883
14423WAT      O43510   6.626   4.557   2.648
14423WAT     H143511   6.607   4.523   2.740
14423WAT     H243512   6.724   4.574   2.638
14424WAT      O43513   4.466   5.580   1.200
14424WAT     H143514   4.478   5.625   1.288
14424WAT     H243515   4.521   5.496   1.198
14425WAT      O43516   0.783   7.070   0.223
14425WAT     H143517   0.827   7.082   0.311
14425WAT     H243518   0.834   7.002   0.169
14426WAT      O43519   8.362   8.232   7.193
14426WAT     H143520   8.299   8.161   7.225
14426WAT     H243521   8.423   8.194   7.124
14427WAT      O43522   8.077   7.584   1.273
14427WAT     H143523   8.005   7.536   1.323
14427WAT     H243524   8.080   7.550   1.178
14428WAT      O43525   0.995   3.245   3.408
14428WAT     H143526   1.056   3.167   3.421
14428WAT     H243527   1.044   3.319   3.362
14429WAT      O43528   8.982   3.919   8.191
14429WAT     H143529   8.975   3.859   8.270
14429WAT     H243530   9.057   3.983   8.203
14430WAT      O43531   2.029   3.394   3.982
14430WAT     H143532   2.085   3.465   4.023
14430WAT     H243533   2.071   3.305   3.998
14431WAT      O43534   9.836   0.539   3.344
14431WAT     H143535   9.920   0.582   3.378
14431WAT     H243536   9.851   0.441   3.333
14432WAT      O43537   8.490   3.834   0.714
14432WAT     H143538   8.524   3.902   0.649
14432WAT     H243539   8.520   3.857   0.806
14433WAT      O43540   4.811   7.515   4.751
14433WAT     H143541   4.812   7.615   4.750
14433WAT     H243542   4.751   7.483   4.825
14434WAT      O43543   2.568   9.772   9.599
14434WAT     H143544   2.512   9.705   9.548
14434WAT     H243545   2.664   9.745   9.593
14435WAT      O43546   0.293   5.618   3.187
14435WAT     H143547   0.269   5.535   3.136
14435WAT     H243548   0.337   5.683   3.126
14436WAT      O43549   8.488   3.872   2.440
14436WAT     H143550   8.490   3.938   2.515
14436WAT     H243551   8.400   3.878   2.393
14437WAT      O43552   8.044   2.667   3.244
14437WAT     H143553   7.956   2.641   3.284
14437WAT     H243554   8.095   2.723   3.310
14438WAT      O43555   1.783   3.751   0.263
14438WAT     H143556   1.827   3.769   0.175
14438WAT     H243557   1.850   3.710   0.326
14439WAT      O43558   9.754   7.474   8.720
14439WAT     H143559   9.822   7.409   8.685
14439WAT     H243560   9.796   7.565   8.728
14440WAT      O43561   4.546   4.097   0.596
14440WAT     H143562   4.575   4.053   0.511
14440WAT     H243563   4.524   4.193   0.577
14441WAT      O43564   8.978   0.380   3.721
14441WAT     H143565   8.947   0.305   3.662
14441WAT     H243566   8.917   0.388   3.800
14442WAT      O43567   7.362   4.747   2.102
14442WAT     H143568   7.362   4.654   2.138
14442WAT     H243569   7.380   4.812   2.177
14443WAT      O43570   6.783   4.783   1.230
14443WAT     H143571   6.794   4.789   1.131
14443WAT     H243572   6.730   4.862   1.263
14444WAT      O43573   9.099   8.952   5.902
14444WAT     H143574   9.152   8.908   5.975
14444WAT     H243575   9.035   8.885   5.863
14445WAT      O43576   6.742   0.701   4.298
14445WAT     H143577   6.725   0.781   4.241
14445WAT     H243578   6.693   0.711   4.385
14446WAT      O43579   2.942   8.079   3.888
14446WAT     H143580   2.858   8.076   3.943
14446WAT     H243581   2.934   8.151   3.819
14447WAT      O43582   7.870   8.628   2.625
14447WAT     H143583   7.868   8.578   2.539
14447WAT     H243584   7.960   8.670   2.636
14448WAT      O43585   7.512   1.756   7.835
14448WAT     H143586   7.605   1.738   7.866
14448WAT     H243587   7.451   1.685   7.870
14449WAT      O43588   0.294   6.081   2.645
14449WAT     H143589   0.353   6.112   2.719
14449WAT     H243590   0.229   6.153   2.620
14450WAT      O43591   3.729   4.367   3.328
14450WAT     H143592   3.710   4.314   3.411
14450WAT     H243593   3.810   4.423   3.342
14451WAT      O43594   0.399   1.921   2.661
14451WAT     H143595   0.301   1.934   2.675
14451WAT     H243596   0.446   1.927   2.749
14452WAT      O43597   0.496   4.133   7.800
14452WAT     H143598   0.517   4.147   7.704
14452WAT     H243599   0.480   4.035   7.817
14453WAT      O43600   6.175   6.840   0.672
14453WAT     H143601   6.186   6.937   0.650
14453WAT     H243602   6.132   6.831   0.762
14454WAT      O43603   9.256   3.925   3.351
14454WAT     H143604   9.209   4.011   3.369
14454WAT     H243605   9.254   3.905   3.253
14455WAT      O43606   9.342   0.877   2.387
14455WAT     H143607   9.317   0.781   2.371
14455WAT     H243608   9.442   0.884   2.395
14456WAT      O43609   4.396   3.876   0.712
14456WAT     H143610   4.299   3.895   0.721
14456WAT     H243611   4.448   3.960   0.728
14457WAT      O43612   0.424   3.224   7.168
14457WAT     H143613   0.375   3.144   7.204
14457WAT     H243614   0.395   3.306   7.218
14458WAT      O43615  -0.005   3.662   7.726
14458WAT     H143616   0.055   3.674   7.648
14458WAT     H243617   0.047   3.678   7.811
14459WAT      O43618   5.342   6.726   0.540
14459WAT     H143619   5.276   6.651   0.547
14459WAT     H243620   5.389   6.721   0.453
14460WAT      O43621   5.304   9.446   3.567
14460WAT     H143622   5.316   9.401   3.655
14460WAT     H243623   5.238   9.521   3.578
14461WAT      O43624   3.694   9.499   8.368
14461WAT     H143625   3.772   9.437   8.362
14461WAT     H243626   3.693   9.559   8.287
14462WAT      O43627   6.644   4.348   6.784
14462WAT     H143628   6.586   4.427   6.764
14462WAT     H243629   6.739   4.370   6.762
14463WAT      O43630   2.591   9.734   0.724
14463WAT     H143631   2.574   9.679   0.806
14463WAT     H243632   2.505   9.775   0.694
14464WAT      O43633   8.959   0.950   4.637
14464WAT     H143634   9.013   0.959   4.554
14464WAT     H243635   8.863   0.935   4.614
14465WAT      O43636   2.525   2.755   9.199
14465WAT     H143637   2.563   2.677   9.150
14465WAT     H243638   2.553   2.840   9.154
14466WAT      O43639   7.536   2.654   5.335
14466WAT     H143640   7.515   2.572   5.389
14466WAT     H243641   7.599   2.629   5.261
14467WAT      O43642   0.060   5.423   0.688
14467WAT     H143643  -0.039   5.434   0.699
14467WAT     H243644   0.087   5.334   0.725
14468WAT      O43645   6.565   3.180   6.518
14468WAT     H143646   6.649   3.222   6.484
14468WAT     H243647   6.528   3.119   6.449
14469WAT      O43648   4.871   8.470   5.976
14469WAT     H143649   4.782   8.494   6.014
14469WAT     H243650   4.858   8.430   5.885
14470WAT      O43651   4.420   4.432   6.468
14470WAT     H143652   4.462   4.486   6.395
14470WAT     H243653   4.455   4.463   6.557
14471WAT      O43654   7.440   4.231   6.117
14471WAT     H143655   7.489   4.159   6.166
14471WAT     H243656   7.346   4.202   6.100
14472WAT      O43657   9.320   1.172   9.633
14472WAT     H143658   9.221   1.159   9.643
14472WAT     H243659   9.356   1.217   9.715
14473WAT      O43660   6.370   6.550   1.625
14473WAT     H143661   6.462   6.510   1.628
14473WAT     H243662   6.354   6.589   1.534
14474WAT      O43663   7.424   1.224   2.568
14474WAT     H143664   7.513   1.270   2.563
14474WAT     H243665   7.351   1.291   2.567
14475WAT      O43666   9.698   4.850   7.405
14475WAT     H143667   9.669   4.888   7.492
14475WAT     H243668   9.629   4.868   7.335
14476WAT      O43669   2.883   8.597   7.417
14476WAT     H143670   2.885   8.521   7.351
14476WAT     H243671   2.938   8.572   7.497
14477WAT      O43672   3.089   4.199   6.186
14477WAT     H143673   3.185   4.217   6.209
14477WAT     H243674   3.081   4.108   6.145
14478WAT      O43675   2.095   5.730   4.156
14478WAT     H143676   2.091   5.657   4.088
14478WAT     H243677   2.151   5.805   4.120
14479WAT      O43678   4.209   5.930   0.743
14479WAT     H143679   4.220   5.873   0.662
14479WAT     H243680   4.291   5.923   0.801
14480WAT      O43681   3.136   5.300   8.639
14480WAT     H143682   3.141   5.212   8.591
14480WAT     H243683   3.078   5.291   8.720
14481WAT      O43684   2.285   3.389   6.958
14481WAT     H143685   2.255   3.471   6.910
14481WAT     H243686   2.285   3.407   7.057
14482WAT      O43687   6.744   9.436   0.217
14482WAT     H143688   6.758   9.341   0.187
14482WAT     H243689   6.751   9.440   0.317
14483WAT      O43690   7.153   1.600   3.083
14483WAT     H143691   7.072   1.572   3.032
14483WAT     H243692   7.219   1.525   3.085
14484WAT      O43693   1.933   1.877   5.789
14484WAT     H143694   2.001   1.867   5.717
14484WAT     H243695   1.934   1.971   5.823
14485WAT      O43696   1.655   7.551   7.782
14485WAT     H143697   1.664   7.648   7.761
14485WAT     H243698   1.577   7.536   7.842
14486WAT      O43699   1.813   4.238   6.679
14486WAT     H143700   1.902   4.235   6.633
14486WAT     H243701   1.816   4.305   6.753
14487WAT      O43702   7.289   8.007   7.651
14487WAT     H143703   7.206   8.043   7.608
14487WAT     H243704   7.364   8.008   7.585
14488WAT      O43705   4.923   6.778   5.088
14488WAT     H143706   4.823   6.773   5.093
14488WAT     H243707   4.952   6.773   4.992
14489WAT      O43708   6.590   8.686   4.943
14489WAT     H143709   6.600   8.780   4.912
14489WAT     H243710   6.664   8.663   5.006
14490WAT      O43711   5.519   0.291   6.487
14490WAT     H143712   5.577   0.306   6.568
14490WAT     H243713   5.576   0.293   6.405
14491WAT      O43714   2.946   1.057   2.846
14491WAT     H143715   3.022   1.076   2.908
14491WAT     H243716   2.931   1.136   2.786
14492WAT      O43717   1.430   9.570   2.851
14492WAT     H143718   1.456   9.499   2.917
14492WAT     H243719   1.335   9.555   2.823
14493WAT      O43720   6.105   9.699   0.895
14493WAT     H143721   6.143   9.610   0.871
14493WAT     H243722   6.035   9.688   0.966
14494WAT      O43723   5.813   6.581   2.166
14494WAT     H143724   5.744   6.511   2.154
14494WAT     H243725   5.818   6.608   2.263
14495WAT      O43726   8.320   2.827   7.366
14495WAT     H143727   8.344   2.756   7.300
14495WAT     H243728   8.230   2.865   7.344
14496WAT      O43729   9.269   3.738   9.710
14496WAT     H143730   9.253   3.830   9.675
14496WAT     H243731   9.345   3.696   9.660
14497WAT      O43732   2.782   7.587   1.826
14497WAT     H143733   2.818   7.501   1.862
14497WAT     H243734   2.746   7.572   1.734
14498WAT      O43735   3.091   9.515   0.880
14498WAT     H143736   3.012   9.544   0.933
14498WAT     H243737   3.107   9.578   0.805
14499WAT      O43738   1.858   6.794   5.938
14499WAT     H143739   1.839   6.722   5.871
14499WAT     H243740   1.941   6.771   5.988
14500WAT      O43741   5.088   9.183   6.646
14500WAT     H143742   5.070   9.281   6.636
14500WAT     H243743   5.062   9.154   6.738
14501WAT      O43744   5.967   6.734   3.904
14501WAT     H143745   6.022   6.696   3.978
14501WAT     H243746   5.912   6.809   3.939
14502WAT      O43747   5.917   3.573   1.026
14502WAT     H143748   5.963   3.498   1.071
14502WAT     H243749   5.854   3.618   1.090
14503WAT      O43750   0.016   8.320   7.797
14503WAT     H143751  -0.004   8.405   7.847
14503WAT     H243752   0.113   8.300   7.804
14504WAT      O43753   4.440   2.722   3.400
14504WAT     H143754   4.415   2.625   3.404
14504WAT     H243755   4.423   2.757   3.308
14505WAT      O43756   4.864   8.648   1.679
14505WAT     H143757   4.934   8.629   1.609
14505WAT     H243758   4.908   8.684   1.761
14506WAT      O43759   5.681   1.513   6.445
14506WAT     H143760   5.595   1.552   6.478
14506WAT     H243761   5.754   1.532   6.511
14507WAT      O43762   5.983   8.745   3.038
14507WAT     H143763   5.896   8.725   2.992
14507WAT     H243764   5.967   8.808   3.114
14508WAT      O43765   4.112   5.070   0.865
14508WAT     H143766   4.175   5.032   0.798
14508WAT     H243767   4.037   5.006   0.881
14509WAT      O43768   1.435   5.611   4.395
14509WAT     H143769   1.341   5.634   4.369
14509WAT     H243770   1.438   5.517   4.431
14510WAT      O43771   6.100   8.369   5.492
14510WAT     H143772   6.167   8.424   5.542
14510WAT     H243773   6.147   8.305   5.432
14511WAT      O43774   5.973   3.484   5.901
14511WAT     H143775   5.977   3.540   5.983
14511WAT     H243776   6.018   3.396   5.918
14512WAT      O43777   9.411   2.973   8.272
14512WAT     H143778   9.458   3.046   8.221
14512WAT     H243779   9.389   2.898   8.209
14513WAT      O43780   5.866   9.637   7.153
14513WAT     H143781   5.933   9.676   7.216
14513WAT     H243782   5.910   9.617   7.066
14514WAT      O43783   3.022   2.025   4.102
14514WAT     H143784   3.053   2.051   4.193
14514WAT     H243785   2.963   2.097   4.065
14515WAT      O43786   4.764   9.515   0.562
14515WAT     H143787   4.816   9.460   0.627
14515WAT     H243788   4.788   9.611   0.572
14516WAT      O43789   1.872   0.790   2.622
14516WAT     H143790   1.944   0.856   2.602
14516WAT     H243791   1.790   0.840   2.652
14517WAT      O43792   1.403   7.456   0.632
14517WAT     H143793   1.459   7.418   0.706
14517WAT     H243794   1.307   7.455   0.660
14518WAT      O43795   3.593   1.547   4.179
14518WAT     H143796   3.672   1.588   4.133
14518WAT     H243797   3.611   1.450   4.195
14519WAT      O43798   6.929   4.452   1.202
14519WAT     H143799   6.994   4.527   1.215
14519WAT     H243800   6.972   4.366   1.228
14520WAT      O43801   4.848   5.363   9.598
14520WAT     H143802   4.892   5.297   9.537
14520WAT     H243803   4.760   5.326   9.628
14521WAT      O43804   0.630   7.254   1.271
14521WAT     H143805   0.558   7.218   1.211
14521WAT     H243806   0.719   7.239   1.229
14522WAT      O43807   8.316   6.145   7.245
14522WAT     H143808   8.321   6.207   7.323
14522WAT     H243809   8.280   6.057   7.275
14523WAT      O43810   8.274   7.735   2.276
14523WAT     H143811   8.252   7.653   2.222
14523WAT     H243812   8.337   7.710   2.349
14524WAT      O43813   7.889   2.629   3.749
14524WAT     H143814   7.850   2.668   3.666
14524WAT     H243815   7.950   2.554   3.726
14525WAT      O43816   0.463   6.164   3.960
14525WAT     H143817   0.427   6.172   3.867
14525WAT     H243818   0.504   6.252   3.987
14526WAT      O43819   3.205   0.162   5.584
14526WAT     H143820   3.167   0.126   5.499
14526WAT     H243821   3.299   0.193   5.568
14527WAT      O43822   4.144   7.808   0.742
14527WAT     H143823   4.121   7.882   0.805
14527WAT     H243824   4.125   7.720   0.786
14528WAT      O43825   7.791   5.495   9.121
14528WAT     H143826   7.731   5.428   9.166
14528WAT     H243827   7.880   5.496   9.167
14529WAT      O43828   0.197   5.731   2.159
14529WAT     H143829   0.110   5.779   2.151
14529WAT     H243830   0.264   5.790   2.205
14530WAT      O43831   2.052   6.496   1.877
14530WAT     H143832   2.065   6.594   1.860
14530WAT     H243833   1.979   6.462   1.817
14531WAT      O43834   7.312   5.949   0.346
14531WAT     H143835   7.353   5.890   0.416
14531WAT     H243836   7.358   6.038   0.348
14532WAT      O43837   8.257   3.818   1.380
14532WAT     H143838   8.355   3.839   1.369
14532WAT     H243839   8.228   3.842   1.472
14533WAT      O43840   2.567   5.322   3.803
14533WAT     H143841   2.645   5.383   3.790
14533WAT     H243842   2.592   5.229   3.778
14534WAT      O43843   8.131   2.532   5.343
14534WAT     H143844   8.089   2.594   5.410
14534WAT     H243845   8.063   2.464   5.314
14535WAT      O43846   0.806   0.414   5.204
14535WAT     H143847   0.778   0.391   5.111
14535WAT     H243848   0.898   0.454   5.203
14536WAT      O43849   9.223   1.661   6.681
14536WAT     H143850   9.243   1.759   6.684
14536WAT     H243851   9.154   1.643   6.610
14537WAT      O43852   6.275   8.789   1.555
14537WAT     H143853   6.263   8.872   1.609
14537WAT     H243854   6.371   8.779   1.530
14538WAT      O43855   0.789   4.416   6.849
14538WAT     H143856   0.773   4.433   6.752
14538WAT     H243857   0.881   4.446   6.873
14539WAT      O43858   6.011   9.584   8.166
14539WAT     H143859   6.057   9.536   8.091
14539WAT     H243860   5.951   9.520   8.214
14540WAT      O43861   9.807   9.670   4.037
14540WAT     H143862   9.742   9.609   3.992
14540WAT     H243863   9.889   9.680   3.981
14541WAT      O43864   8.841   7.778   8.754
14541WAT     H143865   8.905   7.712   8.794
14541WAT     H243866   8.871   7.799   8.660
14542WAT      O43867   6.929   4.696   8.758
14542WAT     H143868   6.861   4.642   8.708
14542WAT     H243869   7.019   4.683   8.716
14543WAT      O43870   8.540   7.968   9.441
14543WAT     H143871   8.618   7.983   9.380
14543WAT     H243872   8.571   7.922   9.524
14544WAT      O43873   4.729   4.805   2.698
14544WAT     H143874   4.811   4.776   2.650
14544WAT     H243875   4.723   4.905   2.696
14545WAT      O43876   9.194   0.043   4.638
14545WAT     H143877   9.120  -0.024   4.632
14545WAT     H243878   9.238   0.037   4.728
14546WAT      O43879   0.986   9.432   6.936
14546WAT     H143880   0.934   9.498   6.990
14546WAT     H243881   1.071   9.409   6.983
14547WAT      O43882   4.463   4.490   6.724
14547WAT     H143883   4.561   4.503   6.741
14547WAT     H243884   4.426   4.424   6.790
14548WAT      O43885   3.389   8.552   4.696
14548WAT     H143886   3.486   8.558   4.673
14548WAT     H243887   3.365   8.628   4.757
14549WAT      O43888   0.484   2.026   4.592
14549WAT     H143889   0.529   1.962   4.655
14549WAT     H243890   0.436   1.973   4.521
14550WAT      O43891   3.765   9.471   5.287
14550WAT     H143892   3.814   9.391   5.253
14550WAT     H243893   3.667   9.453   5.288
14551WAT      O43894   1.268   2.351   0.393
14551WAT     H143895   1.194   2.284   0.402
14551WAT     H243896   1.312   2.364   0.482
14552WAT      O43897   0.276   4.028   7.586
14552WAT     H143898   0.204   4.057   7.523
14552WAT     H243899   0.243   4.035   7.680
14553WAT      O43900   9.804   0.857   1.916
14553WAT     H143901   9.765   0.790   1.852
14553WAT     H243902   9.747   0.938   1.918
14554WAT      O43903   0.717   8.258   6.258
14554WAT     H143904   0.810   8.225   6.276
14554WAT     H243905   0.714   8.357   6.268
14555WAT      O43906   5.695   4.561   5.168
14555WAT     H143907   5.704   4.513   5.081
14555WAT     H243908   5.635   4.509   5.229
14556WAT      O43909   8.363   7.468   9.531
14556WAT     H143910   8.403   7.539   9.473
14556WAT     H243911   8.376   7.379   9.488
14557WAT      O43912   1.434   6.383   9.658
14557WAT     H143913   1.426   6.284   9.649
14557WAT     H243914   1.445   6.407   9.755
14558WAT      O43915   4.743   6.068   4.607
14558WAT     H143916   4.683   6.118   4.669
14558WAT     H243917   4.802   6.007   4.660
14559WAT      O43918   8.308   4.622   4.749
14559WAT     H143919   8.387   4.668   4.708
14559WAT     H243920   8.338   4.568   4.828
14560WAT      O43921   0.113   4.197   5.542
14560WAT     H143922   0.081   4.106   5.569
14560WAT     H243923   0.201   4.189   5.495
14561WAT      O43924   0.850   3.569   2.497
14561WAT     H143925   0.910   3.531   2.427
14561WAT     H243926   0.792   3.640   2.457
14562WAT      O43927   8.308   4.388   5.732
14562WAT     H143928   8.389   4.329   5.739
14562WAT     H243929   8.233   4.346   5.783
14563WAT      O43930   9.872   7.425   2.422
14563WAT     H143931   9.855   7.392   2.515
14563WAT     H243932   9.858   7.524   2.419
14564WAT      O43933   3.271   6.732   0.297
14564WAT     H143934   3.278   6.646   0.246
14564WAT     H243935   3.179   6.769   0.288
14565WAT      O43936   3.548   0.800   1.068
14565WAT     H143937   3.642   0.768   1.074
14565WAT     H243938   3.541   0.873   1.000
14566WAT      O43939   5.504   0.147   3.562
14566WAT     H143940   5.503   0.115   3.467
14566WAT     H243941   5.553   0.082   3.619
14567WAT      O43942   9.792   2.350   8.873
14567WAT     H143943   9.727   2.400   8.930
14567WAT     H243944   9.770   2.253   8.875
14568WAT      O43945   3.371   3.691   1.665
14568WAT     H143946   3.416   3.602   1.661
14568WAT     H243947   3.388   3.732   1.755
14569WAT      O43948   2.791   2.836   0.846
14569WAT     H143949   2.858   2.782   0.795
14569WAT     H243950   2.723   2.873   0.783
14570WAT      O43951   5.159   7.543   2.117
14570WAT     H143952   5.106   7.574   2.038
14570WAT     H243953   5.131   7.594   2.198
14571WAT      O43954   1.641   6.065   7.311
14571WAT     H143955   1.646   6.165   7.310
14571WAT     H243956   1.660   6.031   7.403
14572WAT      O43957   9.141   5.186   7.327
14572WAT     H143958   9.056   5.238   7.327
14572WAT     H243959   9.197   5.213   7.249
14573WAT      O43960   3.851   5.702   3.628
14573WAT     H143961   3.915   5.628   3.606
14573WAT     H243962   3.846   5.713   3.727
14574WAT      O43963   1.325   5.120   9.151
14574WAT     H143964   1.323   5.207   9.102
14574WAT     H243965   1.419   5.098   9.176
14575WAT      O43966   7.176   1.948   1.157
14575WAT     H143967   7.115   2.022   1.128
14575WAT     H243968   7.271   1.971   1.135
14576WAT      O43969   8.911   6.816   9.896
14576WAT     H143970   8.912   6.718   9.913
14576WAT     H243971   8.869   6.834   9.807
14577WAT      O43972   2.068   6.640   4.664
14577WAT     H143973   2.034   6.728   4.632
14577WAT     H243974   2.058   6.635   4.764
14578WAT      O43975   5.153   8.789   0.822
14578WAT     H143976   5.172   8.744   0.735
14578WAT     H243977   5.133   8.719   0.891
14579WAT      O43978   2.585   3.964   6.933
14579WAT     H143979   2.668   3.989   6.883
14579WAT     H243980   2.601   3.975   7.031
14580WAT      O43981   4.612   3.317   6.731
14580WAT     H143982   4.697   3.264   6.730
14580WAT     H243983   4.534   3.255   6.723
14581WAT      O43984   3.155   8.853   2.703
14581WAT     H143985   3.117   8.813   2.620
14581WAT     H243986   3.109   8.940   2.722
14582WAT      O43987   5.958   6.865   1.876
14582WAT     H143988   5.882   6.929   1.878
14582WAT     H243989   6.044   6.915   1.889
14583WAT      O43990   3.209   6.577   2.301
14583WAT     H143991   3.228   6.525   2.218
14583WAT     H243992   3.229   6.674   2.285
14584WAT      O43993   2.464   7.009   4.047
14584WAT     H143994   2.402   6.931   4.041
14584WAT     H243995   2.485   7.027   4.144
14585WAT      O43996   5.252   6.630   7.625
14585WAT     H143997   5.252   6.569   7.704
14585WAT     H243998   5.311   6.592   7.554
14586WAT      O43999   4.755   4.183   1.861
14586WAT     H144000   4.687   4.170   1.789
14586WAT     H244001   4.775   4.095   1.904
14587WAT      O44002   1.524   0.016   0.476
14587WAT     H144003   1.501  -0.079   0.454
14587WAT     H244004   1.597   0.017   0.545
14588WAT      O44005   4.214   7.128   2.841
14588WAT     H144006   4.282   7.115   2.769
14588WAT     H244007   4.192   7.039   2.882
14589WAT      O44008   0.632   5.158   5.113
14589WAT     H144009   0.648   5.127   5.207
14589WAT     H244010   0.659   5.085   5.049
14590WAT      O44011   7.552   9.590   0.171
14590WAT     H144012   7.535   9.630   0.080
14590WAT     H244013   7.470   9.599   0.227
14591WAT      O44014   1.992   5.755   9.169
14591WAT     H144015   2.029   5.831   9.115
14591WAT     H244016   2.000   5.777   9.266
14592WAT      O44017   7.933   3.219   9.519
14592WAT     H144018   7.851   3.268   9.490
14592WAT     H244019   7.960   3.250   9.610
14593WAT      O44020   1.505   0.565   6.807
14593WAT     H144021   1.444   0.529   6.877
14593WAT     H244022   1.466   0.546   6.717
14594WAT      O44023   7.603   6.412   4.370
14594WAT     H144024   7.623   6.388   4.275
14594WAT     H244025   7.638   6.503   4.389
14595WAT      O44026   7.165   8.871   5.652
14595WAT     H144027   7.091   8.938   5.652
14595WAT     H244028   7.157   8.813   5.571
14596WAT      O44029   1.703   1.734   5.117
14596WAT     H144030   1.677   1.663   5.182
14596WAT     H244031   1.697   1.698   5.024
14597WAT      O44032   6.427   7.019   3.452
14597WAT     H144033   6.481   7.100   3.434
14597WAT     H244034   6.333   7.046   3.476
14598WAT      O44035   2.863   2.105   3.262
14598WAT     H144036   2.917   2.035   3.309
14598WAT     H244037   2.825   2.169   3.330
14599WAT      O44038   5.056   5.656   8.797
14599WAT     H144039   5.154   5.672   8.808
14599WAT     H244040   5.025   5.696   8.711
14600WAT      O44041   7.468   1.215   1.636
14600WAT     H144042   7.437   1.261   1.719
14600WAT     H244043   7.562   1.185   1.647
14601WAT      O44044   6.521   1.095   6.335
14601WAT     H144045   6.454   1.147   6.388
14601WAT     H244046   6.474   1.043   6.263
14602WAT      O44047   8.122   6.679   8.966
14602WAT     H144048   8.109   6.647   9.060
14602WAT     H244049   8.034   6.706   8.927
14603WAT      O44050   8.508   3.667   0.288
14603WAT     H144051   8.550   3.757   0.290
14603WAT     H244052   8.470   3.645   0.379
14604WAT      O44053   8.822   5.809   5.913
14604WAT     H144054   8.853   5.788   6.006
14604WAT     H244055   8.858   5.742   5.849
14605WAT      O44056   1.059   5.622   2.967
14605WAT     H144057   0.978   5.617   2.909
14605WAT     H244058   1.129   5.559   2.933
14606WAT      O44059   8.031   5.254   2.394
14606WAT     H144060   8.013   5.335   2.339
14606WAT     H244061   7.954   5.237   2.455
14607WAT      O44062   5.921   2.539   0.890
14607WAT     H144063   5.913   2.562   0.793
14607WAT     H244064   5.834   2.558   0.936
14608WAT      O44065   9.081   8.127   6.109
14608WAT     H144066   9.029   8.203   6.147
14608WAT     H244067   9.173   8.126   6.147
14609WAT      O44068   7.877   6.595   3.886
14609WAT     H144069   7.878   6.545   3.799
14609WAT     H244070   7.959   6.653   3.892
14610WAT      O44071   4.463   6.077   6.779
14610WAT     H144072   4.453   6.166   6.735
14610WAT     H244073   4.376   6.028   6.776
14611WAT      O44074   3.258   2.204   9.234
14611WAT     H144075   3.271   2.154   9.319
14611WAT     H244076   3.244   2.301   9.254
14612WAT      O44077   6.368   6.659   7.747
14612WAT     H144078   6.354   6.750   7.710
14612WAT     H244079   6.282   6.607   7.741
14613WAT      O44080   1.694   1.268   0.816
14613WAT     H144081   1.711   1.366   0.831
14613WAT     H244082   1.679   1.251   0.719
14614WAT      O44083   2.948   9.271   5.180
14614WAT     H144084   2.933   9.344   5.114
14614WAT     H244085   2.969   9.186   5.132
14615WAT      O44086   4.684   7.892   3.054
14615WAT     H144087   4.770   7.866   3.098
14615WAT     H244088   4.617   7.819   3.067
14616WAT      O44089   3.086   3.151   2.606
14616WAT     H144090   3.145   3.179   2.530
14616WAT     H244091   3.078   3.051   2.608
14617WAT      O44092   3.810   6.273   5.109
14617WAT     H144093   3.778   6.365   5.087
14617WAT     H244094   3.896   6.255   5.061
14618WAT      O44095   3.634   7.497   3.384
14618WAT     H144096   3.709   7.431   3.388
14618WAT     H244097   3.563   7.463   3.322
14619WAT      O44098   7.578   6.934   5.423
14619WAT     H144099   7.663   6.891   5.454
14619WAT     H244100   7.500   6.887   5.463
14620WAT      O44101   7.128   5.682   2.569
14620WAT     H144102   7.180   5.637   2.496
14620WAT     H244103   7.036   5.643   2.573
14621WAT      O44104   7.067   2.801   2.520
14621WAT     H144105   7.121   2.881   2.496
14621WAT     H244106   7.105   2.758   2.602
14622WAT      O44107   2.072   0.868   1.083
14622WAT     H144108   2.003   0.866   1.010
14622WAT     H244109   2.035   0.917   1.162
14623WAT      O44110   6.442   6.997   1.254
14623WAT     H144111   6.474   6.910   1.217
14623WAT     H244112   6.521   7.053   1.282
14624WAT      O44113   8.319   3.310   2.576
14624WAT     H144114   8.329   3.341   2.482
14624WAT     H244115   8.330   3.387   2.638
14625WAT      O44116   1.646   7.740   9.561
14625WAT     H144117   1.585   7.749   9.640
14625WAT     H244118   1.645   7.826   9.509
14626WAT      O44119   2.913   7.562   9.623
14626WAT     H144120   2.910   7.583   9.525
14626WAT     H244121   2.986   7.496   9.641
14627WAT      O44122   2.789   9.087   9.434
14627WAT     H144123   2.802   9.173   9.483
14627WAT     H244124   2.715   9.035   9.476
14628WAT      O44125   7.514   3.566   8.451
14628WAT     H144126   7.591   3.552   8.513
14628WAT     H244127   7.428   3.555   8.500
14629WAT      O44128   9.580   4.710   4.803
14629WAT     H144129   9.680   4.707   4.809
14629WAT     H244130   9.552   4.793   4.754
14630WAT      O44131   2.828   9.253   3.762
14630WAT     H144132   2.801   9.174   3.707
14630WAT     H244133   2.777   9.253   3.848
14631WAT      O44134   6.908   9.379   6.480
14631WAT     H144135   6.905   9.400   6.578
14631WAT     H244136   6.848   9.301   6.460
14632WAT      O44137   4.767   2.339   5.221
14632WAT     H144138   4.728   2.421   5.179
14632WAT     H244139   4.695   2.272   5.237
14633WAT      O44140   8.012   7.818   2.193
14633WAT     H144141   7.959   7.801   2.276
14633WAT     H244142   8.109   7.806   2.213
14634WAT      O44143   7.999   9.299   3.228
14634WAT     H144144   8.010   9.386   3.179
14634WAT     H244145   8.068   9.234   3.197
14635WAT      O44146   4.469   8.000   0.834
14635WAT     H144147   4.369   8.000   0.825
14635WAT     H244148   4.494   7.959   0.921
14636WAT      O44149   1.429   8.079   5.877
14636WAT     H144150   1.457   8.149   5.812
14636WAT     H244151   1.355   8.114   5.934
14637WAT      O44152   8.426   2.920   4.497
14637WAT     H144153   8.383   2.966   4.575
14637WAT     H244154   8.362   2.852   4.459
14638WAT      O44155   3.524   3.986   1.216
14638WAT     H144156   3.513   3.898   1.262
14638WAT     H244157   3.554   3.971   1.122
14639WAT      O44158   6.483   2.342   6.386
14639WAT     H144159   6.452   2.386   6.471
14639WAT     H244160   6.536   2.260   6.408
14640WAT      O44161   1.913   7.595   3.409
14640WAT     H144162   1.875   7.684   3.436
14640WAT     H244163   1.913   7.588   3.309
14641WAT      O44164   3.093   3.148   6.657
14641WAT     H144165   3.000   3.184   6.661
14641WAT     H244166   3.145   3.181   6.735
14642WAT      O44167   8.254   2.351   3.529
14642WAT     H144168   8.305   2.273   3.566
14642WAT     H244169   8.300   2.385   3.447
14643WAT      O44170   4.018   5.749   1.263
14643WAT     H144171   4.055   5.663   1.228
14643WAT     H244172   4.022   5.819   1.193
14644WAT      O44173   3.670   5.202   0.315
14644WAT     H144174   3.670   5.145   0.397
14644WAT     H244175   3.753   5.182   0.262
14645WAT      O44176   5.343   0.621   0.214
14645WAT     H144177   5.323   0.704   0.162
14645WAT     H244178   5.355   0.644   0.310
14646WAT      O44179   3.727   0.688   3.859
14646WAT     H144180   3.754   0.700   3.954
14646WAT     H244181   3.669   0.764   3.831
14647WAT      O44182   0.241   9.736   1.316
14647WAT     H144183   0.311   9.795   1.275
14647WAT     H244184   0.164   9.726   1.253
14648WAT      O44185   7.802   3.096   7.002
14648WAT     H144186   7.892   3.133   7.026
14648WAT     H244187   7.789   3.103   6.903
14649WAT      O44188   2.644   1.184   0.142
14649WAT     H144189   2.673   1.094   0.108
14649WAT     H244190   2.593   1.232   0.072
14650WAT      O44191   0.739   4.236   6.031
14650WAT     H144192   0.696   4.170   6.094
14650WAT     H244193   0.770   4.189   5.949
14651WAT      O44194   1.288   1.721   9.692
14651WAT     H144195   1.203   1.721   9.639
14651WAT     H244196   1.292   1.638   9.748
14652WAT      O44197   3.797   5.154   2.784
14652WAT     H144198   3.876   5.098   2.760
14652WAT     H244199   3.736   5.163   2.704
14653WAT      O44200   6.496   5.586   4.497
14653WAT     H144201   6.498   5.685   4.485
14653WAT     H244202   6.587   5.548   4.478
14654WAT      O44203   5.052   0.776   5.049
14654WAT     H144204   5.057   0.695   5.109
14654WAT     H244205   4.962   0.780   5.006
14655WAT      O44206   3.250   6.380   6.549
14655WAT     H144207   3.159   6.338   6.557
14655WAT     H244208   3.313   6.314   6.510
14656WAT      O44209   6.616   2.050   1.579
14656WAT     H144210   6.671   2.133   1.581
14656WAT     H244211   6.593   2.027   1.485
14657WAT      O44212   3.066   7.853   2.155
14657WAT     H144213   3.163   7.860   2.180
14657WAT     H244214   3.049   7.907   2.073
14658WAT      O44215   1.927   4.329   5.228
14658WAT     H144216   1.867   4.332   5.308
14658WAT     H244217   1.901   4.253   5.169
14659WAT      O44218   9.377   3.052   6.985
14659WAT     H144219   9.462   3.105   6.987
14659WAT     H244220   9.383   2.981   6.915
14660WAT      O44221   0.705   6.052   6.897
14660WAT     H144222   0.612   6.015   6.893
14660WAT     H244223   0.713   6.113   6.976
14661WAT      O44224   9.605   1.196   5.904
14661WAT     H144225   9.670   1.130   5.940
14661WAT     H244226   9.599   1.275   5.965
14662WAT      O44227   9.172   0.519   4.200
14662WAT     H144228   9.244   0.557   4.257
14662WAT     H244229   9.211   0.454   4.135
14663WAT      O44230   5.624   6.860   2.192
14663WAT     H144231   5.675   6.775   2.204
14663WAT     H244232   5.543   6.843   2.137
14664WAT      O44233   6.261   1.034   1.594
14664WAT     H144234   6.213   0.950   1.570
14664WAT     H244235   6.353   1.033   1.554
14665WAT      O44236   7.652   8.861   4.397
14665WAT     H144237   7.563   8.902   4.377
14665WAT     H244238   7.651   8.822   4.489
14666WAT      O44239   2.592   8.436   3.511
14666WAT     H144240   2.547   8.515   3.553
14666WAT     H244241   2.526   8.386   3.455
14667WAT      O44242   0.416   8.110   1.941
14667WAT     H144243   0.336   8.084   1.996
14667WAT     H244244   0.436   8.207   1.956
14668WAT      O44245   5.161   1.447   3.340
14668WAT     H144246   5.193   1.541   3.322
14668WAT     H244247   5.229   1.400   3.396
14669WAT      O44248   2.208   8.750   7.669
14669WAT     H144249   2.268   8.759   7.748
14669WAT     H244250   2.178   8.654   7.660
14670WAT      O44251   5.487   8.834   0.768
14670WAT     H144252   5.578   8.865   0.742
14670WAT     H244253   5.429   8.914   0.784
14671WAT      O44254   6.940   1.665   2.486
14671WAT     H144255   6.983   1.755   2.481
14671WAT     H244256   6.886   1.658   2.570
14672WAT      O44257   7.190   9.820   5.425
14672WAT     H144258   7.146   9.771   5.500
14672WAT     H244259   7.130   9.820   5.345
14673WAT      O44260   4.303   6.926   0.417
14673WAT     H144261   4.219   6.871   0.422
14673WAT     H244262   4.382   6.867   0.432
14674WAT      O44263   8.349   5.561   6.725
14674WAT     H144264   8.423   5.604   6.674
14674WAT     H244265   8.314   5.483   6.672
14675WAT      O44266   9.239   0.645   2.651
14675WAT     H144267   9.219   0.596   2.566
14675WAT     H244268   9.327   0.690   2.643
14676WAT      O44269   3.804   7.011   6.495
14676WAT     H144270   3.871   6.943   6.465
14676WAT     H244271   3.815   7.029   6.592
14677WAT      O44272   7.156   3.846   5.983
14677WAT     H144273   7.216   3.901   5.925
14677WAT     H244274   7.179   3.749   5.974
14678WAT      O44275   0.187   2.452   6.007
14678WAT     H144276   0.122   2.396   5.956
14678WAT     H244277   0.164   2.448   6.105
14679WAT      O44278   8.784   8.562   5.972
14679WAT     H144279   8.755   8.569   6.067
14679WAT     H244280   8.708   8.587   5.912
14680WAT      O44281   6.061   9.047   0.701
14680WAT     H144282   6.038   9.141   0.725
14680WAT     H244283   6.154   9.027   0.731
14681WAT      O44284   8.840   4.164   4.933
14681WAT     H144285   8.836   4.198   4.839
14681WAT     H244286   8.779   4.085   4.943
14682WAT      O44287   9.081   7.387   0.113
14682WAT     H144288   9.153   7.363   0.048
14682WAT     H244289   9.086   7.326   0.192
14683WAT      O44290   0.091   0.637   6.478
14683WAT     H144291   0.039   0.721   6.492
14683WAT     H244292   0.089   0.611   6.381
14684WAT      O44293   0.982   8.502   5.008
14684WAT     H144294   1.078   8.492   5.034
14684WAT     H244295   0.931   8.422   5.039
14685WAT      O44296   7.129   2.563   8.234
14685WAT     H144297   7.055   2.602   8.179
14685WAT     H244298   7.102   2.473   8.268
14686WAT      O44299   7.646   1.438   6.893
14686WAT     H144300   7.648   1.521   6.837
14686WAT     H244301   7.676   1.360   6.838
14687WAT      O44302   9.558   0.281   4.130
14687WAT     H144303   9.633   0.339   4.162
14687WAT     H244304   9.552   0.200   4.187
14688WAT      O44305   9.044   6.630   4.512
14688WAT     H144306   9.023   6.646   4.415
14688WAT     H244307   9.082   6.713   4.552
14689WAT      O44308   4.914   7.116   7.630
14689WAT     H144309   4.852   7.054   7.677
14689WAT     H244310   4.946   7.186   7.694
14690WAT      O44311   9.574   7.064   3.421
14690WAT     H144312   9.657   7.041   3.370
14690WAT     H244313   9.523   7.135   3.372
14691WAT      O44314   1.708   3.486   7.177
14691WAT     H144315   1.755   3.574   7.167
14691WAT     H244316   1.635   3.495   7.245
14692WAT      O44317   4.424   5.309   7.666
14692WAT     H144318   4.330   5.306   7.698
14692WAT     H244319   4.478   5.239   7.712
14693WAT      O44320   4.778   1.438   0.885
14693WAT     H144321   4.690   1.441   0.933
14693WAT     H244322   4.851   1.422   0.951
14694WAT      O44323   4.819   1.077   5.433
14694WAT     H144324   4.785   1.152   5.376
14694WAT     H244325   4.915   1.059   5.410
14695WAT      O44326   6.895   4.659   4.927
14695WAT     H144327   6.960   4.734   4.923
14695WAT     H244328   6.941   4.573   4.904
14696WAT      O44329   4.172   6.574   8.388
14696WAT     H144330   4.219   6.495   8.347
14696WAT     H244331   4.213   6.658   8.353
14697WAT      O44332   5.550   9.403   1.156
14697WAT     H144333   5.648   9.420   1.167
14697WAT     H244334   5.499   9.455   1.224
14698WAT      O44335   6.910   2.551   2.529
14698WAT     H144336   6.973   2.626   2.509
14698WAT     H244337   6.889   2.501   2.445
14699WAT      O44338   6.615   3.063   2.732
14699WAT     H144339   6.605   3.163   2.736
14699WAT     H244340   6.559   3.021   2.804
14700WAT      O44341   5.804   4.095   4.703
14700WAT     H144342   5.719   4.122   4.749
14700WAT     H244343   5.794   4.003   4.665
14701WAT      O44344   1.545   1.016   0.429
14701WAT     H144345   1.446   1.006   0.441
14701WAT     H244346   1.591   0.932   0.458
14702WAT      O44347   0.165   7.850   0.224
14702WAT     H144348   0.200   7.829   0.315
14702WAT     H244349   0.213   7.929   0.187
14703WAT      O44350   2.305   1.092   1.986
14703WAT     H144351   2.346   1.179   2.011
14703WAT     H244352   2.372   1.035   1.939
14704WAT      O44353   6.033   1.628   8.168
14704WAT     H144354   6.042   1.721   8.133
14704WAT     H244355   6.043   1.563   8.093
14705WAT      O44356   7.830   9.821   3.889
14705WAT     H144357   7.840   9.823   3.988
14705WAT     H244358   7.840   9.727   3.856
14706WAT      O44359   2.168   1.161   0.098
14706WAT     H144360   2.110   1.216   0.038
14706WAT     H244361   2.244   1.218   0.130
14707WAT      O44362   9.031   9.724   2.512
14707WAT     H144363   8.958   9.663   2.479
14707WAT     H244364   9.032   9.724   2.612
14708WAT      O44365   0.049   9.765   0.632
14708WAT     H144366   0.064   9.744   0.535
14708WAT     H244367   0.066   9.683   0.687
14709WAT      O44368   3.178   5.866   8.269
14709WAT     H144369   3.147   5.774   8.244
14709WAT     H244370   3.149   5.887   8.363
14710WAT      O44371   6.961   6.653   8.816
14710WAT     H144372   6.887   6.719   8.833
14710WAT     H244373   6.952   6.576   8.878
14711WAT      O44374   2.081   0.548   0.315
14711WAT     H144375   2.110   0.640   0.341
14711WAT     H244376   2.113   0.482   0.383
14712WAT      O44377   5.408   4.814   8.297
14712WAT     H144378   5.442   4.880   8.230
14712WAT     H244379   5.362   4.862   8.372
14713WAT      O44380   8.787   1.196   8.189
14713WAT     H144381   8.725   1.119   8.199
14713WAT     H244382   8.756   1.254   8.114
14714WAT      O44383   8.482   8.705   2.713
14714WAT     H144384   8.389   8.668   2.716
14714WAT     H244385   8.528   8.686   2.800
14715WAT      O44386   5.161   0.699   7.299
14715WAT     H144387   5.091   0.746   7.247
14715WAT     H244388   5.251   0.738   7.279
14716WAT      O44389   2.252   7.428   3.775
14716WAT     H144390   2.329   7.446   3.713
14716WAT     H244391   2.270   7.344   3.827
14717WAT      O44392   4.973   4.056   5.740
14717WAT     H144393   4.962   4.071   5.838
14717WAT     H244394   5.063   4.018   5.721
14718WAT      O44395   5.595   7.806   5.699
14718WAT     H144396   5.605   7.904   5.715
14718WAT     H244397   5.620   7.785   5.605
14719WAT      O44398   2.798   1.818   2.298
14719WAT     H144399   2.847   1.736   2.329
14719WAT     H244400   2.842   1.855   2.217
14720WAT      O44401   0.410   0.239   9.247
14720WAT     H144402   0.491   0.285   9.284
14720WAT     H244403   0.337   0.239   9.316
14721WAT      O44404   5.447   0.013   7.476
14721WAT     H144405   5.369   0.048   7.424
14721WAT     H244406   5.478   0.084   7.540
14722WAT      O44407   3.930   3.061   1.238
14722WAT     H144408   3.916   2.996   1.164
14722WAT     H244409   3.845   3.114   1.252
14723WAT      O44410   9.302   9.001   4.649
14723WAT     H144411   9.250   9.083   4.672
14723WAT     H244412   9.257   8.921   4.689
14724WAT      O44413   0.968   7.729   2.639
14724WAT     H144414   0.980   7.707   2.542
14724WAT     H244415   1.058   7.735   2.684
14725WAT      O44416   4.616   8.984   5.699
14725WAT     H144417   4.576   8.894   5.681
14725WAT     H244418   4.686   8.975   5.770
14726WAT      O44419   5.241   6.859   2.714
14726WAT     H144420   5.210   6.922   2.642
14726WAT     H244421   5.267   6.911   2.795
14727WAT      O44422   1.378   8.235   4.732
14727WAT     H144423   1.469   8.273   4.715
14727WAT     H244424   1.362   8.228   4.830
14728WAT      O44425   1.059   6.929   8.342
14728WAT     H144426   0.988   6.937   8.412
14728WAT     H244427   1.040   6.849   8.285
14729WAT      O44428   1.260   5.173   6.383
14729WAT     H144429   1.315   5.164   6.466
14729WAT     H244430   1.165   5.150   6.405
14730WAT      O44431   9.287   9.665   6.885
14730WAT     H144432   9.340   9.631   6.807
14730WAT     H244433   9.330   9.637   6.970
14731WAT      O44434   5.190   9.672   0.108
14731WAT     H144435   5.169   9.760   0.152
14731WAT     H244436   5.178   9.598   0.174
14732WAT      O44437   9.454   4.247   2.181
14732WAT     H144438   9.359   4.241   2.210
14732WAT     H244439   9.514   4.236   2.261
14733WAT      O44440   0.767   8.506   3.254
14733WAT     H144441   0.729   8.598   3.259
14733WAT     H244442   0.698   8.440   3.283
14734WAT      O44443   4.079   7.991   2.521
14734WAT     H144444   4.006   7.979   2.453
14734WAT     H244445   4.106   7.901   2.556
14735WAT      O44446   9.613   7.297   8.370
14735WAT     H144447   9.538   7.335   8.424
14735WAT     H244448   9.631   7.203   8.398
14736WAT      O44449   1.125   6.164   9.167
14736WAT     H144450   1.102   6.088   9.228
14736WAT     H244451   1.102   6.250   9.212
14737WAT      O44452   7.112   4.082   6.302
14737WAT     H144453   7.039   4.150   6.310
14737WAT     H244454   7.138   4.073   6.206
14738WAT      O44455   7.363   5.170   8.429
14738WAT     H144456   7.455   5.131   8.436
14738WAT     H244457   7.361   5.239   8.357
14739WAT      O44458   1.979   5.217   5.566
14739WAT     H144459   2.037   5.271   5.628
14739WAT     H244460   2.035   5.180   5.492
14740WAT      O44461   5.637   0.845   0.899
14740WAT     H144462   5.691   0.840   0.815
14740WAT     H244463   5.679   0.787   0.969
14741WAT      O44464   0.506   5.284   6.659
14741WAT     H144465   0.444   5.360   6.678
14741WAT     H244466   0.478   5.205   6.714
14742WAT      O44467   7.807   0.611   4.833
14742WAT     H144468   7.878   0.652   4.776
14742WAT     H244469   7.755   0.683   4.879
14743WAT      O44470   5.623   2.964   1.030
14743WAT     H144471   5.670   2.899   0.970
14743WAT     H244472   5.562   3.022   0.976
14744WAT      O44473   6.645   7.928   0.232
14744WAT     H144474   6.552   7.923   0.196
14744WAT     H244475   6.709   7.941   0.156
14745WAT      O44476   6.205   7.525   4.993
14745WAT     H144477   6.253   7.488   5.073
14745WAT     H244478   6.106   7.521   5.010
14746WAT      O44479   8.592   7.608   2.755
14746WAT     H144480   8.497   7.632   2.733
14746WAT     H244481   8.635   7.683   2.805
14747WAT      O44482   4.154   6.573   0.287
14747WAT     H144483   4.062   6.562   0.249
14747WAT     H244484   4.150   6.630   0.369
14748WAT      O44485   4.860   0.214   5.027
14748WAT     H144486   4.843   0.285   5.095
14748WAT     H244487   4.781   0.207   4.965
14749WAT      O44488   8.567   0.513   8.280
14749WAT     H144489   8.489   0.468   8.322
14749WAT     H244490   8.631   0.444   8.246
14750WAT      O44491   6.374   5.648   3.235
14750WAT     H144492   6.414   5.737   3.260
14750WAT     H244493   6.274   5.657   3.229
14751WAT      O44494   9.839   7.091   5.480
14751WAT     H144495   9.938   7.101   5.493
14751WAT     H244496   9.791   7.167   5.524
14752WAT      O44497   3.197   3.547   7.321
14752WAT     H144498   3.250   3.475   7.367
14752WAT     H244499   3.224   3.551   7.225
14753WAT      O44500   6.187   5.781   8.940
14753WAT     H144501   6.215   5.840   8.864
14753WAT     H244502   6.091   5.755   8.929
14754WAT      O44503   9.662   9.360   8.151
14754WAT     H144504   9.679   9.364   8.052
14754WAT     H244505   9.564   9.355   8.168
14755WAT      O44506   9.588   3.578   7.393
14755WAT     H144507   9.660   3.530   7.343
14755WAT     H244508   9.520   3.613   7.329
14756WAT      O44509   1.200   3.564   0.201
14756WAT     H144510   1.267   3.592   0.132
14756WAT     H244511   1.239   3.576   0.292
14757WAT      O44512   9.365   4.853   4.588
14757WAT     H144513   9.375   4.949   4.612
14757WAT     H244514   9.430   4.830   4.516
14758WAT      O44515   7.502   3.881   5.629
14758WAT     H144516   7.454   3.862   5.543
14758WAT     H244517   7.539   3.795   5.665
14759WAT      O44518   2.215   0.976   0.339
14759WAT     H144519   2.303   1.023   0.348
14759WAT     H244520   2.170   1.005   0.255
14760WAT      O44521   0.233   7.200   2.006
14760WAT     H144522   0.215   7.291   1.969
14760WAT     H244523   0.305   7.206   2.076
14761WAT      O44524   9.436   9.004   2.505
14761WAT     H144525   9.460   8.928   2.566
14761WAT     H244526   9.492   8.999   2.422
14762WAT      O44527   0.186   4.093   1.272
14762WAT     H144528   0.225   4.025   1.210
14762WAT     H244529   0.195   4.060   1.366
14763WAT      O44530   2.249   5.473   8.948
14763WAT     H144531   2.310   5.447   9.022
14763WAT     H244532   2.251   5.404   8.876
14764WAT      O44533   4.153   7.421   6.739
14764WAT     H144534   4.130   7.437   6.835
14764WAT     H244535   4.251   7.432   6.725
14765WAT      O44536   6.067   3.862   5.628
14765WAT     H144537   5.983   3.859   5.683
14765WAT     H244538   6.123   3.782   5.649
14766WAT      O44539   8.794   8.241   4.224
14766WAT     H144540   8.766   8.159   4.275
14766WAT     H244541   8.714   8.298   4.205
14767WAT      O44542   0.966   5.180   9.361
14767WAT     H144543   1.046   5.120   9.365
14767WAT     H244544   0.928   5.192   9.452
14768WAT      O44545   7.164   5.661   2.188
14768WAT     H144546   7.080   5.618   2.220
14768WAT     H244547   7.147   5.708   2.101
14769WAT      O44548   9.462   2.374   9.270
14769WAT     H144549   9.391   2.378   9.199
14769WAT     H244550   9.446   2.446   9.338
14770WAT      O44551   7.809   5.914   2.312
14770WAT     H144552   7.766   5.835   2.356
14770WAT     H244553   7.753   5.944   2.235
14771WAT      O44554   3.285   5.723   6.889
14771WAT     H144555   3.246   5.632   6.898
14771WAT     H244556   3.254   5.781   6.965
14772WAT      O44557   6.883   9.671   8.590
14772WAT     H144558   6.829   9.611   8.648
14772WAT     H244559   6.980   9.655   8.607
14773WAT      O44560   7.053   0.188   2.476
14773WAT     H144561   7.104   0.272   2.457
14773WAT     H244562   6.955   0.209   2.478
14774WAT      O44563   9.615   1.379   9.765
14774WAT     H144564   9.599   1.478   9.767
14774WAT     H244565   9.575   1.337   9.846
14775WAT      O44566   6.107   2.631   4.139
14775WAT     H144567   6.118   2.704   4.206
14775WAT     H244568   6.161   2.651   4.058
14776WAT      O44569   8.569   1.572   3.454
14776WAT     H144570   8.556   1.664   3.491
14776WAT     H244571   8.559   1.504   3.527
14777WAT      O44572   0.462   8.366   0.627
14777WAT     H144573   0.405   8.445   0.649
14777WAT     H244574   0.409   8.301   0.572
14778WAT      O44575   4.212   9.032   1.363
14778WAT     H144576   4.273   9.076   1.297
14778WAT     H244577   4.118   9.040   1.331
14779WAT      O44578   7.623   5.582   6.785
14779WAT     H144579   7.628   5.495   6.834
14779WAT     H244580   7.702   5.591   6.724
14780WAT      O44581   1.267   1.283   2.694
14780WAT     H144582   1.174   1.317   2.680
14780WAT     H244583   1.273   1.238   2.783
14781WAT      O44584   7.227   4.121   8.136
14781WAT     H144585   7.250   4.032   8.096
14781WAT     H244586   7.131   4.142   8.115
14782WAT      O44587   5.711   6.121   3.168
14782WAT     H144588   5.694   6.047   3.233
14782WAT     H244589   5.670   6.098   3.079
14783WAT      O44590   7.885   5.641   3.968
14783WAT     H144591   7.970   5.689   3.945
14783WAT     H244592   7.903   5.542   3.969
14784WAT      O44593   4.141   7.719   8.735
14784WAT     H144594   4.231   7.676   8.728
14784WAT     H244595   4.109   7.743   8.644
14785WAT      O44596   5.818   7.166   9.543
14785WAT     H144597   5.831   7.265   9.533
14785WAT     H244598   5.835   7.140   9.638
14786WAT      O44599   7.722   4.298   7.123
14786WAT     H144600   7.640   4.346   7.151
14786WAT     H244601   7.802   4.338   7.169
14787WAT      O44602   0.701   1.732   2.667
14787WAT     H144603   0.628   1.738   2.599
14787WAT     H244604   0.761   1.655   2.645
14788WAT      O44605   0.742   8.249   7.559
14788WAT     H144606   0.803   8.282   7.631
14788WAT     H244607   0.736   8.317   7.486
14789WAT      O44608   0.916   7.013   1.488
14789WAT     H144609   0.840   7.032   1.425
14789WAT     H244610   0.993   7.073   1.468
14790WAT      O44611   1.170   1.882   0.080
14790WAT     H144612   1.186   1.788   0.111
14790WAT     H244613   1.072   1.903   0.086
14791WAT      O44614   6.466   1.690   7.895
14791WAT     H144615   6.377   1.737   7.894
14791WAT     H244616   6.452   1.591   7.890
14792WAT      O44617   9.316   3.258   5.730
14792WAT     H144618   9.312   3.232   5.633
14792WAT     H244619   9.291   3.180   5.787
14793WAT      O44620   6.846   1.884   8.556
14793WAT     H144621   6.798   1.815   8.502
14793WAT     H244622   6.807   1.974   8.538
14794WAT      O44623   8.468   9.469   9.748
14794WAT     H144624   8.399   9.410   9.705
14794WAT     H244625   8.489   9.545   9.687
14795WAT      O44626   5.027   3.353   6.063
14795WAT     H144627   4.982   3.366   5.975
14795WAT     H244628   4.963   3.315   6.129
14796WAT      O44629   2.734   3.755   3.472
14796WAT     H144630   2.662   3.823   3.457
14796WAT     H244631   2.784   3.741   3.387
14797WAT      O44632   1.941   8.989   1.764
14797WAT     H144633   2.028   8.983   1.813
14797WAT     H244634   1.892   9.071   1.793
14798WAT      O44635   2.890   3.768   3.946
14798WAT     H144636   2.896   3.866   3.931
14798WAT     H244637   2.979   3.726   3.932
14799WAT      O44638   0.624   3.963   0.383
14799WAT     H144639   0.527   3.972   0.407
14799WAT     H244640   0.646   3.867   0.369
14800WAT      O44641   7.225   5.563   0.841
14800WAT     H144642   7.208   5.543   0.744
14800WAT     H244643   7.222   5.478   0.893
14801WAT      O44644   6.099   2.154   8.738
14801WAT     H144645   6.127   2.132   8.645
14801WAT     H244646   6.000   2.139   8.748
14802WAT      O44647   5.354   7.994   6.873
14802WAT     H144648   5.273   8.040   6.836
14802WAT     H244649   5.369   7.908   6.823
14803WAT      O44650   7.702   4.661   9.767
14803WAT     H144651   7.772   4.684   9.700
14803WAT     H244652   7.689   4.562   9.770
14804WAT      O44653   9.116   7.559   3.523
14804WAT     H144654   9.046   7.587   3.588
14804WAT     H244655   9.172   7.638   3.498
14805WAT      O44656   3.056   9.802   3.459
14805WAT     H144657   3.043   9.721   3.402
14805WAT     H244658   3.026   9.883   3.408
14806WAT      O44659   5.045   5.630   2.789
14806WAT     H144660   5.076   5.709   2.843
14806WAT     H244661   5.084   5.636   2.697
14807WAT      O44662   5.695   6.230   3.633
14807WAT     H144663   5.788   6.206   3.662
14807WAT     H244664   5.697   6.265   3.539
14808WAT      O44665   6.118   5.460   1.719
14808WAT     H144666   6.145   5.423   1.630
14808WAT     H244667   6.084   5.386   1.776
14809WAT      O44668   6.129   6.397   1.972
14809WAT     H144669   6.079   6.478   1.940
14809WAT     H244670   6.064   6.325   1.996
14810WAT      O44671   9.629   0.169   8.626
14810WAT     H144672   9.556   0.125   8.573
14810WAT     H244673   9.614   0.268   8.626
14811WAT      O44674   9.294   9.361   4.600
14811WAT     H144675   9.250   9.296   4.538
14811WAT     H244676   9.293   9.452   4.559
14812WAT      O44677   5.732   5.016   2.289
14812WAT     H144678   5.818   4.969   2.265
14812WAT     H244679   5.751   5.112   2.310
14813WAT      O44680   0.334   8.362   5.733
14813WAT     H144681   0.358   8.453   5.768
14813WAT     H244682   0.412   8.301   5.743
14814WAT      O44683   0.297   7.945   8.774
14814WAT     H144684   0.386   7.922   8.815
14814WAT     H244685   0.292   7.906   8.682
14815WAT      O44686   5.469   3.674   4.890
14815WAT     H144687   5.408   3.658   4.967
14815WAT     H244688   5.429   3.741   4.828
14816WAT      O44689   5.534   2.775   7.898
14816WAT     H144690   5.561   2.686   7.935
14816WAT     H244691   5.435   2.787   7.908
14817WAT      O44692   2.244   7.383   7.200
14817WAT     H144693   2.316   7.451   7.188
14817WAT     H244694   2.155   7.428   7.198
14818WAT      O44695   4.207   2.628   4.325
14818WAT     H144696   4.261   2.694   4.272
14818WAT     H244697   4.202   2.541   4.276
14819WAT      O44698   7.536   6.094   5.789
14819WAT     H144699   7.623   6.045   5.779
14819WAT     H244700   7.504   6.124   5.699
14820WAT      O44701   0.222   2.796   0.936
14820WAT     H144702   0.123   2.796   0.923
14820WAT     H244703   0.267   2.837   0.857
14821WAT      O44704   9.233   8.930   2.346
14821WAT     H144705   9.259   8.923   2.250
14821WAT     H244706   9.308   8.969   2.398
14822WAT      O44707   9.335   3.830   6.703
14822WAT     H144708   9.254   3.811   6.648
14822WAT     H244709   9.413   3.848   6.643
14823WAT      O44710   0.120   6.245   8.971
14823WAT     H144711   0.149   6.232   9.065
14823WAT     H244712   0.021   6.228   8.964
14824WAT      O44713   8.791   6.263   2.696
14824WAT     H144714   8.720   6.300   2.636
14824WAT     H244715   8.775   6.165   2.709
14825WAT      O44716   9.026   2.807   9.547
14825WAT     H144717   9.036   2.886   9.488
14825WAT     H244718   8.933   2.771   9.540
14826WAT      O44719   8.569   4.850   0.224
14826WAT     H144720   8.654   4.853   0.172
14826WAT     H244721   8.523   4.939   0.219
14827WAT      O44722   0.816   9.218   9.680
14827WAT     H144723   0.764   9.139   9.646
14827WAT     H244724   0.898   9.230   9.624
14828WAT      O44725   5.621   5.798   1.533
14828WAT     H144726   5.667   5.864   1.593
14828WAT     H244727   5.631   5.827   1.438
14829WAT      O44728   8.588   6.088   1.547
14829WAT     H144729   8.671   6.075   1.601
14829WAT     H244730   8.522   6.017   1.571
14830WAT      O44731   9.401   9.050   7.008
14830WAT     H144732   9.315   9.013   6.973
14830WAT     H244733   9.403   9.149   6.991
14831WAT      O44734   1.646   5.748   4.762
14831WAT     H144735   1.609   5.655   4.773
14831WAT     H244736   1.615   5.786   4.675
14832WAT      O44737   2.791   1.749   0.462
14832WAT     H144738   2.890   1.764   0.459
14832WAT     H244739   2.770   1.680   0.531
14833WAT      O44740   0.603   4.750   3.492
14833WAT     H144741   0.581   4.674   3.554
14833WAT     H244742   0.527   4.765   3.429
14834WAT      O44743   7.187   0.874   9.369
14834WAT     H144744   7.112   0.890   9.304
14834WAT     H244745   7.273   0.866   9.320
14835WAT      O44746   1.964   9.530   1.832
14835WAT     H144747   1.874   9.493   1.855
14835WAT     H244748   2.031   9.500   1.901
14836WAT      O44749   6.916   3.522   6.834
14836WAT     H144750   6.947   3.432   6.863
14836WAT     H244751   6.816   3.522   6.829
14837WAT      O44752   4.374   9.563   2.725
14837WAT     H144753   4.356   9.571   2.824
14837WAT     H244754   4.362   9.652   2.682
14838WAT      O44755   3.501   2.573   0.236
14838WAT     H144756   3.447   2.657   0.240
14838WAT     H244757   3.512   2.544   0.140
14839WAT      O44758   1.775   3.404   3.514
14839WAT     H144759   1.737   3.313   3.528
14839WAT     H244760   1.771   3.428   3.417
14840WAT      O44761   9.856   6.789   2.235
14840WAT     H144762   9.791   6.851   2.280
14840WAT     H244763   9.907   6.839   2.166
14841WAT      O44764   5.839   3.024   5.982
14841WAT     H144765   5.928   3.070   5.991
14841WAT     H244766   5.780   3.078   5.921
14842WAT      O44767   5.891   4.491   1.838
14842WAT     H144768   5.940   4.478   1.752
14842WAT     H244769   5.955   4.483   1.914
14843WAT      O44770   1.900   0.866   1.593
14843WAT     H144771   1.849   0.781   1.607
14843WAT     H244772   1.993   0.856   1.630
14844WAT      O44773   2.620   4.640   9.044
14844WAT     H144774   2.694   4.694   9.003
14844WAT     H244775   2.641   4.543   9.035
14845WAT      O44776   7.027   4.968   2.726
14845WAT     H144777   6.941   4.942   2.682
14845WAT     H244778   7.017   4.963   2.825
14846WAT      O44779   2.692   1.490   9.044
14846WAT     H144780   2.751   1.412   9.065
14846WAT     H244781   2.627   1.465   8.972
14847WAT      O44782   3.479   6.265   3.855
14847WAT     H144783   3.455   6.193   3.920
14847WAT     H244784   3.566   6.243   3.811
14848WAT      O44785   2.444   6.868   3.533
14848WAT     H144786   2.493   6.809   3.597
14848WAT     H244787   2.348   6.840   3.529
14849WAT      O44788   0.381   3.049   6.587
14849WAT     H144789   0.382   2.983   6.662
14849WAT     H244790   0.352   3.003   6.503
14850WAT      O44791   5.563   3.681   0.356
14850WAT     H144792   5.585   3.691   0.453
14850WAT     H244793   5.644   3.702   0.301
14851WAT      O44794   2.896   8.165   7.564
14851WAT     H144795   2.866   8.126   7.651
14851WAT     H244796   2.923   8.091   7.502
14852WAT      O44797   2.998   4.434   9.819
14852WAT     H144798   2.947   4.349   9.810
14852WAT     H244799   3.033   4.443   9.912
14853WAT      O44800   8.752   4.664   5.442
14853WAT     H144801   8.801   4.601   5.381
14853WAT     H244802   8.673   4.617   5.481
14854WAT      O44803   5.758   2.026   4.648
14854WAT     H144804   5.809   1.956   4.699
14854WAT     H244805   5.721   1.986   4.564
14855WAT      O44806   2.136   0.917   6.107
14855WAT     H144807   2.183   0.846   6.159
14855WAT     H244808   2.040   0.892   6.095
14856WAT      O44809   5.342   5.735   7.249
14856WAT     H144810   5.360   5.673   7.326
14856WAT     H244811   5.406   5.716   7.175
14857WAT      O44812   0.542   7.596   1.446
14857WAT     H144813   0.603   7.585   1.524
14857WAT     H244814   0.596   7.596   1.361
14858WAT      O44815   0.276   1.176   2.006
14858WAT     H144816   0.339   1.111   1.963
14858WAT     H244817   0.261   1.150   2.102
14859WAT      O44818   3.458   0.743   1.871
14859WAT     H144819   3.486   0.665   1.816
14859WAT     H244820   3.539   0.795   1.900
14860WAT      O44821   3.062   9.830   6.549
14860WAT     H144822   3.105   9.858   6.463
14860WAT     H244823   2.965   9.814   6.534
14861WAT      O44824   5.188   0.982   5.170
14861WAT     H144825   5.135   0.916   5.117
14861WAT     H244826   5.151   0.986   5.263
14862WAT      O44827   7.288   2.379   9.727
14862WAT     H144828   7.282   2.289   9.771
14862WAT     H244829   7.384   2.400   9.708
14863WAT      O44830   8.356   6.360   4.934
14863WAT     H144831   8.291   6.379   5.007
14863WAT     H244832   8.310   6.314   4.858
14864WAT      O44833   3.301   6.466   4.159
14864WAT     H144834   3.343   6.375   4.160
14864WAT     H244835   3.326   6.514   4.075
14865WAT      O44836   1.245   8.673   5.735
14865WAT     H144837   1.174   8.695   5.667
14865WAT     H244838   1.278   8.757   5.778
14866WAT      O44839   0.179   7.170   6.921
14866WAT     H144840   0.195   7.268   6.938
14866WAT     H244841   0.264   7.127   6.892
14867WAT      O44842   1.054   7.463   9.221
14867WAT     H144843   1.026   7.514   9.302
14867WAT     H244844   0.990   7.482   9.146
14868WAT      O44845   0.219   4.927   5.352
14868WAT     H144846   0.289   4.877   5.403
14868WAT     H244847   0.252   5.019   5.332
14869WAT      O44848   6.966   7.496   7.513
14869WAT     H144849   6.949   7.574   7.574
14869WAT     H244850   6.881   7.470   7.468
14870WAT      O44851   7.392   2.010   5.489
14870WAT     H144852   7.352   2.098   5.462
14870WAT     H244853   7.337   1.936   5.452
14871WAT      O44854   7.488   8.053   7.458
14871WAT     H144855   7.559   8.105   7.506
14871WAT     H244856   7.457   8.104   7.378
14872WAT      O44857   4.907   8.510   2.783
14872WAT     H144858   4.815   8.477   2.763
14872WAT     H244859   4.943   8.465   2.865
14873WAT      O44860   9.018   2.863   6.748
14873WAT     H144861   9.003   2.950   6.794
14873WAT     H244862   9.037   2.792   6.816
14874WAT      O44863   5.858   0.279   1.820
14874WAT     H144864   5.850   0.187   1.859
14874WAT     H244865   5.823   0.279   1.726
14875WAT      O44866   6.752   5.755   1.046
14875WAT     H144867   6.735   5.710   0.958
14875WAT     H244868   6.684   5.827   1.061
14876WAT      O44869   5.338   8.165   1.685
14876WAT     H144870   5.353   8.213   1.598
14876WAT     H244871   5.405   8.196   1.752
14877WAT      O44872   3.926   0.343   8.909
14877WAT     H144873   3.931   0.442   8.920
14877WAT     H244874   3.880   0.320   8.824
14878WAT      O44875   4.203   7.094   0.663
14878WAT     H144876   4.296   7.071   0.638
14878WAT     H244877   4.167   7.162   0.600
14879WAT      O44878   8.695   7.282   9.408
14879WAT     H144879   8.605   7.326   9.410
14879WAT     H244880   8.684   7.185   9.390
14880WAT      O44881   8.667   1.039   4.813
14880WAT     H144882   8.726   1.000   4.884
14880WAT     H244883   8.721   1.055   4.730
14881WAT      O44884   5.990   2.943   7.771
14881WAT     H144885   5.943   2.932   7.684
14881WAT     H244886   5.927   2.977   7.840
14882WAT      O44887   8.837   2.343   4.488
14882WAT     H144888   8.799   2.344   4.580
14882WAT     H244889   8.936   2.352   4.493
14883WAT      O44890   9.097   4.537   7.369
14883WAT     H144891   9.105   4.455   7.426
14883WAT     H244892   9.069   4.614   7.427
14884WAT      O44893   4.296   4.208   6.425
14884WAT     H144894   4.343   4.296   6.421
14884WAT     H244895   4.298   4.166   6.334
14885WAT      O44896   6.616   6.512   0.714
14885WAT     H144897   6.545   6.582   0.718
14885WAT     H244898   6.704   6.554   0.737
14886WAT      O44899   6.777   8.851   4.195
14886WAT     H144900   6.847   8.870   4.264
14886WAT     H244901   6.716   8.780   4.228
14887WAT      O44902   7.033   3.220   7.457
14887WAT     H144903   7.090   3.138   7.460
14887WAT     H244904   6.943   3.199   7.495
14888WAT      O44905   3.912   2.226   6.438
14888WAT     H144906   3.857   2.148   6.469
14888WAT     H244907   3.853   2.291   6.390
14889WAT      O44908   8.670   5.329   9.384
14889WAT     H144909   8.765   5.307   9.363
14889WAT     H244910   8.642   5.281   9.467
14890WAT      O44911   7.135   7.348   4.510
14890WAT     H144912   7.161   7.268   4.456
14890WAT     H244913   7.069   7.403   4.459
14891WAT      O44914   1.892   5.184   2.772
14891WAT     H144915   1.932   5.102   2.813
14891WAT     H244916   1.914   5.264   2.828
14892WAT      O44917   6.860   3.728   9.604
14892WAT     H144918   6.849   3.825   9.583
14892WAT     H244919   6.935   3.716   9.669
14893WAT      O44920   7.354   3.353   3.673
14893WAT     H144921   7.272   3.406   3.694
14893WAT     H244922   7.359   3.275   3.735
14894WAT      O44923   4.907   7.707   7.437
14894WAT     H144924   4.896   7.632   7.502
14894WAT     H244925   4.937   7.670   7.349
14895WAT      O44926   6.108   5.498   3.956
14895WAT     H144927   6.150   5.413   3.988
14895WAT     H244928   6.022   5.476   3.909
14896WAT      O44929   5.478   7.799   2.708
14896WAT     H144930   5.436   7.769   2.794
14896WAT     H244931   5.452   7.737   2.634
14897WAT      O44932   8.993   5.287   6.448
14897WAT     H144933   8.969   5.364   6.387
14897WAT     H244934   9.091   5.288   6.466
14898WAT      O44935   4.390   7.567   1.274
14898WAT     H144936   4.438   7.489   1.235
14898WAT     H244937   4.312   7.535   1.328
14899WAT      O44938   2.802   7.618   3.297
14899WAT     H144939   2.838   7.626   3.390
14899WAT     H244940   2.702   7.617   3.300
14900WAT      O44941   8.651   1.393   2.959
14900WAT     H144942   8.573   1.386   3.020
14900WAT     H244943   8.622   1.374   2.865
14901WAT      O44944   2.894   0.697   5.222
14901WAT     H144945   2.944   0.614   5.199
14901WAT     H244946   2.937   0.775   5.177
14902WAT      O44947   1.792   2.831   0.637
14902WAT     H144948   1.765   2.920   0.673
14902WAT     H244949   1.774   2.828   0.538
14903WAT      O44950   5.980   0.541   3.178
14903WAT     H144951   6.073   0.510   3.161
14903WAT     H244952   5.936   0.481   3.245
14904WAT      O44953   1.580   2.538   1.813
14904WAT     H144954   1.617   2.576   1.729
14904WAT     H244955   1.654   2.508   1.873
14905WAT      O44956   7.715   1.288   5.076
14905WAT     H144957   7.779   1.224   5.119
14905WAT     H244958   7.630   1.290   5.128
14906WAT      O44959   4.908   9.820   2.094
14906WAT     H144960   4.810   9.839   2.094
14906WAT     H244961   4.957   9.898   2.054
14907WAT      O44962   4.625   8.936   7.084
14907WAT     H144963   4.587   9.013   7.134
14907WAT     H244964   4.561   8.860   7.086
14908WAT      O44965   8.920   0.340   7.574
14908WAT     H144966   8.879   0.284   7.502
14908WAT     H244967   8.852   0.406   7.607
14909WAT      O44968   6.491   2.144   4.032
14909WAT     H144969   6.461   2.187   4.117
14909WAT     H244970   6.534   2.213   3.973
14910WAT      O44971   0.581   7.339   8.603
14910WAT     H144972   0.512   7.388   8.552
14910WAT     H244973   0.543   7.309   8.691
14911WAT      O44974   9.628   7.034   5.711
14911WAT     H144975   9.703   7.050   5.775
14911WAT     H244976   9.665   7.004   5.623
14912WAT      O44977   2.985   1.194   0.770
14912WAT     H144978   2.902   1.192   0.827
14912WAT     H244979   3.037   1.110   0.784
14913WAT      O44980   8.916   5.295   3.861
14913WAT     H144981   8.967   5.378   3.884
14913WAT     H244982   8.828   5.319   3.822
14914WAT      O44983   4.341   6.457   6.961
14914WAT     H144984   4.329   6.388   7.032
14914WAT     H244985   4.439   6.465   6.939
14915WAT      O44986   5.265   3.568   8.744
14915WAT     H144987   5.317   3.490   8.706
14915WAT     H244988   5.297   3.586   8.837
14916WAT      O44989   6.096   5.890   0.532
14916WAT     H144990   6.047   5.845   0.606
14916WAT     H244991   6.036   5.955   0.487
14917WAT      O44992   5.416   0.547   6.658
14917WAT     H144993   5.328   0.585   6.629
14917WAT     H244994   5.420   0.450   6.633
14918WAT      O44995   3.029   9.822   7.658
14918WAT     H144996   3.021   9.894   7.726
14918WAT     H244997   2.941   9.811   7.610
14919WAT      O44998   2.995   0.489   8.428
14919WAT     H144999   2.929   0.515   8.499
14919WAT     H245000   3.085   0.475   8.470
14920WAT      O45001   8.499   2.071   7.781
14920WAT     H145002   8.545   2.049   7.695
14920WAT     H245003   8.518   2.167   7.805
14921WAT      O45004   4.990   8.335   3.337
14921WAT     H145005   5.080   8.378   3.344
14921WAT     H245006   5.001   8.236   3.337
14922WAT      O45007   3.448   4.956   7.940
14922WAT     H145008   3.455   4.930   7.843
14922WAT     H245009   3.511   5.030   7.959
14923WAT      O45010   0.940   0.135   7.232
14923WAT     H145011   0.841   0.121   7.225
14923WAT     H245012   0.966   0.214   7.176
14924WAT      O45013   3.571   0.171   2.280
14924WAT     H145014   3.662   0.133   2.266
14924WAT     H245015   3.553   0.181   2.378
14925WAT      O45016   4.573   2.595   7.276
14925WAT     H145017   4.648   2.593   7.342
14925WAT     H245018   4.504   2.528   7.301
14926WAT      O45019   0.763   7.215   0.791
14926WAT     H145020   0.665   7.236   0.784
14926WAT     H245021   0.797   7.185   0.703
14927WAT      O45022   6.352   0.304   0.653
14927WAT     H145023   6.413   0.280   0.578
14927WAT     H245024   6.263   0.262   0.639
14928WAT      O45025   6.218   1.875   9.016
14928WAT     H145026   6.138   1.843   9.067
14928WAT     H245027   6.222   1.975   9.019
14929WAT      O45028   4.445   0.235   9.572
14929WAT     H145029   4.425   0.139   9.551
14929WAT     H245030   4.522   0.239   9.636
14930WAT      O45031   6.798   8.013   4.701
14930WAT     H145032   6.798   8.098   4.649
14930WAT     H245033   6.743   7.944   4.652
14931WAT      O45034   8.474   8.846   4.125
14931WAT     H145035   8.485   8.935   4.168
14931WAT     H245036   8.564   8.804   4.111
14932WAT      O45037   1.074   0.441   4.462
14932WAT     H145038   1.054   0.344   4.477
14932WAT     H245039   0.991   0.487   4.430
14933WAT      O45040   0.606   5.585   6.969
14933WAT     H145041   0.550   5.549   7.044
14933WAT     H245042   0.703   5.577   6.994
14934WAT      O45043   4.213   1.960   9.013
14934WAT     H145044   4.236   1.863   9.026
14934WAT     H245045   4.293   2.016   9.034
14935WAT      O45046   6.533   2.651   2.655
14935WAT     H145047   6.461   2.583   2.644
14935WAT     H245048   6.561   2.655   2.751
14936WAT      O45049   8.220   3.212   0.193
14936WAT     H145050   8.300   3.176   0.240
14936WAT     H245051   8.249   3.259   0.109
14937WAT      O45052   1.586   1.643   3.692
14937WAT     H145053   1.555   1.642   3.597
14937WAT     H245054   1.511   1.616   3.752
14938WAT      O45055   6.060   1.885   4.807
14938WAT     H145056   6.040   1.917   4.900
14938WAT     H245057   6.000   1.807   4.785
14939WAT      O45058   0.026   9.293   8.273
14939WAT     H145059   0.090   9.265   8.201
14939WAT     H245060  -0.058   9.326   8.231
14940WAT      O45061   5.560   3.479   5.822
14940WAT     H145062   5.639   3.473   5.761
14940WAT     H245063   5.509   3.563   5.803
14941WAT      O45064   0.111   8.591   5.936
14941WAT     H145065   0.196   8.628   5.899
14941WAT     H245066   0.068   8.531   5.869
14942WAT      O45067   6.196   2.396   5.341
14942WAT     H145068   6.109   2.415   5.294
14942WAT     H245069   6.182   2.399   5.440
14943WAT      O45070   9.643   1.826   3.767
14943WAT     H145071   9.566   1.888   3.751
14943WAT     H245072   9.616   1.733   3.740
14944WAT      O45073   3.604   6.787   8.183
14944WAT     H145074   3.595   6.736   8.269
14944WAT     H245075   3.554   6.739   8.111
14945WAT      O45076   5.332   7.311   1.168
14945WAT     H145077   5.343   7.213   1.187
14945WAT     H245078   5.277   7.353   1.240
14946WAT      O45079   9.436   9.363   8.336
14946WAT     H145080   9.443   9.282   8.277
14946WAT     H245081   9.427   9.444   8.279
14947WAT      O45082   4.340   8.438   2.490
14947WAT     H145083   4.351   8.339   2.479
14947WAT     H245084   4.379   8.467   2.577
14948WAT      O45085   6.953   5.015   8.277
14948WAT     H145086   6.979   5.075   8.353
14948WAT     H245087   7.026   4.949   8.260
14949WAT      O45088   4.596   1.032   0.796
14949WAT     H145089   4.586   1.131   0.808
14949WAT     H245090   4.508   0.992   0.771
14950WAT      O45091   4.392   5.073   4.852
14950WAT     H145092   4.414   5.088   4.948
14950WAT     H245093   4.384   5.160   4.805
14951WAT      O45094   3.677   4.761   0.358
14951WAT     H145095   3.702   4.796   0.267
14951WAT     H245096   3.714   4.823   0.428
14952WAT      O45097   1.881   4.940   5.699
14952WAT     H145098   1.976   4.914   5.717
14952WAT     H245099   1.823   4.902   5.771
14953WAT      O45100   0.959   2.927   8.456
14953WAT     H145101   0.938   2.853   8.393
14953WAT     H245102   1.049   2.965   8.434
14954WAT      O45103   7.065   2.667   6.651
14954WAT     H145104   7.135   2.687   6.582
14954WAT     H245105   7.067   2.569   6.673
14955WAT      O45106   6.932   7.701   1.170
14955WAT     H145107   6.890   7.625   1.221
14955WAT     H245108   6.861   7.753   1.123
14956WAT      O45109   8.569   1.769   1.345
14956WAT     H145110   8.667   1.779   1.327
14956WAT     H245111   8.555   1.693   1.409
14957WAT      O45112   9.424   6.973   4.865
14957WAT     H145113   9.395   6.996   4.772
14957WAT     H245114   9.516   7.008   4.881
14958WAT      O45115   3.401   1.774   2.686
14958WAT     H145116   3.311   1.733   2.703
14958WAT     H245117   3.395   1.873   2.693
14959WAT      O45118   6.979   9.464   4.320
14959WAT     H145119   7.060   9.431   4.271
14959WAT     H245120   6.961   9.560   4.295
14960WAT      O45121   7.705   8.818   1.754
14960WAT     H145122   7.623   8.787   1.803
14960WAT     H245123   7.722   8.757   1.676
14961WAT      O45124   4.365   6.201   6.137
14961WAT     H145125   4.419   6.280   6.165
14961WAT     H245126   4.301   6.176   6.210
14962WAT      O45127   8.646   0.479   9.651
14962WAT     H145128   8.737   0.463   9.690
14962WAT     H245129   8.577   0.439   9.712
14963WAT      O45130   1.697   8.044   7.819
14963WAT     H145131   1.613   8.043   7.872
14963WAT     H245132   1.718   8.138   7.791
14964WAT      O45133   6.135   6.449   4.971
14964WAT     H145134   6.064   6.440   4.901
14964WAT     H245135   6.117   6.531   5.026
14965WAT      O45136   8.737   4.763   5.850
14965WAT     H145137   8.812   4.697   5.837
14965WAT     H245138   8.684   4.737   5.931
14966WAT      O45139   2.993   4.282   7.300
14966WAT     H145140   3.041   4.369   7.301
14966WAT     H245141   2.956   4.263   7.391
14967WAT      O45142   8.044   4.623   9.393
14967WAT     H145143   8.059   4.540   9.448
14967WAT     H245144   8.012   4.598   9.302
14968WAT      O45145   1.509   4.615   1.207
14968WAT     H145146   1.513   4.697   1.264
14968WAT     H245147   1.599   4.571   1.207
14969WAT      O45148   4.282   8.104   6.235
14969WAT     H145149   4.287   8.010   6.267
14969WAT     H245150   4.373   8.135   6.206
14970WAT      O45151   3.586   7.998   9.208
14970WAT     H145152   3.504   7.949   9.239
14970WAT     H245153   3.667   7.946   9.231
14971WAT      O45154   1.750   2.367   2.239
14971WAT     H145155   1.747   2.283   2.294
14971WAT     H245156   1.670   2.423   2.259
14972WAT      O45157   6.189   3.547   9.305
14972WAT     H145158   6.130   3.590   9.237
14972WAT     H245159   6.204   3.610   9.381
14973WAT      O45160   1.142   3.114   5.231
14973WAT     H145161   1.108   3.031   5.185
14973WAT     H245162   1.085   3.133   5.311
14974WAT      O45163   4.320   6.062   8.292
14974WAT     H145164   4.371   6.102   8.215
14974WAT     H245165   4.274   6.135   8.343
14975WAT      O45166   7.457   0.800   9.258
14975WAT     H145167   7.414   0.711   9.277
14975WAT     H245168   7.497   0.836   9.343
14976WAT      O45169   3.695   8.167   0.638
14976WAT     H145170   3.631   8.242   0.658
14976WAT     H245171   3.787   8.205   0.627
14977WAT      O45172   6.079   4.001   0.865
14977WAT     H145173   6.098   3.917   0.815
14977WAT     H245174   5.981   4.020   0.863
14978WAT      O45175   7.319   8.683   2.373
14978WAT     H145176   7.319   8.658   2.277
14978WAT     H245177   7.235   8.734   2.395
14979WAT      O45178   3.843   7.286   3.468
14979WAT     H145179   3.829   7.240   3.380
14979WAT     H245180   3.939   7.280   3.494
14980WAT      O45181   9.874   3.479   9.821
14980WAT     H145182   9.880   3.387   9.784
14980WAT     H245183   9.966   3.515   9.839
14981WAT      O45184   2.471   2.551   4.365
14981WAT     H145185   2.545   2.511   4.311
14981WAT     H245186   2.445   2.640   4.326
14982WAT      O45187   1.537   9.021   7.518
14982WAT     H145188   1.620   9.024   7.574
14982WAT     H245189   1.461   9.061   7.568
14983WAT      O45190   7.991   0.330   6.580
14983WAT     H145191   7.977   0.385   6.498
14983WAT     H245192   7.902   0.301   6.616
14984WAT      O45193   3.083   2.617   6.983
14984WAT     H145194   3.133   2.606   7.069
14984WAT     H245195   3.104   2.540   6.923
14985WAT      O45196   6.041   8.252   9.304
14985WAT     H145197   5.974   8.178   9.304
14985WAT     H245198   6.067   8.274   9.210
14986WAT      O45199   1.662   6.908   8.977
14986WAT     H145200   1.652   6.937   8.882
14986WAT     H245201   1.601   6.963   9.035
14987WAT      O45202   2.009   8.509   1.971
14987WAT     H145203   1.927   8.503   2.029
14987WAT     H245204   1.982   8.509   1.875
14988WAT      O45205   7.251   3.858   2.476
14988WAT     H145206   7.301   3.775   2.502
14988WAT     H245207   7.155   3.835   2.459
14989WAT      O45208   0.775   6.803   6.232
14989WAT     H145209   0.840   6.769   6.165
14989WAT     H245210   0.801   6.773   6.324
14990WAT      O45211   6.389   6.919   1.640
14990WAT     H145212   6.380   7.018   1.655
14990WAT     H245213   6.301   6.880   1.616
14991WAT      O45214   8.322   8.222   5.966
14991WAT     H145215   8.289   8.238   6.060
14991WAT     H245216   8.343   8.310   5.924
14992WAT      O45217   7.014   7.819   8.020
14992WAT     H145218   7.092   7.827   7.958
14992WAT     H245219   6.972   7.729   8.010
14993WAT      O45220   7.651   7.487   5.988
14993WAT     H145221   7.594   7.447   6.059
14993WAT     H245222   7.733   7.526   6.029
14994WAT      O45223   1.883   9.243   0.798
14994WAT     H145224   1.950   9.191   0.745
14994WAT     H245225   1.837   9.309   0.739
14995WAT      O45226   2.210   2.839   1.307
14995WAT     H145227   2.133   2.777   1.291
14995WAT     H245228   2.276   2.795   1.367
14996WAT      O45229   8.858   6.957   4.010
14996WAT     H145230   8.822   6.865   4.027
14996WAT     H245231   8.896   6.961   3.918
14997WAT      O45232   8.094   1.602   4.451
14997WAT     H145233   8.184   1.567   4.426
14997WAT     H245234   8.051   1.540   4.517
14998WAT      O45235   7.465   3.138   6.544
14998WAT     H145236   7.412   3.091   6.474
14998WAT     H245237   7.518   3.071   6.596
14999WAT      O45238   6.974   0.733   7.601
14999WAT     H145239   6.897   0.778   7.556
14999WAT     H245240   7.014   0.666   7.539
15000WAT      O45241   9.776   2.339   4.862
15000WAT     H145242   9.859   2.395   4.862
15000WAT     H245243   9.797   2.248   4.897
15001WAT      O45244   8.711   7.030   0.836
15001WAT     H145245   8.637   7.011   0.771
15001WAT     H245246   8.723   6.952   0.897
15002WAT      O45247   5.148   7.055   6.532
15002WAT     H145248   5.179   7.133   6.587
15002WAT     H245249   5.063   7.080   6.485
15003WAT      O45250   6.270   7.637   8.242
15003WAT     H145251   6.325   7.627   8.325
15003WAT     H245252   6.231   7.729   8.238
15004WAT      O45253   3.646   5.372   9.258
15004WAT     H145254   3.596   5.316   9.192
15004WAT     H245255   3.661   5.463   9.220
15005WAT      O45256   0.545   7.458   3.446
15005WAT     H145257   0.543   7.392   3.522
15005WAT     H245258   0.594   7.540   3.474
15006WAT      O45259   4.914   6.991   5.342
15006WAT     H145260   4.981   6.949   5.403
15006WAT     H245261   4.924   6.954   5.250
15007WAT      O45262   2.610   3.780   6.297
15007WAT     H145263   2.535   3.807   6.237
15007WAT     H245264   2.694   3.826   6.268
15008WAT      O45265   5.335   5.900   0.725
15008WAT     H145266   5.293   5.894   0.815
15008WAT     H245267   5.406   5.971   0.725
15009WAT      O45268   6.339   9.416   5.266
15009WAT     H145269   6.259   9.464   5.302
15009WAT     H245270   6.396   9.480   5.215
15010WAT      O45271   9.611   1.407   6.082
15010WAT     H145272   9.563   1.475   6.026
15010WAT     H245273   9.697   1.446   6.115
15011WAT      O45274   6.033   4.191   5.235
15011WAT     H145275   6.063   4.279   5.200
15011WAT     H245276   6.056   4.119   5.170
15012WAT      O45277   6.464   6.658   0.447
15012WAT     H145278   6.404   6.738   0.441
15012WAT     H245279   6.423   6.591   0.509
15013WAT      O45280   5.232   8.433   3.433
15013WAT     H145281   5.269   8.354   3.384
15013WAT     H245282   5.244   8.419   3.531
15014WAT      O45283   7.186   6.621   7.737
15014WAT     H145284   7.239   6.537   7.751
15014WAT     H245285   7.247   6.700   7.738
15015WAT      O45286   9.829   6.710   9.509
15015WAT     H145287   9.778   6.711   9.423
15015WAT     H245288   9.867   6.618   9.523
15016WAT      O45289   5.230   4.207   8.730
15016WAT     H145290   5.320   4.170   8.754
15016WAT     H245291   5.216   4.294   8.776
15017WAT      O45292   3.483   0.431   3.603
15017WAT     H145293   3.570   0.400   3.565
15017WAT     H245294   3.478   0.405   3.700
15018WAT      O45295   0.660   4.873   7.250
15018WAT     H145296   0.594   4.859   7.324
15018WAT     H245297   0.713   4.789   7.237
15019WAT      O45298   9.135   8.889   7.138
15019WAT     H145299   9.083   8.969   7.105
15019WAT     H245300   9.098   8.861   7.227
15020WAT      O45301   3.325   5.807   0.256
15020WAT     H145302   3.302   5.711   0.237
15020WAT     H245303   3.397   5.837   0.194
15021WAT      O45304   8.036   3.033   9.752
15021WAT     H145305   8.087   3.033   9.666
15021WAT     H245306   8.023   3.128   9.783
15022WAT      O45307   7.756   1.270   7.527
15022WAT     H145308   7.733   1.311   7.438
15022WAT     H245309   7.710   1.322   7.600
15023WAT      O45310   6.405   5.001   5.046
15023WAT     H145311   6.463   5.068   5.091
15023WAT     H245312   6.310   5.033   5.047
15024WAT      O45313   4.876   3.785   7.746
15024WAT     H145314   4.896   3.700   7.794
15024WAT     H245315   4.801   3.769   7.682
15025WAT      O45316   0.264   1.411   8.901
15025WAT     H145317   0.233   1.431   8.808
15025WAT     H245318   0.269   1.312   8.914
15026WAT      O45319   9.831   0.063   6.536
15026WAT     H145320   9.772   0.133   6.496
15026WAT     H245321   9.925   0.076   6.505
15027WAT      O45322   6.400   7.174   5.097
15027WAT     H145323   6.368   7.185   5.191
15027WAT     H245324   6.495   7.141   5.098
15028WAT      O45325   7.026   4.925   4.232
15028WAT     H145326   6.998   4.893   4.141
15028WAT     H245327   7.098   4.993   4.223
15029WAT      O45328   9.625   3.323   7.895
15029WAT     H145329   9.642   3.227   7.919
15029WAT     H245330   9.535   3.350   7.929
15030WAT      O45331   9.380   4.385   9.685
15030WAT     H145332   9.292   4.418   9.718
15030WAT     H245333   9.408   4.305   9.739
15031WAT      O45334   6.288   9.277   7.599
15031WAT     H145335   6.193   9.298   7.619
15031WAT     H245336   6.346   9.308   7.675
15032WAT      O45337   0.269   2.841   9.685
15032WAT     H145338   0.308   2.813   9.772
15032WAT     H245339   0.331   2.815   9.611
15033WAT      O45340   8.433   4.926   1.794
15033WAT     H145341   8.529   4.950   1.805
15033WAT     H245342   8.376   4.996   1.839
15034WAT      O45343   2.895   6.800   2.300
15034WAT     H145344   2.828   6.836   2.234
15034WAT     H245345   2.921   6.707   2.274
15035WAT      O45346   4.158   8.638   4.602
15035WAT     H145347   4.193   8.705   4.667
15035WAT     H245348   4.107   8.685   4.530
15036WAT      O45349   7.521   8.474   5.771
15036WAT     H145350   7.569   8.387   5.783
15036WAT     H245351   7.587   8.548   5.761
15037WAT      O45352   8.728   8.964   5.026
15037WAT     H145353   8.654   8.898   5.043
15037WAT     H245354   8.725   9.035   5.096
15038WAT      O45355   6.583   5.819   8.574
15038WAT     H145356   6.521   5.881   8.526
15038WAT     H245357   6.545   5.799   8.665
15039WAT      O45358   4.842   7.793   3.457
15039WAT     H145359   4.871   7.819   3.549
15039WAT     H245360   4.802   7.701   3.460
15040WAT      O45361   7.129   6.047   7.991
15040WAT     H145362   7.195   6.030   8.065
15040WAT     H245363   7.096   6.142   7.998
15041WAT      O45364   9.191   1.663   1.949
15041WAT     H145365   9.180   1.595   2.021
15041WAT     H245366   9.103   1.681   1.905
15042WAT      O45367   6.710   8.173   9.795
15042WAT     H145368   6.672   8.090   9.836
15042WAT     H245369   6.758   8.149   9.711
15043WAT      O45370   5.475   1.680   1.198
15043WAT     H145371   5.530   1.762   1.213
15043WAT     H245372   5.382   1.694   1.234
15044WAT      O45373   1.118   6.375   1.064
15044WAT     H145374   1.155   6.449   1.122
15044WAT     H245375   1.155   6.384   0.972
15045WAT      O45376   6.114   8.749   2.238
15045WAT     H145377   6.069   8.838   2.236
15045WAT     H245378   6.059   8.685   2.292
15046WAT      O45379   7.349   5.135   1.391
15046WAT     H145380   7.324   5.223   1.431
15046WAT     H245381   7.441   5.141   1.352
15047WAT      O45382   5.815   1.920   6.494
15047WAT     H145383   5.748   1.896   6.423
15047WAT     H245384   5.905   1.887   6.467
15048WAT      O45385   7.220   1.036   0.380
15048WAT     H145386   7.124   1.062   0.369
15048WAT     H245387   7.225   0.946   0.425
15049WAT      O45388   7.473   0.390   5.591
15049WAT     H145389   7.420   0.317   5.547
15049WAT     H245390   7.570   0.380   5.568
15050WAT      O45391   2.239   1.951   2.072
15050WAT     H145392   2.170   2.014   2.036
15050WAT     H245393   2.326   1.999   2.084
15051WAT      O45394   0.725   7.403   9.398
15051WAT     H145395   0.672   7.324   9.366
15051WAT     H245396   0.805   7.371   9.449
15052WAT      O45397   8.419   1.168   4.829
15052WAT     H145398   8.419   1.255   4.780
15052WAT     H245399   8.508   1.153   4.871
15053WAT      O45400   2.980   0.475   4.251
15053WAT     H145401   2.940   0.397   4.298
15053WAT     H245402   2.919   0.507   4.179
15054WAT      O45403   4.423   0.861   8.129
15054WAT     H145404   4.500   0.882   8.190
15054WAT     H245405   4.457   0.811   8.049
15055WAT      O45406   3.810   0.132   0.660
15055WAT     H145407   3.772   0.224   0.667
15055WAT     H245408   3.740   0.069   0.625
15056WAT      O45409   8.042   3.255   2.241
15056WAT     H145410   8.089   3.184   2.189
15056WAT     H245411   7.995   3.317   2.178
15057WAT      O45412   5.821   9.589   0.671
15057WAT     H145413   5.722   9.598   0.671
15057WAT     H245414   5.848   9.505   0.717
15058WAT      O45415   3.502   2.838   6.163
15058WAT     H145416   3.443   2.917   6.179
15058WAT     H245417   3.472   2.791   6.080
15059WAT      O45418   2.417   7.516   0.117
15059WAT     H145419   2.419   7.514   0.217
15059WAT     H245420   2.462   7.599   0.085
15060WAT      O45421   1.120   9.575   3.739
15060WAT     H145422   1.196   9.641   3.735
15060WAT     H245423   1.090   9.564   3.834
15061WAT      O45424   1.594   0.721   9.207
15061WAT     H145425   1.676   0.672   9.237
15061WAT     H245426   1.521   0.708   9.274
15062WAT      O45427   9.060   0.620   3.529
15062WAT     H145428   9.046   0.615   3.430
15062WAT     H245429   9.032   0.534   3.571
15063WAT      O45430   4.925   9.333   7.455
15063WAT     H145431   4.888   9.287   7.375
15063WAT     H245432   4.880   9.299   7.537
15064WAT      O45433   0.112   5.643   4.505
15064WAT     H145434   0.173   5.714   4.541
15064WAT     H245435   0.165   5.561   4.485
15065WAT      O45436   3.966   1.944   6.853
15065WAT     H145437   3.967   1.900   6.943
15065WAT     H245438   4.025   1.893   6.791
15066WAT      O45439   2.616   2.685   6.737
15066WAT     H145440   2.599   2.717   6.644
15066WAT     H245441   2.714   2.666   6.749
15067WAT      O45442   4.443   7.312   8.437
15067WAT     H145443   4.438   7.240   8.368
15067WAT     H245444   4.350   7.337   8.465
15068WAT      O45445   3.338   8.039   2.431
15068WAT     H145446   3.250   8.057   2.474
15068WAT     H245447   3.381   8.125   2.404
15069WAT      O45448   7.516   0.126   1.724
15069WAT     H145449   7.435   0.120   1.666
15069WAT     H245450   7.506   0.204   1.787
15070WAT      O45451   6.157   0.567   5.559
15070WAT     H145452   6.106   0.630   5.500
15070WAT     H245453   6.141   0.473   5.529
15071WAT      O45454   8.031   5.728   8.337
15071WAT     H145455   8.013   5.823   8.311
15071WAT     H245456   8.040   5.673   8.254
15072WAT      O45457   7.841   1.089   7.002
15072WAT     H145458   7.763   1.123   7.054
15072WAT     H245459   7.809   1.038   6.922
15073WAT      O45460   4.908   9.287   2.845
15073WAT     H145461   5.005   9.263   2.853
15073WAT     H245462   4.875   9.261   2.755
15074WAT      O45463   8.628   1.499   2.377
15074WAT     H145464   8.659   1.414   2.335
15074WAT     H245465   8.666   1.508   2.469
15075WAT      O45466   5.553   7.911   3.699
15075WAT     H145467   5.503   7.844   3.645
15075WAT     H245468   5.569   7.875   3.791
15076WAT      O45469   8.711   0.229   8.702
15076WAT     H145470   8.731   0.270   8.791
15076WAT     H245471   8.634   0.165   8.711
15077WAT      O45472   1.140   2.013   0.966
15077WAT     H145473   1.211   1.989   1.032
15077WAT     H245474   1.182   2.046   0.882
15078WAT      O45475   5.464   5.910   9.490
15078WAT     H145476   5.374   5.929   9.530
15078WAT     H245477   5.453   5.860   9.404
15079WAT      O45478   9.103   9.450   5.063
15079WAT     H145479   9.094   9.356   5.029
15079WAT     H245480   9.019   9.477   5.110
15080WAT      O45481   7.048   5.763   5.515
15080WAT     H145482   7.073   5.677   5.471
15080WAT     H245483   7.131   5.815   5.535
15081WAT      O45484   4.445   0.347   2.872
15081WAT     H145485   4.457   0.263   2.820
15081WAT     H245486   4.472   0.426   2.817
15082WAT      O45487   8.907   8.658   5.458
15082WAT     H145488   8.896   8.654   5.359
15082WAT     H245489   9.004   8.645   5.481
15083WAT      O45490   8.421   5.183   1.957
15083WAT     H145491   8.390   5.119   2.028
15083WAT     H245492   8.511   5.155   1.925
15084WAT      O45493   5.627   2.873   1.278
15084WAT     H145494   5.536   2.840   1.301
15084WAT     H245495   5.627   2.914   1.187
15085WAT      O45496   9.681   6.181   8.369
15085WAT     H145497   9.692   6.278   8.390
15085WAT     H245498   9.585   6.155   8.383
15086WAT      O45499   6.218   0.247   7.289
15086WAT     H145500   6.159   0.214   7.215
15086WAT     H245501   6.253   0.169   7.340
15087WAT      O45502   5.183   2.441   5.242
15087WAT     H145503   5.128   2.381   5.183
15087WAT     H245504   5.264   2.471   5.192
15088WAT      O45505   2.828   1.549   6.651
15088WAT     H145506   2.819   1.453   6.624
15088WAT     H245507   2.781   1.564   6.738
15089WAT      O45508   0.411   9.076   1.242
15089WAT     H145509   0.377   9.161   1.202
15089WAT     H245510   0.511   9.077   1.242
15090WAT      O45511   6.774   5.540   8.674
15090WAT     H145512   6.697   5.603   8.673
15090WAT     H245513   6.741   5.447   8.661
15091WAT      O45514   0.728   0.289   2.443
15091WAT     H145515   0.817   0.299   2.487
15091WAT     H245516   0.740   0.247   2.353
15092WAT      O45517   0.725   6.713   4.688
15092WAT     H145518   0.774   6.628   4.668
15092WAT     H245519   0.655   6.729   4.619
15093WAT      O45520   1.602   0.858   6.729
15093WAT     H145521   1.670   0.827   6.663
15093WAT     H245522   1.542   0.781   6.754
15094WAT      O45523   5.909   9.260   7.926
15094WAT     H145524   5.816   9.259   7.962
15094WAT     H245525   5.917   9.194   7.851
15095WAT      O45526   4.012   7.933   2.230
15095WAT     H145527   4.092   7.982   2.195
15095WAT     H245528   3.935   7.997   2.239
15096WAT      O45529   4.322   4.788   7.744
15096WAT     H145530   4.410   4.788   7.790
15096WAT     H245531   4.321   4.718   7.673
15097WAT      O45532   2.845   3.204   2.693
15097WAT     H145533   2.937   3.167   2.681
15097WAT     H245534   2.850   3.304   2.703
15098WAT      O45535   1.404   4.062   5.775
15098WAT     H145536   1.335   4.022   5.836
15098WAT     H245537   1.359   4.127   5.713
15099WAT      O45538   0.661   8.863   3.824
15099WAT     H145539   0.624   8.783   3.776
15099WAT     H245540   0.714   8.918   3.760
15100WAT      O45541   2.536   3.615   7.231
15100WAT     H145542   2.590   3.556   7.291
15100WAT     H245543   2.453   3.644   7.278
15101WAT      O45544   2.457   0.925   4.414
15101WAT     H145545   2.523   0.986   4.370
15101WAT     H245546   2.474   0.923   4.512
15102WAT      O45547   4.597   7.187   8.718
15102WAT     H145548   4.565   7.095   8.694
15102WAT     H245549   4.568   7.252   8.648
15103WAT      O45550   0.270   0.234   7.520
15103WAT     H145551   0.266   0.234   7.420
15103WAT     H245552   0.299   0.324   7.553
15104WAT      O45553   8.430   1.838   0.413
15104WAT     H145554   8.450   1.842   0.511
15104WAT     H245555   8.512   1.808   0.364
15105WAT      O45556   6.710   8.301   4.012
15105WAT     H145557   6.774   8.349   4.072
15105WAT     H245558   6.630   8.359   3.995
15106WAT      O45559   4.940   0.298   6.304
15106WAT     H145560   4.949   0.397   6.298
15106WAT     H245561   5.012   0.254   6.251
15107WAT      O45562   4.330   4.408   2.570
15107WAT     H145563   4.404   4.476   2.570
15107WAT     H245564   4.336   4.353   2.487
15108WAT      O45565   9.118   9.590   8.350
15108WAT     H145566   9.042   9.534   8.317
15108WAT     H245567   9.086   9.684   8.365
15109WAT      O45568   7.841   3.092   1.908
15109WAT     H145569   7.797   3.017   1.858
15109WAT     H245570   7.836   3.074   2.006
15110WAT      O45571   0.449   1.150   4.452
15110WAT     H145572   0.431   1.248   4.456
15110WAT     H245573   0.363   1.100   4.459
15111WAT      O45574   0.974   5.042   7.311
15111WAT     H145575   0.987   5.139   7.291
15111WAT     H245576   0.894   5.031   7.370
15112WAT      O45577   4.744   9.618   9.060
15112WAT     H145578   4.729   9.569   9.146
15112WAT     H245579   4.655   9.641   9.020
15113WAT      O45580   6.007   8.154   3.274
15113WAT     H145581   5.955   8.087   3.221
15113WAT     H245582   6.101   8.158   3.240
15114WAT      O45583   1.809   6.878   2.082
15114WAT     H145584   1.770   6.804   2.027
15114WAT     H245585   1.866   6.936   2.024
15115WAT      O45586   9.881   6.769   4.201
15115WAT     H145587   9.792   6.781   4.245
15115WAT     H245588   9.950   6.825   4.248
15116WAT      O45589   0.397   0.683   2.156
15116WAT     H145590   0.427   0.593   2.188
15116WAT     H245591   0.470   0.725   2.102
15117WAT      O45592   4.426   3.456   0.828
15117WAT     H145593   4.335   3.465   0.787
15117WAT     H245594   4.427   3.377   0.889
15118WAT      O45595   6.356   2.133   6.225
15118WAT     H145596   6.440   2.089   6.257
15118WAT     H245597   6.339   2.215   6.280
15119WAT      O45598   3.437   4.119   4.224
15119WAT     H145599   3.377   4.051   4.182
15119WAT     H245600   3.469   4.183   4.154
15120WAT      O45601   5.578   8.852   1.525
15120WAT     H145602   5.672   8.841   1.494
15120WAT     H245603   5.558   8.949   1.538
15121WAT      O45604   0.409   2.322   9.521
15121WAT     H145605   0.412   2.309   9.620
15121WAT     H245606   0.410   2.233   9.475
15122WAT      O45607   3.787   1.949   8.318
15122WAT     H145608   3.701   1.965   8.366
15122WAT     H245609   3.860   1.933   8.385
15123WAT      O45610   2.158   6.006   0.105
15123WAT     H145611   2.238   6.014   0.045
15123WAT     H245612   2.140   6.093   0.150
15124WAT      O45613   6.738   9.235   9.795
15124WAT     H145614   6.788   9.263   9.713
15124WAT     H245615   6.665   9.302   9.814
15125WAT      O45616   6.686   6.793   8.845
15125WAT     H145617   6.594   6.831   8.829
15125WAT     H245618   6.739   6.856   8.902
15126WAT      O45619   0.946   8.535   9.605
15126WAT     H145620   0.944   8.438   9.582
15126WAT     H245621   1.034   8.558   9.648
15127WAT      O45622   0.842   6.259   2.005
15127WAT     H145623   0.759   6.301   1.968
15127WAT     H245624   0.820   6.210   2.089
15128WAT      O45625   5.867   4.856   2.655
15128WAT     H145626   5.806   4.909   2.713
15128WAT     H245627   5.954   4.842   2.703
15129WAT      O45628   8.882   9.760   1.700
15129WAT     H145629   8.980   9.760   1.678
15129WAT     H245630   8.830   9.729   1.620
15130WAT      O45631   5.639   1.552   7.289
15130WAT     H145632   5.660   1.538   7.386
15130WAT     H245633   5.627   1.463   7.244
15131WAT      O45634   8.556   7.921   4.975
15131WAT     H145635   8.612   7.861   4.918
15131WAT     H245636   8.528   7.871   5.058
15132WAT      O45637   0.162   1.654   7.690
15132WAT     H145638   0.072   1.613   7.677
15132WAT     H245639   0.185   1.654   7.787
15133WAT      O45640   1.116   1.465   4.893
15133WAT     H145641   1.199   1.455   4.946
15133WAT     H245642   1.044   1.406   4.931
15134WAT      O45643   6.403   3.391   9.208
15134WAT     H145644   6.318   3.434   9.238
15134WAT     H245645   6.429   3.427   9.119
15135WAT      O45646   3.956   2.657   6.656
15135WAT     H145647   3.963   2.590   6.583
15135WAT     H245648   4.043   2.663   6.704
15136WAT      O45649   9.057   0.481   2.834
15136WAT     H145650   9.006   0.411   2.783
15136WAT     H245651   9.124   0.523   2.774
15137WAT      O45652   7.045   1.210   8.548
15137WAT     H145653   6.952   1.215   8.583
15137WAT     H245654   7.082   1.303   8.540
15138WAT      O45655   8.690   3.430   5.770
15138WAT     H145656   8.641   3.343   5.757
15138WAT     H245657   8.626   3.500   5.802
15139WAT      O45658   8.269   1.899   8.885
15139WAT     H145659   8.207   1.976   8.867
15139WAT     H245660   8.218   1.822   8.921
15140WAT      O45661   0.079   3.516   2.402
15140WAT     H145662   0.090   3.502   2.501
15140WAT     H245663   0.147   3.461   2.353
15141WAT      O45664   7.718   3.458   3.002
15141WAT     H145665   7.720   3.539   2.943
15141WAT     H245666   7.630   3.411   2.992
15142WAT      O45667   9.724   7.890   9.255
15142WAT     H145668   9.684   7.841   9.178
15142WAT     H245669   9.701   7.987   9.248
15143WAT      O45670   3.025   3.950   3.662
15143WAT     H145671   3.001   3.998   3.578
15143WAT     H245672   3.095   3.881   3.642
15144WAT      O45673   6.750   1.659   9.043
15144WAT     H145674   6.718   1.721   9.115
15144WAT     H245675   6.819   1.705   8.988
15145WAT      O45676   4.060   5.196   4.556
15145WAT     H145677   4.118   5.183   4.476
15145WAT     H245678   4.072   5.289   4.590
15146WAT      O45679   3.294   6.183   8.770
15146WAT     H145680   3.307   6.120   8.846
15146WAT     H245681   3.326   6.140   8.685
15147WAT      O45682   6.145   9.053   6.820
15147WAT     H145683   6.209   8.977   6.805
15147WAT     H245684   6.065   9.040   6.761
15148WAT      O45685   7.554   6.579   9.360
15148WAT     H145686   7.571   6.677   9.355
15148WAT     H245687   7.638   6.529   9.341
15149WAT      O45688   3.423   3.802   1.910
15149WAT     H145689   3.485   3.870   1.950
15149WAT     H245690   3.401   3.732   1.978
15150WAT      O45691   0.333   0.080   7.014
15150WAT     H145692   0.280   0.095   6.930
15150WAT     H245693   0.423   0.043   6.990
15151WAT      O45694   7.985   1.362   0.461
15151WAT     H145695   8.076   1.401   0.475
15151WAT     H245696   7.992   1.263   0.448
15152WAT      O45697   5.196   4.138   1.544
15152WAT     H145698   5.155   4.111   1.457
15152WAT     H245699   5.251   4.221   1.531
15153WAT      O45700   4.417   4.899   1.943
15153WAT     H145701   4.337   4.951   1.973
15153WAT     H245702   4.489   4.905   2.012
15154WAT      O45703   2.520   7.326   4.070
15154WAT     H145704   2.507   7.298   4.165
15154WAT     H245705   2.443   7.293   4.015
15155WAT      O45706   4.034   2.673   2.456
15155WAT     H145707   4.116   2.668   2.514
15155WAT     H245708   3.960   2.717   2.507
15156WAT      O45709   2.782   8.733   5.960
15156WAT     H145710   2.869   8.706   6.000
15156WAT     H245711   2.775   8.833   5.959
15157WAT      O45712   8.266   2.386   9.447
15157WAT     H145713   8.333   2.321   9.482
15157WAT     H245714   8.309   2.476   9.437
15158WAT      O45715   3.253   3.939   3.188
15158WAT     H145716   3.292   3.913   3.277
15158WAT     H245717   3.326   3.950   3.121
15159WAT      O45718   6.359   3.395   0.755
15159WAT     H145719   6.377   3.299   0.738
15159WAT     H245720   6.343   3.443   0.669
15160WAT      O45721   3.688   6.583   1.927
15160WAT     H145722   3.780   6.574   1.965
15160WAT     H245723   3.621   6.547   1.992
15161WAT      O45724   4.748   2.615   7.479
15161WAT     H145725   4.739   2.705   7.522
15161WAT     H245726   4.723   2.544   7.546
15162WAT      O45727   7.255   2.097   8.917
15162WAT     H145728   7.294   2.061   9.002
15162WAT     H245729   7.329   2.114   8.851
15163WAT      O45730   8.820   2.874   5.374
15163WAT     H145731   8.834   2.900   5.470
15163WAT     H245732   8.781   2.783   5.369
15164WAT      O45733   4.524   3.926   6.146
15164WAT     H145734   4.545   3.854   6.211
15164WAT     H245735   4.576   4.008   6.168
15165WAT      O45736   1.296   6.858   2.179
15165WAT     H145737   1.241   6.774   2.188
15165WAT     H245738   1.313   6.896   2.270
15166WAT      O45739   3.667   5.829   7.934
15166WAT     H145740   3.592   5.770   7.903
15166WAT     H245741   3.753   5.795   7.896
15167WAT      O45742   5.259   4.190   8.093
15167WAT     H145743   5.226   4.109   8.142
15167WAT     H245744   5.189   4.222   8.030
15168WAT      O45745   3.632   2.671   6.324
15168WAT     H145746   3.608   2.679   6.420
15168WAT     H245747   3.572   2.730   6.270
15169WAT      O45748   5.873   0.457   9.153
15169WAT     H145749   5.802   0.482   9.219
15169WAT     H245750   5.874   0.523   9.079
15170WAT      O45751   9.772   2.488   1.995
15170WAT     H145752   9.765   2.489   2.094
15170WAT     H245753   9.834   2.416   1.966
15171WAT      O45754   5.676   1.230   0.184
15171WAT     H145755   5.665   1.305   0.249
15171WAT     H245756   5.631   1.148   0.219
15172WAT      O45757   2.368   7.179   0.930
15172WAT     H145758   2.384   7.221   1.019
15172WAT     H245759   2.411   7.235   0.858
15173WAT      O45760   1.226   3.587   1.894
15173WAT     H145761   1.145   3.626   1.937
15173WAT     H245762   1.233   3.490   1.918
15174WAT      O45763   8.376   5.916   8.238
15174WAT     H145764   8.421   5.974   8.306
15174WAT     H245765   8.277   5.926   8.246
15175WAT      O45766   3.789   3.595   0.003
15175WAT     H145767   3.879   3.609   0.044
15175WAT     H245768   3.786   3.638  -0.087
15176WAT      O45769   4.694   0.972   2.182
15176WAT     H145770   4.728   0.878   2.191
15176WAT     H245771   4.694   0.998   2.086
15177WAT      O45772   2.988   2.406   2.110
15177WAT     H145773   2.925   2.387   2.186
15177WAT     H245774   3.080   2.376   2.135
15178WAT      O45775   5.081   9.680   1.089
15178WAT     H145776   5.059   9.688   0.992
15178WAT     H245777   5.125   9.764   1.120
15179WAT      O45778   3.144   9.687   2.082
15179WAT     H145779   3.166   9.731   2.169
15179WAT     H245780   3.045   9.680   2.071
15180WAT      O45781   9.841   7.736   6.958
15180WAT     H145782   9.796   7.813   7.003
15180WAT     H245783   9.916   7.703   7.016
15181WAT      O45784   8.334   9.794   3.648
15181WAT     H145785   8.321   9.858   3.724
15181WAT     H245786   8.279   9.712   3.664
15182WAT      O45787   2.628   9.063   9.206
15182WAT     H145788   2.686   9.070   9.287
15182WAT     H245789   2.534   9.046   9.233
15183WAT      O45790   8.099   0.752   6.873
15183WAT     H145791   8.073   0.806   6.954
15183WAT     H245792   8.150   0.671   6.903
15184WAT      O45793   5.974   5.341   8.401
15184WAT     H145794   5.939   5.295   8.319
15184WAT     H245795   6.047   5.404   8.376
15185WAT      O45796   6.123   8.352   9.559
15185WAT     H145797   6.195   8.419   9.541
15185WAT     H245798   6.102   8.303   9.474
15186WAT      O45799   0.610   9.347   7.020
15186WAT     H145800   0.515   9.316   7.020
15186WAT     H245801   0.669   9.273   6.990
15187WAT      O45802   5.913   1.680   4.693
15187WAT     H145803   5.887   1.704   4.599
15187WAT     H245804   6.000   1.631   4.692
15188WAT      O45805   2.263   2.086   2.589
15188WAT     H145806   2.213   2.050   2.510
15188WAT     H245807   2.351   2.039   2.596
15189WAT      O45808   2.998   0.079   3.116
15189WAT     H145809   3.067   0.008   3.129
15189WAT     H245810   3.036   0.168   3.142
15190WAT      O45811   6.959   3.226   1.012
15190WAT     H145812   7.017   3.298   1.051
15190WAT     H245813   6.908   3.181   1.086
15191WAT      O45814   7.800   9.785   4.884
15191WAT     H145815   7.718   9.770   4.939
15191WAT     H245816   7.781   9.855   4.815
15192WAT      O45817   4.165   1.521   9.879
15192WAT     H145818   4.213   1.450   9.827
15192WAT     H245819   4.088   1.480   9.927
15193WAT      O45820   1.691   3.062   2.388
15193WAT     H145821   1.746   3.067   2.472
15193WAT     H245822   1.719   2.984   2.334
15194WAT      O45823   7.046   6.012   8.826
15194WAT     H145824   7.105   6.042   8.752
15194WAT     H245825   7.091   5.938   8.877
15195WAT      O45826   0.980   8.025   2.192
15195WAT     H145827   1.068   8.016   2.239
15195WAT     H245828   0.933   8.106   2.226
15196WAT      O45829   0.784   5.064   7.487
15196WAT     H145830   0.724   5.138   7.459
15196WAT     H245831   0.731   4.993   7.533
15197WAT      O45832   4.680   9.049   6.647
15197WAT     H145833   4.713   9.018   6.737
15197WAT     H245834   4.689   9.148   6.641
15198WAT      O45835   5.561   0.768   5.352
15198WAT     H145836   5.492   0.702   5.322
15198WAT     H245837   5.522   0.859   5.353
15199WAT      O45838   4.367   5.249   5.507
15199WAT     H145839   4.388   5.170   5.451
15199WAT     H245840   4.453   5.292   5.536
15200WAT      O45841   2.406   6.112   0.939
15200WAT     H145842   2.476   6.074   0.998
15200WAT     H245843   2.448   6.144   0.854
15201WAT      O45844   6.038   8.154   7.618
15201WAT     H145845   6.069   8.112   7.533
15201WAT     H245846   6.055   8.253   7.615
15202WAT      O45847   0.236   5.361   4.531
15202WAT     H145848   0.241   5.307   4.448
15202WAT     H245849   0.327   5.374   4.569
15203WAT      O45850   1.105   4.919   0.713
15203WAT     H145851   1.130   4.981   0.787
15203WAT     H245852   1.155   4.833   0.723
15204WAT      O45853   2.632   4.366   6.883
15204WAT     H145854   2.667   4.321   6.966
15204WAT     H245855   2.708   4.384   6.821
15205WAT      O45856   2.162   5.686   9.543
15205WAT     H145857   2.237   5.714   9.604
15205WAT     H245858   2.104   5.619   9.589
15206WAT      O45859   2.531   1.762   9.330
15206WAT     H145860   2.581   1.676   9.339
15206WAT     H245861   2.466   1.755   9.254
15207WAT      O45862   9.745   9.053   3.067
15207WAT     H145863   9.759   8.958   3.097
15207WAT     H245864   9.766   9.060   2.970
15208WAT      O45865   4.896   7.903   8.738
15208WAT     H145866   4.843   7.935   8.659
15208WAT     H245867   4.990   7.885   8.709
15209WAT      O45868   4.618   2.131   7.528
15209WAT     H145869   4.695   2.158   7.471
15209WAT     H245870   4.561   2.065   7.478
15210WAT      O45871   6.704   2.211   8.868
15210WAT     H145872   6.640   2.246   8.799
15210WAT     H245873   6.701   2.111   8.868
15211WAT      O45874   6.763   4.461   3.926
15211WAT     H145875   6.677   4.432   3.886
15211WAT     H245876   6.809   4.524   3.864
15212WAT      O45877   1.111   7.211   1.494
15212WAT     H145878   1.155   7.295   1.528
15212WAT     H245879   1.165   7.173   1.419
15213WAT      O45880   3.890   7.310   1.923
15213WAT     H145881   3.920   7.351   1.837
15213WAT     H245882   3.797   7.275   1.912
15214WAT      O45883   6.569   0.597   2.926
15214WAT     H145884   6.627   0.677   2.936
15214WAT     H245885   6.601   0.525   2.988
15215WAT      O45886   0.457   4.443   2.601
15215WAT     H145887   0.395   4.484   2.533
15215WAT     H245888   0.547   4.486   2.594
15216WAT      O45889   1.381   4.451   9.073
15216WAT     H145890   1.447   4.497   9.014
15216WAT     H245891   1.382   4.494   9.163
15217WAT      O45892   4.400   5.066   8.066
15217WAT     H145893   4.301   5.067   8.059
15217WAT     H245894   4.431   4.977   8.101
15218WAT      O45895   7.956   7.473   3.345
15218WAT     H145896   7.904   7.506   3.266
15218WAT     H245897   7.908   7.397   3.388
15219WAT      O45898   3.907   1.794   1.596
15219WAT     H145899   3.842   1.843   1.653
15219WAT     H245900   3.868   1.705   1.570
15220WAT      O45901   1.140   8.613   2.394
15220WAT     H145902   1.056   8.668   2.392
15220WAT     H245903   1.200   8.642   2.319
15221WAT      O45904   3.251   6.759   1.730
15221WAT     H145905   3.282   6.698   1.657
15221WAT     H245906   3.157   6.734   1.755
15222WAT      O45907   7.197   5.329   6.699
15222WAT     H145908   7.238   5.245   6.734
15222WAT     H245909   7.179   5.391   6.775
15223WAT      O45910   5.876   2.964   7.531
15223WAT     H145911   5.782   2.997   7.529
15223WAT     H245912   5.890   2.900   7.455
15224WAT      O45913   0.750   1.986   5.635
15224WAT     H145914   0.782   1.934   5.555
15224WAT     H245915   0.783   2.080   5.629
15225WAT      O45916   0.349   4.039   2.939
15225WAT     H145917   0.251   4.037   2.961
15225WAT     H245918   0.365   3.990   2.853
15226WAT      O45919   7.794   8.358   3.805
15226WAT     H145920   7.747   8.326   3.888
15226WAT     H245921   7.833   8.280   3.756
15227WAT      O45922   5.013   8.464   5.351
15227WAT     H145923   4.985   8.506   5.265
15227WAT     H245924   5.109   8.435   5.346
15228WAT      O45925   0.427   5.854   4.838
15228WAT     H145926   0.407   5.757   4.829
15228WAT     H245927   0.399   5.886   4.929
15229WAT      O45928   0.848   8.719   5.895
15229WAT     H145929   0.916   8.779   5.852
15229WAT     H245930   0.877   8.698   5.989
15230WAT      O45931   8.369   1.138   9.351
15230WAT     H145932   8.448   1.124   9.292
15230WAT     H245933   8.392   1.112   9.445
15231WAT      O45934   4.867   5.916   7.351
15231WAT     H145935   4.885   6.013   7.335
15231WAT     H245936   4.951   5.864   7.337
15232WAT      O45937   7.354   0.390   8.337
15232WAT     H145938   7.317   0.342   8.417
15232WAT     H245939   7.284   0.451   8.299
15233WAT      O45940   4.637   9.835   7.003
15233WAT     H145941   4.677   9.778   6.930
15233WAT     H245942   4.669   9.803   7.092
15234WAT      O45943   4.534   4.144   1.219
15234WAT     H145944   4.574   4.091   1.144
15234WAT     H245945   4.535   4.089   1.303
15235WAT      O45946   5.495   7.008   6.148
15235WAT     H145947   5.482   7.059   6.062
15235WAT     H245948   5.593   7.003   6.168
15236WAT      O45949   5.706   2.645   2.039
15236WAT     H145950   5.735   2.554   2.009
15236WAT     H245951   5.651   2.687   1.967
15237WAT      O45952   1.537   2.694   3.831
15237WAT     H145953   1.587   2.611   3.854
15237WAT     H245954   1.556   2.764   3.900
15238WAT      O45955   7.978   3.095   8.278
15238WAT     H145956   7.908   3.046   8.330
15238WAT     H245957   7.935   3.152   8.208
15239WAT      O45958   6.283   4.553   1.576
15239WAT     H145959   6.284   4.646   1.538
15239WAT     H245960   6.189   4.521   1.583
15240WAT      O45961   3.650   2.252   6.642
15240WAT     H145962   3.727   2.205   6.686
15240WAT     H245963   3.667   2.351   6.643
15241WAT      O45964   4.751   5.261   6.648
15241WAT     H145965   4.756   5.303   6.557
15241WAT     H245966   4.832   5.284   6.700
15242WAT      O45967   1.027   0.929   2.377
15242WAT     H145968   0.962   0.975   2.316
15242WAT     H245969   1.091   0.996   2.414
15243WAT      O45970   4.940   5.917   1.341
15243WAT     H145971   4.987   5.909   1.428
15243WAT     H245972   4.850   5.959   1.355
15244WAT      O45973   5.136   7.522   0.853
15244WAT     H145974   5.221   7.564   0.884
15244WAT     H245975   5.135   7.518   0.753
15245WAT      O45976   1.255   6.637   2.548
15245WAT     H145977   1.352   6.626   2.528
15245WAT     H245978   1.206   6.663   2.465
15246WAT      O45979   9.206   6.049   6.921
15246WAT     H145980   9.304   6.067   6.911
15246WAT     H245981   9.155   6.133   6.905
15247WAT      O45982   8.414   6.802   8.498
15247WAT     H145983   8.411   6.800   8.398
15247WAT     H245984   8.326   6.834   8.534
15248WAT      O45985   2.130   7.650   8.109
15248WAT     H145986   2.200   7.693   8.053
15248WAT     H245987   2.169   7.620   8.196
15249WAT      O45988   4.063   3.829   1.446
15249WAT     H145989   3.975   3.819   1.400
15249WAT     H245990   4.116   3.745   1.435
15250WAT      O45991   4.395   4.225   1.629
15250WAT     H145992   4.332   4.292   1.591
15250WAT     H245993   4.354   4.184   1.711
15251WAT      O45994   1.201   3.150   4.933
15251WAT     H145995   1.241   3.161   5.024
15251WAT     H245996   1.107   3.186   4.934
15252WAT      O45997   8.974   9.679   1.175
15252WAT     H145998   8.995   9.772   1.206
15252WAT     H245999   8.890   9.681   1.121
15253WAT      O46000   8.697   1.170   4.571
15253WAT     H146001   8.769   1.183   4.502
15253WAT     H246002   8.664   1.260   4.601
15254WAT      O46003   6.450   7.278   4.862
15254WAT     H146004   6.426   7.249   4.954
15254WAT     H246005   6.366   7.301   4.811
15255WAT      O46006   4.382   4.329   8.263
15255WAT     H146007   4.350   4.365   8.351
15255WAT     H246008   4.303   4.292   8.213
15256WAT      O46009   0.684   1.381   7.413
15256WAT     H146010   0.670   1.363   7.315
15256WAT     H246011   0.761   1.326   7.446
15257WAT      O46012   3.734   2.954   8.290
15257WAT     H146013   3.645   2.918   8.318
15257WAT     H246014   3.734   3.054   8.297
15258WAT      O46015   3.782   4.788   8.622
15258WAT     H146016   3.803   4.691   8.607
15258WAT     H246017   3.842   4.824   8.694
15259WAT      O46018   5.890   3.872   8.791
15259WAT     H146019   5.900   3.947   8.856
15259WAT     H246020   5.865   3.789   8.840
15260WAT      O46021   3.253   6.216   0.792
15260WAT     H146022   3.335   6.159   0.801
15260WAT     H246023   3.235   6.262   0.879
15261WAT      O46024   7.408   6.957   8.614
15261WAT     H146025   7.309   6.967   8.616
15261WAT     H246026   7.433   6.876   8.561
15262WAT      O46027   5.112   2.705   5.238
15262WAT     H146028   5.160   2.760   5.169
15262WAT     H246029   5.144   2.611   5.233
15263WAT      O46030   0.766   4.819   4.085
15263WAT     H146031   0.811   4.737   4.049
15263WAT     H246032   0.781   4.895   4.021
15264WAT      O46033   0.007   4.677   8.478
15264WAT     H146034  -0.082   4.720   8.462
15264WAT     H246035   0.078   4.747   8.482
15265WAT      O46036   9.848   8.596   5.659
15265WAT     H146037   9.811   8.589   5.567
15265WAT     H246038   9.773   8.602   5.725
15266WAT      O46039   5.010   5.116   6.136
15266WAT     H146040   5.096   5.096   6.181
15266WAT     H246041   4.993   5.049   6.064
15267WAT      O46042   8.909   7.971   1.625
15267WAT     H146043   8.910   7.942   1.530
15267WAT     H246044   8.825   8.022   1.643
15268WAT      O46045   1.499   4.885   0.924
15268WAT     H146046   1.522   4.871   1.020
15268WAT     H246047   1.408   4.927   0.918
15269WAT      O46048   0.384   1.065   8.719
15269WAT     H146049   0.432   1.001   8.778
15269WAT     H246050   0.444   1.143   8.700
15270WAT      O46051   0.737   8.243   9.654
15270WAT     H146052   0.719   8.266   9.750
15270WAT     H246053   0.655   8.203   9.613
15271WAT      O46054   3.440   1.569   4.798
15271WAT     H146055   3.507   1.501   4.829
15271WAT     H246056   3.464   1.599   4.705
15272WAT      O46057   7.962   4.829   4.699
15272WAT     H146058   8.024   4.840   4.777
15272WAT     H246059   7.943   4.732   4.686
15273WAT      O46060   1.720   5.899   7.102
15273WAT     H146061   1.700   5.948   7.187
15273WAT     H246062   1.819   5.894   7.090
15274WAT      O46063   8.866   3.165   6.356
15274WAT     H146064   8.785   3.108   6.368
15274WAT     H246065   8.905   3.149   6.265
15275WAT      O46066   7.501   8.268   1.829
15275WAT     H146067   7.441   8.317   1.766
15275WAT     H246068   7.596   8.274   1.796
15276WAT      O46069   5.094   9.618   4.708
15276WAT     H146070   5.043   9.653   4.786
15276WAT     H246071   5.035   9.617   4.627
15277WAT      O46072   4.939   4.122   6.009
15277WAT     H146073   4.840   4.108   6.015
15277WAT     H246074   4.969   4.174   6.089
15278WAT      O46075   4.892   3.423   1.464
15278WAT     H146076   4.799   3.442   1.431
15278WAT     H246077   4.907   3.474   1.549
15279WAT      O46078   7.067   5.354   8.839
15279WAT     H146079   7.001   5.287   8.875
15279WAT     H246080   7.113   5.399   8.915
15280WAT      O46081   1.957   4.565   4.131
15280WAT     H146082   1.869   4.588   4.172
15280WAT     H246083   2.028   4.567   4.201
15281WAT      O46084   0.909   9.374   6.430
15281WAT     H146085   0.944   9.440   6.496
15281WAT     H246086   0.979   9.353   6.362
15282WAT      O46087   1.018   7.781   8.646
15282WAT     H146088   0.959   7.723   8.701
15282WAT     H246089   1.111   7.743   8.645
15283WAT      O46090   2.698   7.020   3.026
15283WAT     H146091   2.673   6.957   2.953
15283WAT     H246092   2.647   7.105   3.016
15284WAT      O46093   0.206   8.377   4.878
15284WAT     H146094   0.186   8.399   4.782
15284WAT     H246095   0.164   8.446   4.937
15285WAT      O46096   6.366   7.350   8.875
15285WAT     H146097   6.350   7.291   8.796
15285WAT     H246098   6.423   7.302   8.942
15286WAT      O46099   0.783   3.385   1.448
15286WAT     H146100   0.744   3.321   1.381
15286WAT     H246101   0.761   3.479   1.420
15287WAT      O46102   1.047   6.061   9.756
15287WAT     H146103   1.064   6.154   9.788
15287WAT     H246104   1.064   6.056   9.657
15288WAT      O46105   2.502   0.404   9.537
15288WAT     H146106   2.490   0.420   9.635
15288WAT     H246107   2.434   0.458   9.486
15289WAT      O46108   3.266   1.942   4.738
15289WAT     H146109   3.226   1.850   4.733
15289WAT     H246110   3.356   1.942   4.694
15290WAT      O46111   5.396   1.767   0.419
15290WAT     H146112   5.332   1.834   0.383
15290WAT     H246113   5.345   1.691   0.461
15291WAT      O46114   5.428   8.254   0.782
15291WAT     H146115   5.457   8.162   0.752
15291WAT     H246116   5.479   8.323   0.730
15292WAT      O46117   0.117   6.701   6.471
15292WAT     H146118   0.092   6.722   6.376
15292WAT     H246119   0.037   6.713   6.529
15293WAT      O46120   1.274   6.071   1.046
15293WAT     H146121   1.309   6.136   1.113
15293WAT     H246122   1.208   6.010   1.090
15294WAT      O46123   9.669   1.765   6.494
15294WAT     H146124   9.603   1.809   6.554
15294WAT     H246125   9.624   1.691   6.444
15295WAT      O46126   6.110   7.986   9.893
15295WAT     H146127   6.126   7.984   9.794
15295WAT     H246128   6.075   8.075   9.919
15296WAT      O46129   0.025   0.781   2.163
15296WAT     H146130  -0.026   0.824   2.089
15296WAT     H246131   0.055   0.690   2.134
15297WAT      O46132   2.986   9.010   0.810
15297WAT     H146133   2.934   8.983   0.729
15297WAT     H246134   2.944   9.092   0.850
15298WAT      O46135   2.312   8.253   7.513
15298WAT     H146136   2.252   8.174   7.506
15298WAT     H246137   2.257   8.336   7.520
15299WAT      O46138   3.607   3.948   9.833
15299WAT     H146139   3.547   4.020   9.799
15299WAT     H246140   3.553   3.871   9.865
15300WAT      O46141   7.170   2.649   3.124
15300WAT     H146142   7.213   2.579   3.066
15300WAT     H246143   7.107   2.703   3.068
15301WAT      O46144   8.222   2.646   5.115
15301WAT     H146145   8.243   2.568   5.057
15301WAT     H246146   8.189   2.614   5.204
15302WAT      O46147   5.376   5.049   7.997
15302WAT     H146148   5.420   4.959   7.998
15302WAT     H246149   5.370   5.084   8.090
15303WAT      O46150   5.557   6.253   3.889
15303WAT     H146151   5.595   6.263   3.797
15303WAT     H246152   5.457   6.255   3.884
15304WAT      O46153   2.697   0.242   0.820
15304WAT     H146154   2.740   0.156   0.846
15304WAT     H246155   2.619   0.224   0.761
15305WAT      O46156   8.205   6.708   9.465
15305WAT     H146157   8.208   6.639   9.537
15305WAT     H246158   8.185   6.797   9.506
15306WAT      O46159   3.862   1.349   6.109
15306WAT     H146160   3.958   1.375   6.098
15306WAT     H246161   3.830   1.380   6.198
15307WAT      O46162   4.912   2.535   0.293
15307WAT     H146163   4.963   2.532   0.379
15307WAT     H246164   4.974   2.556   0.218
15308WAT      O46165   0.139   2.466   5.267
15308WAT     H146166   0.227   2.441   5.229
15308WAT     H246167   0.087   2.383   5.289
15309WAT      O46168   9.218   8.526   2.785
15309WAT     H146169   9.288   8.535   2.856
15309WAT     H246170   9.159   8.607   2.785
15310WAT      O46171   2.571   5.886   1.627
15310WAT     H146172   2.602   5.899   1.721
15310WAT     H246173   2.493   5.824   1.625
15311WAT      O46174   4.423   7.515   1.877
15311WAT     H146175   4.423   7.597   1.819
15311WAT     H246176   4.487   7.448   1.840
15312WAT      O46177   4.809   9.059   5.870
15312WAT     H146178   4.798   9.132   5.937
15312WAT     H246179   4.892   9.008   5.889
15313WAT      O46180   4.305   6.776   4.502
15313WAT     H146181   4.250   6.851   4.466
15313WAT     H246182   4.373   6.748   4.434
15314WAT      O46183   7.347   8.853   8.058
15314WAT     H146184   7.385   8.884   8.145
15314WAT     H246185   7.382   8.762   8.037
15315WAT      O46186   3.689   7.573   1.610
15315WAT     H146187   3.634   7.620   1.541
15315WAT     H246188   3.735   7.641   1.668
15316WAT      O46189   3.818   2.985   0.411
15316WAT     H146190   3.749   2.913   0.418
15316WAT     H246191   3.886   2.959   0.342
15317WAT      O46192   0.690   8.093   7.294
15317WAT     H146193   0.623   8.022   7.315
15317WAT     H246194   0.728   8.130   7.379
15318WAT      O46195   8.220   9.082   4.834
15318WAT     H146196   8.297   9.027   4.802
15318WAT     H246197   8.166   9.112   4.755
15319WAT      O46198   5.286   9.265   4.212
15319WAT     H146199   5.354   9.338   4.220
15319WAT     H246200   5.329   9.182   4.176
15320WAT      O46201   4.426   8.730   9.488
15320WAT     H146202   4.460   8.669   9.416
15320WAT     H246203   4.455   8.824   9.467
15321WAT      O46204   8.441   6.565   1.798
15321WAT     H146205   8.510   6.582   1.727
15321WAT     H246206   8.453   6.630   1.873
15322WAT      O46207   7.036   2.367   9.856
15322WAT     H146208   7.135   2.365   9.845
15322WAT     H246209   6.992   2.373   9.766
15323WAT      O46210   0.984   3.583   6.191
15323WAT     H146211   0.892   3.542   6.191
15323WAT     H246212   1.052   3.511   6.200
15324WAT      O46213   0.711   3.293   2.292
15324WAT     H146214   0.727   3.195   2.286
15324WAT     H246215   0.797   3.342   2.279
15325WAT      O46216   9.476   8.055   0.829
15325WAT     H146217   9.391   8.037   0.779
15325WAT     H246218   9.532   7.973   0.830
15326WAT      O46219   0.578   5.209   6.416
15326WAT     H146220   0.569   5.218   6.515
15326WAT     H246221   0.498   5.250   6.371
15327WAT      O46222   8.137   6.706   3.931
15327WAT     H146223   8.165   6.626   3.984
15327WAT     H246224   8.161   6.789   3.981
15328WAT      O46225   3.936   5.646   4.197
15328WAT     H146226   4.013   5.615   4.141
15328WAT     H246227   3.936   5.595   4.284
15329WAT      O46228   3.308   2.105   3.697
15329WAT     H146229   3.351   2.103   3.788
15329WAT     H246230   3.315   2.015   3.655
15330WAT      O46231   4.396   0.196   5.662
15330WAT     H146232   4.412   0.221   5.567
15330WAT     H246233   4.320   0.131   5.668
15331WAT      O46234   4.758   4.842   0.894
15331WAT     H146235   4.713   4.780   0.958
15331WAT     H246236   4.833   4.890   0.941
15332WAT      O46237   0.278   7.992   8.154
15332WAT     H146238   0.201   8.053   8.135
15332WAT     H246239   0.309   8.007   8.248
15333WAT      O46240   6.438   1.972   5.481
15333WAT     H146241   6.461   1.922   5.564
15333WAT     H246242   6.474   2.065   5.487
15334WAT      O46243   4.469   8.551   2.726
15334WAT     H146244   4.463   8.642   2.768
15334WAT     H246245   4.557   8.510   2.749
15335WAT      O46246   3.077   5.634   8.189
15335WAT     H146247   3.045   5.651   8.096
15335WAT     H246248   3.047   5.543   8.218
15336WAT      O46249   0.858   5.848   7.558
15336WAT     H146250   0.846   5.946   7.545
15336WAT     H246251   0.786   5.799   7.509
15337WAT      O46252   2.386   3.521   9.642
15337WAT     H146253   2.322   3.445   9.630
15337WAT     H246254   2.410   3.558   9.552
15338WAT      O46255   3.314   0.483   2.186
15338WAT     H146256   3.282   0.501   2.279
15338WAT     H246257   3.268   0.545   2.122
15339WAT      O46258   1.382   3.817   5.468
15339WAT     H146259   1.409   3.723   5.451
15339WAT     H246260   1.456   3.866   5.514
15340WAT      O46261   2.860   1.608   7.597
15340WAT     H146262   2.786   1.569   7.542
15340WAT     H246263   2.829   1.695   7.637
15341WAT      O46264   3.255   7.634   7.578
15341WAT     H146265   3.186   7.575   7.534
15341WAT     H246266   3.215   7.674   7.661
15342WAT      O46267   7.304   1.172   1.418
15342WAT     H146268   7.332   1.228   1.340
15342WAT     H246269   7.371   1.184   1.492
15343WAT      O46270   3.352   8.385   6.939
15343WAT     H146271   3.357   8.454   6.868
15343WAT     H246272   3.311   8.301   6.902
15344WAT      O46273   3.611   5.579   0.668
15344WAT     H146274   3.581   5.487   0.693
15344WAT     H246275   3.651   5.577   0.576
15345WAT      O46276   5.560   8.461   4.304
15345WAT     H146277   5.481   8.402   4.318
15345WAT     H246278   5.591   8.454   4.209
15346WAT      O46279   3.845   8.833   5.585
15346WAT     H146280   3.763   8.788   5.619
15346WAT     H246281   3.855   8.815   5.487
15347WAT      O46282   0.024   3.036   4.819
15347WAT     H146283   0.036   3.135   4.819
15347WAT     H246284   0.109   2.991   4.793
15348WAT      O46285   0.192   2.924   5.216
15348WAT     H146286   0.192   2.870   5.132
15348WAT     H246287   0.215   2.865   5.293
15349WAT      O46288   6.522   8.768   5.540
15349WAT     H146289   6.477   8.780   5.628
15349WAT     H246290   6.453   8.748   5.470
15350WAT      O46291   1.918   3.348   2.009
15350WAT     H146292   1.959   3.390   2.090
15350WAT     H246293   1.853   3.278   2.037
15351WAT      O46294   4.338   0.969   0.703
15351WAT     H146295   4.292   0.945   0.617
15351WAT     H246296   4.311   1.062   0.730
15352WAT      O46297   4.130   2.215   2.900
15352WAT     H146298   4.056   2.272   2.865
15352WAT     H246299   4.213   2.230   2.847
15353WAT      O46300   6.183   9.837   3.222
15353WAT     H146301   6.124   9.916   3.211
15353WAT     H246302   6.165   9.771   3.149
15354WAT      O46303   2.161   0.079   4.738
15354WAT     H146304   2.229   0.142   4.700
15354WAT     H246305   2.206  -0.002   4.774
15355WAT      O46306   8.498   0.051   1.358
15355WAT     H146307   8.528   0.041   1.263
15355WAT     H246308   8.428  -0.017   1.378
15356WAT      O46309   8.699   4.412   6.329
15356WAT     H146310   8.696   4.480   6.255
15356WAT     H246311   8.622   4.349   6.320
15357WAT      O46312   3.348   0.376   7.082
15357WAT     H146313   3.314   0.306   7.019
15357WAT     H246314   3.406   0.334   7.152
15358WAT      O46315   1.111   4.384   0.161
15358WAT     H146316   1.146   4.453   0.225
15358WAT     H246317   1.112   4.294   0.206
15359WAT      O46318   5.704   6.686   4.793
15359WAT     H146319   5.637   6.733   4.851
15359WAT     H246320   5.680   6.589   4.786
15360WAT      O46321   9.471   3.118   4.872
15360WAT     H146322   9.430   3.090   4.959
15360WAT     H246323   9.415   3.084   4.796
15361WAT      O46324   2.058   4.035   4.845
15361WAT     H146325   1.989   4.050   4.774
15361WAT     H246326   2.139   4.089   4.824
15362WAT      O46327   3.701   6.631   3.939
15362WAT     H146328   3.708   6.683   3.853
15362WAT     H246329   3.784   6.576   3.950
15363WAT      O46330   5.120   4.407   5.202
15363WAT     H146331   5.218   4.415   5.183
15363WAT     H246332   5.068   4.443   5.125
15364WAT      O46333   1.200   7.134   5.975
15364WAT     H146334   1.246   7.162   5.891
15364WAT     H246335   1.225   7.196   6.049
15365WAT      O46336   8.827   7.986   0.817
15365WAT     H146337   8.766   8.049   0.864
15365WAT     H246338   8.828   8.007   0.719
15366WAT      O46339   5.075   7.660   9.515
15366WAT     H146340   5.166   7.694   9.493
15366WAT     H246341   5.034   7.619   9.433
15367WAT      O46342   6.246   1.064   0.861
15367WAT     H146343   6.187   1.008   0.919
15367WAT     H246344   6.257   1.154   0.902
15368WAT      O46345   1.665   3.791   1.614
15368WAT     H146346   1.582   3.760   1.567
15368WAT     H246347   1.736   3.722   1.605
15369WAT      O46348   2.619   4.138   9.839
15369WAT     H146349   2.610   4.197   9.758
15369WAT     H246350   2.529   4.123   9.879
15370WAT      O46351   8.219   2.413   2.267
15370WAT     H146352   8.149   2.470   2.223
15370WAT     H246353   8.303   2.465   2.278
15371WAT      O46354   5.012   5.910   1.872
15371WAT     H146355   5.043   5.830   1.922
15371WAT     H246356   4.933   5.950   1.919
15372WAT      O46357   5.289   3.679   1.105
15372WAT     H146358   5.353   3.754   1.124
15372WAT     H246359   5.341   3.598   1.075
15373WAT      O46360   4.843   0.923   7.789
15373WAT     H146361   4.782   1.002   7.791
15373WAT     H246362   4.806   0.850   7.846
15374WAT      O46363   8.269   4.282   3.363
15374WAT     H146364   8.298   4.209   3.424
15374WAT     H246365   8.325   4.281   3.280
15375WAT      O46366   6.145   1.653   8.884
15375WAT     H146367   6.199   1.730   8.919
15375WAT     H246368   6.048   1.679   8.881
15376WAT      O46369   1.822   4.644   2.071
15376WAT     H146370   1.818   4.611   2.165
15376WAT     H246371   1.915   4.638   2.037
15377WAT      O46372   5.176   4.401   3.584
15377WAT     H146373   5.166   4.343   3.503
15377WAT     H246374   5.272   4.405   3.611
15378WAT      O46375   3.959   7.475   8.177
15378WAT     H146376   4.006   7.390   8.151
15378WAT     H246377   4.027   7.541   8.209
15379WAT      O46378   4.312   6.147   3.743
15379WAT     H146379   4.367   6.080   3.693
15379WAT     H246380   4.357   6.169   3.829
15380WAT      O46381   7.391   1.405   9.228
15380WAT     H146382   7.404   1.346   9.149
15380WAT     H246383   7.352   1.493   9.199
15381WAT      O46384   4.491   3.221   8.810
15381WAT     H146385   4.435   3.160   8.755
15381WAT     H246386   4.521   3.299   8.754
15382WAT      O46387   2.081   1.174   5.871
15382WAT     H146388   2.036   1.261   5.852
15382WAT     H246389   2.013   1.106   5.896
15383WAT      O46390   1.882   2.523   9.555
15383WAT     H146391   1.841   2.496   9.642
15383WAT     H246392   1.970   2.476   9.544
15384WAT      O46393   1.242   5.553   8.531
15384WAT     H146394   1.217   5.477   8.471
15384WAT     H246395   1.166   5.573   8.594
15385WAT      O46396   2.498   9.599   2.050
15385WAT     H146397   2.440   9.629   2.126
15385WAT     H246398   2.552   9.520   2.079
15386WAT      O46399   1.571   8.298   2.358
15386WAT     H146400   1.594   8.211   2.315
15386WAT     H246401   1.518   8.282   2.441
15387WAT      O46402   9.527   4.918   2.949
15387WAT     H146403   9.509   4.964   2.862
15387WAT     H246404   9.611   4.864   2.941
15388WAT      O46405   5.439   3.686   1.894
15388WAT     H146406   5.467   3.759   1.832
15388WAT     H246407   5.342   3.665   1.878
15389WAT      O46408   2.074   7.596   3.882
15389WAT     H146409   1.997   7.540   3.913
15389WAT     H246410   2.144   7.537   3.841
15390WAT      O46411   0.883   6.277   0.224
15390WAT     H146412   0.980   6.299   0.227
15390WAT     H246413   0.835   6.326   0.297
15391WAT      O46414   4.508   3.584   8.302
15391WAT     H146415   4.477   3.545   8.389
15391WAT     H246416   4.486   3.681   8.299
15392WAT      O46417   4.226   1.147   5.205
15392WAT     H146418   4.210   1.054   5.239
15392WAT     H246419   4.164   1.167   5.129
15393WAT      O46420   2.081   1.698   2.013
15393WAT     H146421   2.067   1.664   2.106
15393WAT     H246422   2.160   1.760   2.012
15394WAT      O46423   3.672   7.687   2.417
15394WAT     H146424   3.633   7.727   2.501
15394WAT     H246425   3.767   7.662   2.433
15395WAT      O46426   7.210   5.400   5.885
15395WAT     H146427   7.189   5.358   5.973
15395WAT     H246428   7.146   5.367   5.816
15396WAT      O46429   2.825   1.472   8.000
15396WAT     H146430   2.856   1.403   7.934
15396WAT     H246431   2.885   1.551   7.997
15397WAT      O46432   9.297   1.636   1.323
15397WAT     H146433   9.342   1.712   1.275
15397WAT     H246434   9.360   1.596   1.389
15398WAT      O46435   3.679   5.994   3.084
15398WAT     H146436   3.635   6.048   3.156
15398WAT     H246437   3.610   5.957   3.022
15399WAT      O46438   0.372   7.829   2.109
15399WAT     H146439   0.434   7.793   2.179
15399WAT     H246440   0.313   7.899   2.150
15400WAT      O46441   2.475   8.312   0.102
15400WAT     H146442   2.378   8.328   0.123
15400WAT     H246443   2.492   8.213   0.103
15401WAT      O46444   1.731   0.933   4.203
15401WAT     H146445   1.684   0.959   4.288
15401WAT     H246446   1.817   0.985   4.195
15402WAT      O46447   4.500   7.702   4.728
15402WAT     H146448   4.485   7.644   4.808
15402WAT     H246449   4.595   7.736   4.728
15403WAT      O46450   2.112   2.635   6.598
15403WAT     H146451   2.021   2.612   6.563
15403WAT     H246452   2.110   2.728   6.635
15404WAT      O46453   7.188   7.267   8.772
15404WAT     H146454   7.210   7.356   8.813
15404WAT     H246455   7.169   7.279   8.674
15405WAT      O46456   6.323   4.203   6.696
15405WAT     H146457   6.278   4.226   6.782
15405WAT     H246458   6.335   4.104   6.690
15406WAT      O46459   4.472   5.510   2.191
15406WAT     H146460   4.481   5.440   2.262
15406WAT     H246461   4.411   5.582   2.223
15407WAT      O46462   8.688   7.435   4.023
15407WAT     H146463   8.592   7.430   4.050
15407WAT     H246464   8.695   7.423   3.924
15408WAT      O46465   1.253   2.477   7.753
15408WAT     H146466   1.156   2.481   7.730
15408WAT     H246467   1.282   2.381   7.758
15409WAT      O46468   6.887   7.286   7.108
15409WAT     H146469   6.936   7.203   7.135
15409WAT     H246470   6.805   7.295   7.164
15410WAT      O46471   0.637   0.580   6.417
15410WAT     H146472   0.691   0.501   6.445
15410WAT     H246473   0.542   0.553   6.404
15411WAT      O46474   4.069   6.261   2.110
15411WAT     H146475   3.996   6.255   2.178
15411WAT     H246476   4.065   6.350   2.065
15412WAT      O46477   2.528   0.894   8.709
15412WAT     H146478   2.444   0.949   8.702
15412WAT     H246479   2.592   0.923   8.638
15413WAT      O46480   6.107   6.131   2.314
15413WAT     H146481   6.172   6.207   2.323
15413WAT     H246482   6.154   6.045   2.333
15414WAT      O46483   5.775   1.563   3.644
15414WAT     H146484   5.735   1.568   3.736
15414WAT     H246485   5.731   1.491   3.592
15415WAT      O46486   1.375   0.976   2.248
15415WAT     H146487   1.409   0.967   2.341
15415WAT     H246488   1.332   0.890   2.220
15416WAT      O46489   1.933   2.461   8.644
15416WAT     H146490   1.986   2.390   8.692
15416WAT     H246491   1.932   2.441   8.546
15417WAT      O46492   2.713   4.078   2.417
15417WAT     H146493   2.809   4.070   2.390
15417WAT     H246494   2.677   4.166   2.387
15418WAT      O46495   0.414   0.791   4.013
15418WAT     H146496   0.353   0.757   4.085
15418WAT     H246497   0.382   0.881   3.983
15419WAT      O46498   3.160   1.642   1.996
15419WAT     H146499   3.217   1.571   2.038
15419WAT     H246500   3.091   1.598   1.938
15420WAT      O46501   5.917   6.836   6.978
15420WAT     H146502   5.974   6.769   6.931
15420WAT     H246503   5.832   6.849   6.928
15421WAT      O46504   1.921   1.103   9.430
15421WAT     H146505   1.938   1.030   9.497
15421WAT     H246506   1.863   1.172   9.471
15422WAT      O46507   8.098   6.511   4.182
15422WAT     H146508   8.084   6.603   4.218
15422WAT     H246509   8.124   6.450   4.256
15423WAT      O46510   3.205   3.212   2.329
15423WAT     H146511   3.127   3.219   2.267
15423WAT     H246512   3.289   3.203   2.276
15424WAT      O46513   4.650   5.170   1.957
15424WAT     H146514   4.707   5.176   1.875
15424WAT     H246515   4.612   5.260   1.978
15425WAT      O46516   9.819   2.045   8.619
15425WAT     H146517   9.784   2.049   8.712
15425WAT     H246518   9.918   2.034   8.621
15426WAT      O46519   7.055   9.183   4.722
15426WAT     H146520   7.021   9.275   4.741
15426WAT     H246521   6.991   9.116   4.760
15427WAT      O46522   4.150   1.487   4.980
15427WAT     H146523   4.186   1.564   4.927
15427WAT     H246524   4.178   1.496   5.075
15428WAT      O46525   9.238   6.848   0.688
15428WAT     H146526   9.151   6.859   0.737
15428WAT     H246527   9.234   6.899   0.602
15429WAT      O46528   1.714   4.785   8.422
15429WAT     H146529   1.649   4.742   8.485
15429WAT     H246530   1.764   4.857   8.470
15430WAT      O46531   8.373   8.225   3.951
15430WAT     H146532   8.357   8.130   3.980
15430WAT     H246533   8.289   8.262   3.912
15431WAT      O46534   7.606   8.221   5.802
15431WAT     H146535   7.575   8.136   5.760
15431WAT     H246536   7.655   8.201   5.887
15432WAT      O46537   9.339   7.254   6.088
15432WAT     H146538   9.432   7.265   6.053
15432WAT     H246539   9.274   7.292   6.023
15433WAT      O46540   1.418   3.894   8.583
15433WAT     H146541   1.378   3.936   8.501
15433WAT     H246542   1.346   3.881   8.652
15434WAT      O46543   5.199   2.462   2.959
15434WAT     H146544   5.123   2.526   2.953
15434WAT     H246545   5.165   2.369   2.943
15435WAT      O46546   5.986   6.156   6.703
15435WAT     H146547   6.065   6.217   6.703
15435WAT     H246548   5.902   6.211   6.692
15436WAT      O46549   7.862   1.760   3.304
15436WAT     H146550   7.894   1.700   3.231
15436WAT     H246551   7.765   1.782   3.289
15437WAT      O46552   5.006   9.535   9.131
15437WAT     H146553   4.914   9.564   9.106
15437WAT     H246554   5.044   9.598   9.199
15438WAT      O46555   3.804   7.176   7.550
15438WAT     H146556   3.844   7.111   7.615
15438WAT     H246557   3.811   7.268   7.588
15439WAT      O46558   5.762   6.723   7.196
15439WAT     H146559   5.821   6.780   7.139
15439WAT     H246560   5.667   6.750   7.185
15440WAT      O46561   6.979   6.716   1.764
15440WAT     H146562   6.887   6.756   1.760
15440WAT     H246563   6.985   6.640   1.699
15441WAT      O46564   1.490   8.615   1.154
15441WAT     H146565   1.445   8.538   1.108
15441WAT     H246566   1.588   8.612   1.136
15442WAT      O46567   1.363   4.181   7.791
15442WAT     H146568   1.443   4.127   7.765
15442WAT     H246569   1.355   4.261   7.732
15443WAT      O46570   8.248   6.297   0.274
15443WAT     H146571   8.234   6.222   0.210
15443WAT     H246572   8.340   6.336   0.259
15444WAT      O46573   2.260   5.443   0.909
15444WAT     H146574   2.331   5.422   0.976
15444WAT     H246575   2.257   5.541   0.893
15445WAT      O46576   4.403   5.722   0.273
15445WAT     H146577   4.452   5.678   0.347
15445WAT     H246578   4.379   5.816   0.298
15446WAT      O46579   8.951   0.932   6.575
15446WAT     H146580   9.045   0.961   6.595
15446WAT     H246581   8.900   1.009   6.538
15447WAT      O46582   8.973   8.145   5.230
15447WAT     H146583   9.037   8.086   5.182
15447WAT     H246584   8.902   8.090   5.273
15448WAT      O46585   2.564   1.749   3.310
15448WAT     H146586   2.464   1.747   3.316
15448WAT     H246587   2.602   1.772   3.399
15449WAT      O46588   1.725   0.299   2.892
15449WAT     H146589   1.699   0.203   2.898
15449WAT     H246590   1.693   0.348   2.973
15450WAT      O46591   5.559   2.945   5.162
15450WAT     H146592   5.471   2.982   5.192
15450WAT     H246593   5.632   2.983   5.219
15451WAT      O46594   4.961   0.791   3.568
15451WAT     H146595   5.059   0.804   3.552
15451WAT     H246596   4.941   0.693   3.574
15452WAT      O46597   2.799   2.890   2.428
15452WAT     H146598   2.789   2.942   2.514
15452WAT     H246599   2.875   2.826   2.437
15453WAT      O46600   6.148   7.029   3.487
15453WAT     H146601   6.103   7.034   3.398
15453WAT     H246602   6.099   6.965   3.546
15454WAT      O46603   5.840   3.951   6.433
15454WAT     H146604   5.924   3.988   6.473
15454WAT     H246605   5.808   3.874   6.488
15455WAT      O46606   0.591   7.264   7.747
15455WAT     H146607   0.524   7.202   7.787
15455WAT     H246608   0.573   7.275   7.649
15456WAT      O46609   6.754   8.986   1.354
15456WAT     H146610   6.832   9.049   1.358
15456WAT     H246611   6.788   8.893   1.338
15457WAT      O46612   9.506   4.467   5.355
15457WAT     H146613   9.596   4.464   5.397
15457WAT     H246614   9.461   4.378   5.367
15458WAT      O46615   4.407   8.108   3.157
15458WAT     H146616   4.328   8.153   3.199
15458WAT     H246617   4.391   8.095   3.060
15459WAT      O46618   8.905   7.190   4.852
15459WAT     H146619   8.857   7.126   4.912
15459WAT     H246620   8.997   7.207   4.889
15460WAT      O46621   3.830   4.943   9.042
15460WAT     H146622   3.886   4.892   8.976
15460WAT     H246623   3.735   4.911   9.036
15461WAT      O46624   2.389   6.317   1.410
15461WAT     H146625   2.386   6.231   1.461
15461WAT     H246626   2.410   6.298   1.314
15462WAT      O46627   9.394   6.628   8.624
15462WAT     H146628   9.411   6.546   8.571
15462WAT     H246629   9.330   6.688   8.575
15463WAT      O46630   2.991   1.929   5.612
15463WAT     H146631   3.062   1.863   5.587
15463WAT     H246632   3.026   1.991   5.682
15464WAT      O46633   0.266   6.002   7.053
15464WAT     H146634   0.322   6.012   6.971
15464WAT     H246635   0.169   6.012   7.029
15465WAT      O46636   4.428   7.528   4.033
15465WAT     H146637   4.426   7.608   3.973
15465WAT     H246638   4.475   7.551   4.118
15466WAT      O46639   0.600   8.736   9.122
15466WAT     H146640   0.568   8.684   9.201
15466WAT     H246641   0.602   8.676   9.042
15467WAT      O46642   4.093   6.070   7.994
15467WAT     H146643   4.167   6.002   8.000
15467WAT     H246644   4.057   6.088   8.086
15468WAT      O46645   0.407   7.349   1.746
15468WAT     H146646   0.438   7.310   1.659
15468WAT     H246647   0.310   7.373   1.738
15469WAT      O46648   7.581   0.382   4.931
15469WAT     H146649   7.552   0.351   4.841
15469WAT     H246650   7.681   0.391   4.932
15470WAT      O46651   1.941   8.323   2.624
15470WAT     H146652   2.036   8.345   2.646
15470WAT     H246653   1.939   8.245   2.561
15471WAT      O46654   5.968   8.224   0.284
15471WAT     H146655   5.959   8.161   0.361
15471WAT     H246656   6.061   8.222   0.249
15472WAT      O46657   8.311   0.490   0.400
15472WAT     H146658   8.311   0.578   0.353
15472WAT     H246659   8.350   0.501   0.491
15473WAT      O46660   5.066   7.277   5.680
15473WAT     H146661   5.068   7.192   5.733
15473WAT     H246662   5.014   7.262   5.595
15474WAT      O46663   6.646   2.262   7.905
15474WAT     H146664   6.657   2.195   7.979
15474WAT     H246665   6.575   2.230   7.842
15475WAT      O46666   3.503   5.682   2.938
15475WAT     H146667   3.468   5.613   3.002
15475WAT     H246668   3.601   5.670   2.927
15476WAT      O46669   3.006   4.468   8.548
15476WAT     H146670   2.965   4.379   8.567
15476WAT     H246671   3.063   4.460   8.466
15477WAT      O46672   0.740   5.119   9.649
15477WAT     H146673   0.737   5.077   9.739
15477WAT     H246674   0.666   5.083   9.592
15478WAT      O46675   1.122   7.330   2.368
15478WAT     H146676   1.133   7.230   2.367
15478WAT     H246677   1.033   7.353   2.407
15479WAT      O46678   6.351   2.431   4.651
15479WAT     H146679   6.446   2.458   4.667
15479WAT     H246680   6.346   2.331   4.641
15480WAT      O46681   2.397   3.805   0.256
15480WAT     H146682   2.359   3.756   0.335
15480WAT     H246683   2.473   3.752   0.218
15481WAT      O46684   8.053   8.013   2.011
15481WAT     H146685   8.148   7.997   1.984
15481WAT     H246686   8.030   7.951   2.086
15482WAT      O46687   4.854   9.362   2.326
15482WAT     H146688   4.908   9.436   2.287
15482WAT     H246689   4.878   9.276   2.281
15483WAT      O46690   1.716   3.157   2.108
15483WAT     H146691   1.794   3.108   2.148
15483WAT     H246692   1.664   3.202   2.181
15484WAT      O46693   5.148   6.894   8.233
15484WAT     H146694   5.182   6.988   8.235
15484WAT     H246695   5.197   6.843   8.163
15485WAT      O46696   6.491   0.655   1.385
15485WAT     H146697   6.452   0.632   1.475
15485WAT     H246698   6.571   0.714   1.398
15486WAT      O46699   8.210   6.420   8.527
15486WAT     H146700   8.182   6.420   8.623
15486WAT     H246701   8.143   6.369   8.472
15487WAT      O46702   1.235   7.413   0.259
15487WAT     H146703   1.215   7.486   0.193
15487WAT     H246704   1.193   7.435   0.347
15488WAT      O46705   3.080   9.810   5.406
15488WAT     H146706   3.076   9.712   5.421
15488WAT     H246707   3.091   9.828   5.308
15489WAT      O46708   2.120   5.166   5.014
15489WAT     H146709   2.204   5.179   5.065
15489WAT     H246710   2.141   5.157   4.916
15490WAT      O46711   4.816   9.261   6.057
15490WAT     H146712   4.789   9.257   6.153
15490WAT     H246713   4.866   9.345   6.039
15491WAT      O46714   7.628   0.854   4.114
15491WAT     H146715   7.711   0.906   4.132
15491WAT     H246716   7.645   0.757   4.132
15492WAT      O46717   1.230   4.281   4.434
15492WAT     H146718   1.270   4.199   4.394
15492WAT     H246719   1.299   4.354   4.436
15493WAT      O46720   8.802   1.153   6.487
15493WAT     H146721   8.887   1.204   6.477
15493WAT     H246722   8.773   1.117   6.398
15494WAT      O46723   3.382   8.954   2.882
15494WAT     H146724   3.292   8.917   2.902
15494WAT     H246725   3.376   9.022   2.809
15495WAT      O46726   8.449   8.803   0.426
15495WAT     H146727   8.513   8.873   0.457
15495WAT     H246728   8.496   8.714   0.423
15496WAT      O46729   9.699   8.117   5.569
15496WAT     H146730   9.704   8.204   5.617
15496WAT     H246731   9.606   8.103   5.535
15497WAT      O46732   5.937   5.694   6.329
15497WAT     H146733   5.932   5.720   6.233
15497WAT     H246734   5.936   5.776   6.386
15498WAT      O46735   5.580   0.612   6.877
15498WAT     H146736   5.541   0.573   6.793
15498WAT     H246737   5.506   0.650   6.933
15499WAT      O46738   1.696   4.564   0.146
15499WAT     H146739   1.745   4.513   0.075
15499WAT     H246740   1.691   4.510   0.229
15500WAT      O46741   8.459   9.535   5.281
15500WAT     H146742   8.384   9.470   5.292
15500WAT     H246743   8.423   9.629   5.286
15501WAT      O46744   7.500   0.499   7.358
15501WAT     H146745   7.459   0.466   7.273
15501WAT     H246746   7.503   0.424   7.424
15502WAT      O46747   8.116   6.846   4.998
15502WAT     H146748   8.144   6.933   5.039
15502WAT     H246749   8.050   6.801   5.058
15503WAT      O46750   7.099   3.417   7.647
15503WAT     H146751   7.086   3.345   7.578
15503WAT     H246752   7.045   3.498   7.621
15504WAT      O46753   6.034   7.912   3.996
15504WAT     H146754   5.940   7.910   4.029
15504WAT     H246755   6.070   8.005   4.004
15505WAT      O46756   9.336   3.883   1.622
15505WAT     H146757   9.378   3.952   1.562
15505WAT     H246758   9.336   3.917   1.716
15506WAT      O46759   1.148   7.796   9.001
15506WAT     H146760   1.124   7.893   9.006
15506WAT     H246761   1.073   7.746   8.958
15507WAT      O46762   8.243   2.032   5.276
15507WAT     H146763   8.143   2.036   5.268
15507WAT     H246764   8.284   2.077   5.197
15508WAT      O46765   3.353   7.143   8.641
15508WAT     H146766   3.380   7.068   8.702
15508WAT     H246767   3.257   7.131   8.615
15509WAT      O46768   2.996   8.052   3.056
15509WAT     H146769   2.915   8.005   3.090
15509WAT     H246770   3.079   8.008   3.091
15510WAT      O46771   4.892   6.527   7.571
15510WAT     H146772   4.919   6.450   7.630
15510WAT     H246773   4.932   6.516   7.481
15511WAT      O46774   2.533   1.627   6.737
15511WAT     H146775   2.532   1.725   6.716
15511WAT     H246776   2.589   1.610   6.818
15512WAT      O46777   4.922   6.048   6.728
15512WAT     H146778   4.983   6.084   6.657
15512WAT     H246779   4.913   6.115   6.802
15513WAT      O46780   1.955   7.116   7.138
15513WAT     H146781   1.969   7.173   7.218
15513WAT     H246782   1.966   7.020   7.163
15514WAT      O46783   7.240   0.985   7.514
15514WAT     H146784   7.185   0.903   7.532
15514WAT     H246785   7.285   1.014   7.598
15515WAT      O46786   7.685   5.795   0.154
15515WAT     H146787   7.672   5.893   0.165
15515WAT     H246788   7.685   5.772   0.057
15516WAT      O46789   3.079   2.391   7.718
15516WAT     H146790   3.127   2.425   7.799
15516WAT     H246791   3.136   2.325   7.671
15517WAT      O46792   7.807   1.812   5.428
15517WAT     H146793   7.884   1.780   5.484
15517WAT     H246794   7.724   1.764   5.455
15518WAT      O46795   6.748   6.014   6.793
15518WAT     H146796   6.839   5.981   6.770
15518WAT     H246797   6.718   6.079   6.723
15519WAT      O46798   3.639   7.688   6.332
15519WAT     H146799   3.607   7.783   6.332
15519WAT     H246800   3.637   7.651   6.239
15520WAT      O46801   2.284   7.138   8.008
15520WAT     H146802   2.225   7.217   7.992
15520WAT     H246803   2.229   7.060   8.035
15521WAT      O46804   6.856   2.652   9.454
15521WAT     H146805   6.951   2.659   9.424
15521WAT     H246806   6.838   2.722   9.524
15522WAT      O46807   1.681   5.936   1.052
15522WAT     H146808   1.582   5.939   1.070
15522WAT     H246809   1.703   5.852   1.002
15523WAT      O46810   5.199   8.641   7.152
15523WAT     H146811   5.227   8.546   7.136
15523WAT     H246812   5.133   8.644   7.227
15524WAT      O46813   5.856   6.410   4.107
15524WAT     H146814   5.759   6.388   4.112
15524WAT     H246815   5.892   6.380   4.019
15525WAT      O46816   3.948   3.524   6.783
15525WAT     H146817   3.975   3.443   6.836
15525WAT     H246818   3.974   3.607   6.833
15526WAT      O46819   5.470   9.462   9.431
15526WAT     H146820   5.387   9.494   9.476
15526WAT     H246821   5.448   9.427   9.340
15527WAT      O46822   0.962   5.441   2.542
15527WAT     H146823   0.967   5.534   2.505
15527WAT     H246824   1.042   5.389   2.512
15528WAT      O46825   6.231   4.564   6.114
15528WAT     H146826   6.232   4.511   6.198
15528WAT     H246827   6.253   4.504   6.036
15529WAT      O46828   1.800   7.041   1.502
15529WAT     H146829   1.707   7.070   1.481
15529WAT     H246830   1.864   7.086   1.441
15530WAT      O46831   6.273   5.135   7.896
15530WAT     H146832   6.269   5.230   7.863
15530WAT     H246833   6.257   5.133   7.995
15531WAT      O46834   7.421   9.420   6.405
15531WAT     H146835   7.461   9.457   6.321
15531WAT     H246836   7.350   9.354   6.382
15532WAT      O46837   8.311   1.623   0.665
15532WAT     H146838   8.371   1.703   0.662
15532WAT     H246839   8.216   1.651   0.652
15533WAT      O46840   0.758   4.918   1.921
15533WAT     H146841   0.710   4.954   2.001
15533WAT     H246842   0.852   4.894   1.946
15534WAT      O46843   7.421   9.003   5.363
15534WAT     H146844   7.446   8.912   5.331
15534WAT     H246845   7.426   9.007   5.462
15535WAT      O46846   8.078   8.382   5.803
15535WAT     H146847   8.029   8.303   5.841
15535WAT     H246848   8.101   8.363   5.707
15536WAT      O46849   4.789   8.459   8.799
15536WAT     H146850   4.826   8.380   8.849
15536WAT     H246851   4.780   8.436   8.702
15537WAT      O46852   4.137   6.836   9.641
15537WAT     H146853   4.064   6.892   9.601
15537WAT     H246854   4.170   6.771   9.573
15538WAT      O46855   3.224   0.944   2.705
15538WAT     H146856   3.152   0.925   2.639
15538WAT     H246857   3.188   1.002   2.778
15539WAT      O46858   7.223   7.607   3.277
15539WAT     H146859   7.303   7.553   3.252
15539WAT     H246860   7.250   7.679   3.340
15540WAT      O46861   8.845   5.184   7.908
15540WAT     H146862   8.896   5.112   7.861
15540WAT     H246863   8.832   5.262   7.847
15541WAT      O46864   7.139   1.319   6.431
15541WAT     H146865   7.166   1.309   6.526
15541WAT     H246866   7.216   1.352   6.377
15542WAT      O46867   6.530   6.405   3.796
15542WAT     H146868   6.440   6.371   3.768
15542WAT     H246869   6.600   6.339   3.769
15543WAT      O46870   3.064   7.673   4.947
15543WAT     H146871   3.075   7.607   5.021
15543WAT     H246872   3.147   7.674   4.891
15544WAT      O46873   3.455   9.420   8.767
15544WAT     H146874   3.395   9.371   8.704
15544WAT     H246875   3.524   9.470   8.716
15545WAT      O46876   1.874   4.804   0.223
15545WAT     H146877   1.863   4.749   0.306
15545WAT     H246878   1.917   4.748   0.152
15546WAT      O46879   4.340   7.911   5.385
15546WAT     H146880   4.388   7.999   5.392
15546WAT     H246881   4.309   7.883   5.476
15547WAT      O46882   0.221   5.477   0.490
15547WAT     H146883   0.312   5.497   0.528
15547WAT     H246884   0.158   5.456   0.564
15548WAT      O46885   9.516   1.584   6.359
15548WAT     H146886   9.426   1.572   6.317
15548WAT     H246887   9.587   1.547   6.299
15549WAT      O46888   9.649   4.870   5.542
15549WAT     H146889   9.607   4.827   5.622
15549WAT     H246890   9.584   4.866   5.466
15550WAT      O46891   0.031   3.790   1.784
15550WAT     H146892   0.096   3.840   1.842
15550WAT     H246893  -0.035   3.742   1.842
15551WAT      O46894   2.464   0.386   8.132
15551WAT     H146895   2.504   0.447   8.201
15551WAT     H246896   2.380   0.346   8.168
15552WAT      O46897   7.048   1.556   8.136
15552WAT     H146898   7.132   1.588   8.179
15552WAT     H246899   6.972   1.617   8.162
15553WAT      O46900   5.662   8.551   5.280
15553WAT     H146901   5.617   8.463   5.263
15553WAT     H246902   5.761   8.540   5.277
15554WAT      O46903   1.014   2.213   9.092
15554WAT     H146904   1.055   2.186   9.005
15554WAT     H246905   0.927   2.166   9.105
15555WAT      O46906   9.350   4.000   5.254
15555WAT     H146907   9.294   3.961   5.181
15555WAT     H246908   9.436   3.949   5.260
15556WAT      O46909   2.747   0.627   2.607
15556WAT     H146910   2.814   0.679   2.660
15556WAT     H246911   2.687   0.691   2.558
15557WAT      O46912   1.415   3.011   2.875
15557WAT     H146913   1.365   3.069   2.939
15557WAT     H246914   1.350   2.953   2.826
15558WAT      O46915   5.705   7.988   4.968
15558WAT     H146916   5.685   7.957   4.875
15558WAT     H246917   5.803   7.980   4.986
15559WAT      O46918   4.657   0.216   4.080
15559WAT     H146919   4.585   0.150   4.061
15559WAT     H246920   4.656   0.241   4.177
15560WAT      O46921   8.946   8.734   0.962
15560WAT     H146922   8.879   8.707   0.893
15560WAT     H246923   8.906   8.725   1.053
15561WAT      O46924   4.659   2.924   4.279
15561WAT     H146925   4.667   3.022   4.299
15561WAT     H246926   4.636   2.874   4.363
15562WAT      O46927   8.009   9.215   9.823
15562WAT     H146928   7.955   9.132   9.837
15562WAT     H246929   7.948   9.294   9.821
15563WAT      O46930   3.982   7.061   0.321
15563WAT     H146931   3.888   7.094   0.329
15563WAT     H246932   3.987   6.992   0.248
15564WAT      O46933   1.146   0.625   1.968
15564WAT     H146934   1.194   0.587   1.888
15564WAT     H246935   1.047   0.619   1.953
15565WAT      O46936   8.674   6.640   4.814
15565WAT     H146937   8.715   6.570   4.756
15565WAT     H246938   8.732   6.655   4.894
15566WAT      O46939   5.085   9.808   5.768
15566WAT     H146940   5.006   9.812   5.707
15566WAT     H246941   5.078   9.880   5.837
15567WAT      O46942   1.138   9.816   7.891
15567WAT     H146943   1.207   9.854   7.953
15567WAT     H246944   1.048   9.850   7.917
15568WAT      O46945   5.766   4.221   0.294
15568WAT     H146946   5.805   4.309   0.267
15568WAT     H246947   5.839   4.152   0.299
15569WAT      O46948   2.030   9.142   4.241
15569WAT     H146949   2.068   9.199   4.314
15569WAT     H246950   2.082   9.057   4.235
15570WAT      O46951   2.454   8.737   4.796
15570WAT     H146952   2.549   8.706   4.788
15570WAT     H246953   2.441   8.784   4.883
15571WAT      O46954   4.651   6.102   3.377
15571WAT     H146955   4.632   6.163   3.454
15571WAT     H246956   4.721   6.036   3.404
15572WAT      O46957   4.961   8.454   6.808
15572WAT     H146958   5.016   8.486   6.732
15572WAT     H246959   5.011   8.383   6.858
15573WAT      O46960   2.314   6.312   5.440
15573WAT     H146961   2.289   6.301   5.536
15573WAT     H246962   2.412   6.334   5.434
15574WAT      O46963   8.069   1.412   2.726
15574WAT     H146964   8.115   1.340   2.674
15574WAT     H246965   7.972   1.388   2.736
15575WAT      O46966   7.010   9.168   4.460
15575WAT     H146967   7.052   9.167   4.550
15575WAT     H246968   7.024   9.258   4.417
15576WAT      O46969   3.542   2.357   3.409
15576WAT     H146970   3.496   2.286   3.355
15576WAT     H246971   3.500   2.360   3.500
15577WAT      O46972   9.642   5.019   9.040
15577WAT     H146973   9.711   4.976   8.982
15577WAT     H246974   9.558   4.965   9.039
15578WAT      O46975   3.525   1.075   1.674
15578WAT     H146976   3.471   1.130   1.610
15578WAT     H246977   3.527   0.980   1.643
15579WAT      O46978   9.590   7.959   0.057
15579WAT     H146979   9.683   7.925   0.067
15579WAT     H246980   9.550   7.973   0.148
15580WAT      O46981   7.288   7.798   9.455
15580WAT     H146982   7.328   7.709   9.434
15580WAT     H246983   7.312   7.825   9.548
15581WAT      O46984   4.579   1.304   8.336
15581WAT     H146985   4.495   1.335   8.290
15581WAT     H246986   4.659   1.337   8.285
15582WAT      O46987   3.261   4.330   0.532
15582WAT     H146988   3.215   4.276   0.461
15582WAT     H246989   3.360   4.318   0.523
15583WAT      O46990   1.612   0.608   4.926
15583WAT     H146991   1.662   0.694   4.914
15583WAT     H246992   1.514   0.626   4.917
15584WAT      O46993   0.494   6.668   1.819
15584WAT     H146994   0.444   6.724   1.884
15584WAT     H246995   0.499   6.716   1.731
15585WAT      O46996   3.278   5.761   4.868
15585WAT     H146997   3.337   5.834   4.902
15585WAT     H246998   3.208   5.740   4.936
15586WAT      O46999   9.122   2.318   3.480
15586WAT     H147000   9.131   2.262   3.563
15586WAT     H247001   9.088   2.409   3.505
15587WAT      O47002   8.728   6.087   4.172
15587WAT     H147003   8.702   6.183   4.185
15587WAT     H247004   8.721   6.064   4.075
15588WAT      O47005   9.750   6.208   6.567
15588WAT     H147006   9.681   6.258   6.621
15588WAT     H247007   9.775   6.124   6.615
15589WAT      O47008   3.833   8.116   8.835
15589WAT     H147009   3.883   8.188   8.883
15589WAT     H247010   3.895   8.042   8.812
15590WAT      O47011   8.957   8.474   0.527
15590WAT     H147012   8.904   8.531   0.463
15590WAT     H247013   8.988   8.392   0.479
15591WAT      O47014   4.483   4.880   2.402
15591WAT     H147015   4.533   4.855   2.319
15591WAT     H247016   4.436   4.968   2.388
15592WAT      O47017   1.599   4.822   1.970
15592WAT     H147018   1.674   4.756   1.969
15592WAT     H247019   1.563   4.832   1.877
15593WAT      O47020   8.518   4.175   0.869
15593WAT     H147021   8.588   4.235   0.909
15593WAT     H247022   8.514   4.090   0.921
15594WAT      O47023   9.170   8.266   1.362
15594WAT     H147024   9.196   8.232   1.453
15594WAT     H247025   9.189   8.364   1.356
15595WAT      O47026   6.808   6.404   8.640
15595WAT     H147027   6.902   6.383   8.663
15595WAT     H247028   6.762   6.321   8.607
15596WAT      O47029   6.272   5.879   4.550
15596WAT     H147030   6.225   5.820   4.616
15596WAT     H247031   6.368   5.889   4.577
15597WAT      O47032   4.822   8.778   8.306
15597WAT     H147033   4.820   8.686   8.268
15597WAT     H247034   4.867   8.840   8.242
15598WAT      O47035   5.973   7.593   8.682
15598WAT     H147036   6.040   7.619   8.612
15598WAT     H247037   6.020   7.568   8.766
15599WAT      O47038   0.572   5.204   9.008
15599WAT     H147039   0.500   5.159   8.955
15599WAT     H247040   0.567   5.176   9.104
15600WAT      O47041   2.925   6.264   7.070
15600WAT     H147042   2.978   6.214   7.003
15600WAT     H247043   2.986   6.305   7.138
15601WAT      O47044   2.506   9.190   5.669
15601WAT     H147045   2.603   9.216   5.663
15601WAT     H247046   2.453   9.244   5.603
15602WAT      O47047   6.421   6.527   6.276
15602WAT     H147048   6.350   6.549   6.209
15602WAT     H247049   6.483   6.604   6.285
15603WAT      O47050   7.031   6.757   8.473
15603WAT     H147051   7.035   6.761   8.373
15603WAT     H247052   7.104   6.698   8.507
15604WAT      O47053   5.004   4.144   8.908
15604WAT     H147054   5.061   4.135   8.989
15604WAT     H247055   5.062   4.156   8.827
15605WAT      O47056   3.076   1.398   3.670
15605WAT     H147057   3.105   1.321   3.726
15605WAT     H247058   3.098   1.484   3.716
15606WAT      O47059   9.554   2.488   1.243
15606WAT     H147060   9.603   2.523   1.324
15606WAT     H247061   9.576   2.391   1.230
15607WAT      O47062   3.862   4.406   2.174
15607WAT     H147063   3.916   4.323   2.159
15607WAT     H247064   3.781   4.384   2.228
15608WAT      O47065   8.884   1.903   3.770
15608WAT     H147066   8.844   1.823   3.813
15608WAT     H247067   8.923   1.878   3.682
15609WAT      O47068   8.670   7.146   8.393
15609WAT     H147069   8.659   7.065   8.451
15609WAT     H247070   8.729   7.212   8.439
15610WAT      O47071   1.836   5.787   7.398
15610WAT     H147072   1.804   5.696   7.422
15610WAT     H247073   1.791   5.855   7.456
15611WAT      O47074   5.907   8.618   8.785
15611WAT     H147075   5.818   8.594   8.823
15611WAT     H247076   5.958   8.534   8.766
15612WAT      O47077   4.449   2.909   2.857
15612WAT     H147078   4.352   2.885   2.864
15612WAT     H247079   4.460   2.978   2.785
15613WAT      O47080   2.754   4.919   9.181
15613WAT     H147081   2.760   4.865   9.097
15613WAT     H247082   2.777   5.014   9.161
15614WAT      O47083   6.187   7.882   8.146
15614WAT     H147084   6.094   7.895   8.111
15614WAT     H247085   6.253   7.903   8.075
15615WAT      O47086   6.279   3.024   7.252
15615WAT     H147087   6.326   2.961   7.190
15615WAT     H247088   6.188   3.044   7.217
15616WAT      O47089   8.617   3.656   7.718
15616WAT     H147090   8.597   3.625   7.811
15616WAT     H247091   8.544   3.716   7.686
15617WAT      O47092   8.855   4.059   7.775
15617WAT     H147093   8.923   4.131   7.789
15617WAT     H247094   8.809   4.072   7.687
15618WAT      O47095   1.251   6.649   1.748
15618WAT     H147096   1.167   6.612   1.789
15618WAT     H247097   1.227   6.712   1.674
15619WAT      O47098   7.167   8.864   6.527
15619WAT     H147099   7.208   8.940   6.578
15619WAT     H247100   7.145   8.894   6.434
15620WAT      O47101   0.574   3.966   3.180
15620WAT     H147102   0.503   4.002   3.121
15620WAT     H247103   0.612   3.882   3.140
15621WAT      O47104   8.469   0.382   9.458
15621WAT     H147105   8.543   0.427   9.507
15621WAT     H247106   8.388   0.440   9.460
15622WAT      O47107   0.576   6.983   1.453
15622WAT     H147108   0.481   7.001   1.479
15622WAT     H247109   0.617   7.067   1.419
15623WAT      O47110   6.597   3.184   1.940
15623WAT     H147111   6.665   3.245   1.981
15623WAT     H247112   6.510   3.194   1.989
15624WAT      O47113   8.228   1.610   8.615
15624WAT     H147114   8.313   1.583   8.661
15624WAT     H247115   8.163   1.534   8.618
15625WAT      O47116   3.052   0.578   5.556
15625WAT     H147117   2.994   0.630   5.620
15625WAT     H247118   3.100   0.506   5.606
15626WAT      O47119   0.360   5.294   0.768
15626WAT     H147120   0.378   5.387   0.736
15626WAT     H247121   0.348   5.295   0.868
15627WAT      O47122   8.754   1.173   1.192
15627WAT     H147123   8.772   1.233   1.115
15627WAT     H247124   8.735   1.080   1.158
15628WAT      O47125   2.604   7.353   1.940
15628WAT     H147126   2.543   7.275   1.956
15628WAT     H247127   2.568   7.409   1.865
15629WAT      O47128   7.780   1.432   3.583
15629WAT     H147129   7.701   1.376   3.608
15629WAT     H247130   7.789   1.435   3.484
15630WAT      O47131   1.336   6.915   1.483
15630WAT     H147132   1.301   6.926   1.577
15630WAT     H247133   1.375   6.824   1.473
15631WAT      O47134   9.072   2.492   6.823
15631WAT     H147135   9.165   2.459   6.841
15631WAT     H247136   9.040   2.454   6.737
15632WAT      O47137   4.371   9.264   1.758
15632WAT     H147138   4.458   9.289   1.799
15632WAT     H247139   4.297   9.280   1.823
15633WAT      O47140   3.404   5.497   3.605
15633WAT     H147141   3.417   5.430   3.531
15633WAT     H247142   3.325   5.471   3.659
15634WAT      O47143   8.445   6.774   2.019
15634WAT     H147144   8.541   6.801   2.015
15634WAT     H247145   8.387   6.855   2.025
15635WAT      O47146   1.563   5.086   8.483
15635WAT     H147147   1.641   5.044   8.531
15635WAT     H247148   1.598   5.151   8.416
15636WAT      O47149   2.110   2.902   9.743
15636WAT     H147150   2.202   2.875   9.716
15636WAT     H247151   2.077   2.975   9.683
15637WAT      O47152   1.044   8.909   7.903
15637WAT     H147153   1.041   9.006   7.925
15637WAT     H247154   1.124   8.891   7.845
15638WAT      O47155   4.885   3.724   6.155
15638WAT     H147156   4.924   3.654   6.215
15638WAT     H247157   4.857   3.803   6.210
15639WAT      O47158   0.294   4.440   0.641
15639WAT     H147159   0.321   4.398   0.727
15639WAT     H247160   0.353   4.520   0.623
15640WAT      O47161   4.511   0.276   1.311
15640WAT     H147162   4.447   0.259   1.386
15640WAT     H247163   4.584   0.208   1.315
15641WAT      O47164   5.711   5.733   8.658
15641WAT     H147165   5.721   5.674   8.577
15641WAT     H247166   5.772   5.699   8.730
15642WAT      O47167   9.725   9.833   9.127
15642WAT     H147168   9.657   9.821   9.200
15642WAT     H247169   9.812   9.862   9.167
15643WAT      O47170   9.683   3.308   8.815
15643WAT     H147171   9.669   3.249   8.894
15643WAT     H247172   9.770   3.286   8.771
15644WAT      O47173   3.974   4.897   8.804
15644WAT     H147174   4.071   4.910   8.824
15644WAT     H247175   3.929   4.986   8.797
15645WAT      O47176   5.999   6.181   8.619
15645WAT     H147177   5.927   6.250   8.614
15645WAT     H247178   5.959   6.092   8.639
15646WAT      O47179   7.754   4.083   7.993
15646WAT     H147180   7.735   4.054   8.086
15646WAT     H247181   7.812   4.015   7.947
15647WAT      O47182   4.377   1.038   9.491
15647WAT     H147183   4.307   1.109   9.498
15647WAT     H247184   4.368   0.976   9.569
15648WAT      O47185   1.427   4.407   4.153
15648WAT     H147186   1.517   4.363   4.160
15648WAT     H247187   1.383   4.380   4.068
15649WAT      O47188   7.856   1.185   4.477
15649WAT     H147189   7.813   1.223   4.395
15649WAT     H247190   7.786   1.152   4.540
15650WAT      O47191   4.111   6.962   2.564
15650WAT     H147192   4.187   6.988   2.504
15650WAT     H247193   4.128   6.997   2.656
15651WAT      O47194   7.379   4.449   1.993
15651WAT     H147195   7.424   4.436   1.905
15651WAT     H247196   7.446   4.484   2.060
15652WAT      O47197   8.824   9.210   4.152
15652WAT     H147198   8.897   9.194   4.086
15652WAT     H247199   8.828   9.140   4.224
15653WAT      O47200   2.447   4.959   5.893
15653WAT     H147201   2.467   4.985   5.799
15653WAT     H247202   2.531   4.959   5.947
15654WAT      O47203   1.646   0.729   2.995
15654WAT     H147204   1.620   0.690   2.907
15654WAT     H247205   1.744   0.743   2.998
15655WAT      O47206   0.747   6.470   2.321
15655WAT     H147207   0.747   6.499   2.225
15655WAT     H247208   0.671   6.513   2.369
15656WAT      O47209   2.446   4.861   4.543
15656WAT     H147210   2.461   4.950   4.585
15656WAT     H247211   2.487   4.790   4.599
15657WAT      O47212   0.348   3.890   8.400
15657WAT     H147213   0.444   3.916   8.390
15657WAT     H247214   0.343   3.796   8.434
15658WAT      O47215   0.448   0.795   6.099
15658WAT     H147216   0.531   0.829   6.144
15658WAT     H247217   0.393   0.872   6.067
15659WAT      O47218   5.479   5.313   3.018
15659WAT     H147219   5.387   5.318   2.980
15659WAT     H247220   5.541   5.367   2.961
15660WAT      O47221   2.659   0.662   8.770
15660WAT     H147222   2.596   0.739   8.769
15660WAT     H247223   2.711   0.662   8.855
15661WAT      O47224   8.628   6.505   2.942
15661WAT     H147225   8.663   6.421   2.984
15661WAT     H247226   8.557   6.482   2.876
15662WAT      O47227   7.266   0.480   7.648
15662WAT     H147228   7.179   0.496   7.602
15662WAT     H247229   7.310   0.399   7.608
15663WAT      O47230   0.822   2.989   1.977
15663WAT     H147231   0.786   2.993   2.070
15663WAT     H247232   0.785   2.908   1.930
15664WAT      O47233   3.706   7.886   6.955
15664WAT     H147234   3.718   7.885   7.054
15664WAT     H247235   3.767   7.954   6.915
15665WAT      O47236   8.397   1.653   2.379
15665WAT     H147237   8.465   1.583   2.404
15665WAT     H247238   8.334   1.666   2.455
15666WAT      O47239   8.068   9.229   5.635
15666WAT     H147240   8.084   9.237   5.734
15666WAT     H247241   8.119   9.300   5.587
15667WAT      O47242   8.092   2.929   6.759
15667WAT     H147243   8.186   2.925   6.725
15667WAT     H247244   8.092   2.944   6.858
15668WAT      O47245   9.092   2.101   6.539
15668WAT     H147246   9.037   2.033   6.491
15668WAT     H247247   9.188   2.073   6.539
15669WAT      O47248   9.722   8.785   1.989
15669WAT     H147249   9.750   8.702   2.038
15669WAT     H247250   9.623   8.783   1.975
15670WAT      O47251   3.209   7.862   1.389
15670WAT     H147252   3.229   7.764   1.395
15670WAT     H247253   3.152   7.880   1.309
15671WAT      O47254   3.200   3.739   3.565
15671WAT     H147255   3.260   3.661   3.587
15671WAT     H247256   3.137   3.713   3.492
15672WAT      O47257   3.900   9.268   4.378
15672WAT     H147258   3.883   9.287   4.281
15672WAT     H247259   3.904   9.355   4.428
15673WAT      O47260   4.768   5.676   6.654
15673WAT     H147261   4.721   5.762   6.636
15673WAT     H247262   4.733   5.635   6.738
15674WAT      O47263   0.103   0.528   4.237
15674WAT     H147264   0.081   0.560   4.329
15674WAT     H247265   0.134   0.434   4.240
15675WAT      O47266   7.711   1.091   8.804
15675WAT     H147267   7.685   1.178   8.763
15675WAT     H247268   7.640   1.023   8.787
15676WAT      O47269   0.469   0.021   3.688
15676WAT     H147270   0.513  -0.060   3.650
15676WAT     H247271   0.535   0.096   3.691
15677WAT      O47272   3.203   9.471   4.996
15677WAT     H147273   3.257   9.431   4.922
15677WAT     H247274   3.251   9.460   5.083
15678WAT      O47275   5.239   4.313   1.893
15678WAT     H147276   5.234   4.399   1.943
15678WAT     H247277   5.330   4.272   1.905
15679WAT      O47278   1.170   4.811   3.237
15679WAT     H147279   1.119   4.866   3.304
15679WAT     H247280   1.248   4.864   3.203
15680WAT      O47281   2.835   0.078   8.158
15680WAT     H147282   2.922   0.124   8.177
15680WAT     H247283   2.802   0.108   8.068
15681WAT      O47284   1.433   7.994   7.347
15681WAT     H147285   1.384   7.919   7.391
15681WAT     H247286   1.384   8.023   7.265
15682WAT      O47287   1.615   1.731   9.324
15682WAT     H147288   1.545   1.716   9.255
15682WAT     H247289   1.591   1.811   9.380
15683WAT      O47290   1.281   7.759   0.277
15683WAT     H147291   1.378   7.742   0.259
15683WAT     H247292   1.264   7.857   0.277
15684WAT      O47293   1.800   7.835   3.510
15684WAT     H147294   1.709   7.849   3.471
15684WAT     H247295   1.792   7.809   3.606
15685WAT      O47296   9.491   1.237   0.063
15685WAT     H147297   9.414   1.301   0.073
15685WAT     H247298   9.485   1.166   0.133
15686WAT      O47299   8.900   7.937   5.991
15686WAT     H147300   8.872   7.976   5.903
15686WAT     H247301   8.975   7.990   6.029
15687WAT      O47302   5.334   6.407   7.412
15687WAT     H147303   5.279   6.324   7.410
15687WAT     H247304   5.428   6.385   7.383
15688WAT      O47305   8.239   8.600   8.705
15688WAT     H147306   8.213   8.508   8.674
15688WAT     H247307   8.320   8.630   8.654
15689WAT      O47308   8.538   8.365   4.870
15689WAT     H147309   8.439   8.360   4.875
15689WAT     H247310   8.579   8.300   4.935
15690WAT      O47311   3.733   6.809   8.492
15690WAT     H147312   3.645   6.842   8.458
15690WAT     H247313   3.725   6.787   8.590
15691WAT      O47314   8.362   5.104   8.089
15691WAT     H147315   8.442   5.128   8.034
15691WAT     H247316   8.349   5.005   8.086
15692WAT      O47317   5.278   9.417   6.893
15692WAT     H147318   5.348   9.487   6.908
15692WAT     H247319   5.196   9.438   6.946
15693WAT      O47320   5.066   0.279   7.403
15693WAT     H147321   5.001   0.350   7.378
15693WAT     H247322   5.106   0.300   7.492
15694WAT      O47323   2.590   2.808   8.493
15694WAT     H147324   2.668   2.762   8.451
15694WAT     H247325   2.624   2.885   8.548
15695WAT      O47326   8.616   7.284   3.072
15695WAT     H147327   8.653   7.205   3.024
15695WAT     H247328   8.657   7.289   3.163
15696WAT      O47329   5.234   3.675   2.478
15696WAT     H147330   5.274   3.686   2.387
15696WAT     H247331   5.264   3.588   2.517
15697WAT      O47332   6.066   9.639   0.556
15697WAT     H147333   5.984   9.655   0.610
15697WAT     H247334   6.056   9.553   0.506
15698WAT      O47335   6.793   5.549   5.791
15698WAT     H147336   6.847   5.571   5.872
15698WAT     H247337   6.792   5.628   5.730
15699WAT      O47338   5.003   0.060   4.663
15699WAT     H147339   4.972   0.008   4.742
15699WAT     H247340   5.097   0.033   4.640
15700WAT      O47341   9.292   5.779   7.385
15700WAT     H147342   9.252   5.845   7.448
15700WAT     H247343   9.325   5.827   7.304
15701WAT      O47344   7.320   8.817   0.211
15701WAT     H147345   7.370   8.849   0.131
15701WAT     H247346   7.361   8.733   0.246
15702WAT      O47347   6.284   0.407   9.647
15702WAT     H147348   6.227   0.354   9.584
15702WAT     H247349   6.226   0.446   9.719
15703WAT      O47350   2.916   5.112   5.722
15703WAT     H147351   2.926   5.013   5.719
15703WAT     H247352   2.974   5.149   5.794
15704WAT      O47353   7.640   4.291   6.844
15704WAT     H147354   7.661   4.309   6.940
15704WAT     H247355   7.649   4.376   6.791
15705WAT      O47356   2.085   4.651   2.423
15705WAT     H147357   2.138   4.571   2.392
15705WAT     H247358   2.128   4.688   2.506
15706WAT      O47359   6.033   7.014   3.259
15706WAT     H147360   6.061   6.921   3.235
15706WAT     H247361   5.936   7.026   3.237
15707WAT      O47362   0.997   1.552   1.939
15707WAT     H147363   1.094   1.538   1.958
15707WAT     H247364   0.983   1.644   1.902
15708WAT      O47365   5.229   7.566   6.606
15708WAT     H147366   5.143   7.572   6.555
15708WAT     H247367   5.305   7.566   6.542
15709WAT      O47368   5.930   7.020   8.864
15709WAT     H147369   5.876   6.975   8.935
15709WAT     H247370   5.944   6.957   8.788
15710WAT      O47371   9.782   2.728   1.834
15710WAT     H147372   9.781   2.636   1.873
15710WAT     H247373   9.734   2.791   1.895
15711WAT      O47374   3.642   8.278   0.246
15711WAT     H147375   3.554   8.282   0.200
15711WAT     H247376   3.658   8.186   0.281
15712WAT      O47377   3.354   1.457   0.649
15712WAT     H147378   3.360   1.416   0.558
15712WAT     H247379   3.354   1.557   0.642
15713WAT      O47380   2.908   3.571   3.665
15713WAT     H147381   2.843   3.619   3.606
15713WAT     H247382   2.967   3.637   3.711
15714WAT      O47383   1.455   8.819   7.318
15714WAT     H147384   1.460   8.728   7.360
15714WAT     H247385   1.495   8.887   7.380
15715WAT      O47386   2.160   4.367   4.821
15715WAT     H147387   2.147   4.277   4.780
15715WAT     H247388   2.247   4.368   4.871
15716WAT      O47389   3.918   1.761   7.722
15716WAT     H147390   4.001   1.707   7.708
15716WAT     H247391   3.849   1.705   7.767
15717WAT      O47392   7.847   6.579   0.372
15717WAT     H147393   7.874   6.488   0.404
15717WAT     H247394   7.930   6.631   0.349
15718WAT      O47395   5.943   8.987   8.159
15718WAT     H147396   5.849   9.016   8.180
15718WAT     H247397   5.941   8.896   8.117
15719WAT      O47398   0.036   3.746   4.331
15719WAT     H147399   0.077   3.826   4.376
15719WAT     H247400   0.080   3.733   4.241
15720WAT      O47401   3.168   7.436   8.310
15720WAT     H147402   3.199   7.506   8.246
15720WAT     H247403   3.194   7.461   8.403
15721WAT      O47404   0.445   7.106   7.883
15721WAT     H147405   0.418   7.180   7.944
15721WAT     H247406   0.363   7.061   7.847
15722WAT      O47407   0.324   9.691   5.192
15722WAT     H147408   0.389   9.723   5.123
15722WAT     H247409   0.268   9.618   5.153
15723WAT      O47410   0.033   6.992   7.478
15723WAT     H147411  -0.027   7.055   7.428
15723WAT     H247412   0.125   6.995   7.439
15724WAT      O47413   3.064   6.629   9.183
15724WAT     H147414   3.081   6.712   9.129
15724WAT     H247415   3.023   6.560   9.124
15725WAT      O47416   3.364   3.608   2.094
15725WAT     H147417   3.278   3.660   2.093
15725WAT     H247418   3.393   3.595   2.189
15726WAT      O47419   6.436   5.780   7.279
15726WAT     H147420   6.441   5.796   7.180
15726WAT     H247421   6.500   5.841   7.326
15727WAT      O47422   2.597   2.423   7.315
15727WAT     H147423   2.575   2.360   7.240
15727WAT     H247424   2.685   2.466   7.297
15728WAT      O47425   0.525   1.361   1.859
15728WAT     H147426   0.498   1.292   1.792
15728WAT     H247427   0.463   1.439   1.853
15729WAT      O47428   2.108   6.744   6.064
15729WAT     H147429   2.135   6.756   6.160
15729WAT     H247430   2.174   6.790   6.005
15730WAT      O47431   4.511   5.796   5.702
15730WAT     H147432   4.577   5.809   5.628
15730WAT     H247433   4.484   5.700   5.707
15731WAT      O47434   5.236   8.790   4.709
15731WAT     H147435   5.248   8.856   4.635
15731WAT     H247436   5.196   8.836   4.788
15732WAT      O47437   1.779   7.314   7.466
15732WAT     H147438   1.722   7.234   7.448
15732WAT     H247439   1.873   7.296   7.437
15733WAT      O47440   5.162   3.245   5.293
15733WAT     H147441   5.138   3.172   5.357
15733WAT     H247442   5.150   3.334   5.338
15734WAT      O47443   8.181   1.747   1.121
15734WAT     H147444   8.147   1.831   1.080
15734WAT     H247445   8.139   1.668   1.075
15735WAT      O47446   0.759   0.756   3.288
15735WAT     H147447   0.859   0.751   3.299
15735WAT     H247448   0.717   0.760   3.379
15736WAT      O47449   9.499   1.675   2.440
15736WAT     H147450   9.554   1.756   2.419
15736WAT     H247451   9.412   1.679   2.391
15737WAT      O47452   0.501   5.680   4.059
15737WAT     H147453   0.437   5.661   4.134
15737WAT     H247454   0.455   5.735   3.989
15738WAT      O47455   4.890   3.546   0.074
15738WAT     H147456   4.944   3.465   0.094
15738WAT     H247457   4.889   3.606   0.154
15739WAT      O47458   9.587   6.722   1.954
15739WAT     H147459   9.628   6.773   1.878
15739WAT     H247460   9.579   6.626   1.928
15740WAT      O47461   9.877   8.312   6.192
15740WAT     H147462   9.947   8.380   6.170
15740WAT     H247463   9.854   8.259   6.111
15741WAT      O47464   7.741   0.781   0.667
15741WAT     H147465   7.743   0.789   0.766
15741WAT     H247466   7.653   0.744   0.637
15742WAT      O47467   6.320   3.281   5.003
15742WAT     H147468   6.356   3.253   5.092
15742WAT     H247469   6.358   3.223   4.931
15743WAT      O47470   4.661   8.545   6.625
15743WAT     H147471   4.699   8.630   6.662
15743WAT     H247472   4.575   8.565   6.578
15744WAT      O47473   3.925   5.793   5.664
15744WAT     H147474   3.827   5.794   5.681
15744WAT     H247475   3.959   5.887   5.660
15745WAT      O47476   6.768   1.986   2.617
15745WAT     H147477   6.845   1.965   2.558
15745WAT     H247478   6.685   1.995   2.562
15746WAT      O47479   8.491   8.656   8.537
15746WAT     H147480   8.476   8.738   8.482
15746WAT     H247481   8.515   8.682   8.631
15747WAT      O47482   0.203   2.197   4.414
15747WAT     H147483   0.260   2.213   4.334
15747WAT     H247484   0.236   2.253   4.490
15748WAT      O47485   5.971   8.097   1.917
15748WAT     H147486   5.965   8.083   1.818
15748WAT     H247487   5.887   8.063   1.960
15749WAT      O47488   8.580   1.493   0.631
15749WAT     H147489   8.500   1.543   0.663
15749WAT     H247490   8.657   1.511   0.692
15750WAT      O47491   3.107   6.484   5.858
15750WAT     H147492   3.187   6.538   5.884
15750WAT     H247493   3.080   6.426   5.934
15751WAT      O47494   2.063   5.835   7.231
15751WAT     H147495   2.038   5.838   7.134
15751WAT     H247496   1.986   5.801   7.284
15752WAT      O47497   8.921   6.585   9.539
15752WAT     H147498   8.858   6.507   9.547
15752WAT     H247499   8.872   6.670   9.558
15753WAT      O47500   6.872   6.680   9.751
15753WAT     H147501   6.861   6.724   9.840
15753WAT     H247502   6.966   6.650   9.739
15754WAT      O47503   4.503   2.964   7.892
15754WAT     H147504   4.483   2.867   7.905
15754WAT     H247505   4.502   3.010   7.981
15755WAT      O47506   2.773   1.748   4.452
15755WAT     H147507   2.741   1.814   4.520
15755WAT     H247508   2.820   1.673   4.500
15756WAT      O47509   1.662   7.757   6.239
15756WAT     H147510   1.714   7.745   6.323
15756WAT     H247511   1.666   7.674   6.185
15757WAT      O47512   9.009   8.267   1.138
15757WAT     H147513   9.053   8.290   1.225
15757WAT     H247514   8.913   8.293   1.141
15758WAT      O47515   9.005   4.823   8.244
15758WAT     H147516   8.986   4.870   8.330
15758WAT     H247517   9.104   4.820   8.228
15759WAT      O47518   4.820   2.030   3.380
15759WAT     H147519   4.778   1.954   3.331
15759WAT     H247520   4.909   2.052   3.338
15760WAT      O47521   6.533   0.844   0.397
15760WAT     H147522   6.599   0.785   0.444
15760WAT     H247523   6.511   0.804   0.308
15761WAT      O47524   6.633   8.549   2.688
15761WAT     H147525   6.694   8.471   2.692
15761WAT     H247526   6.671   8.624   2.743
15762WAT      O47527   0.715   6.485   5.380
15762WAT     H147528   0.619   6.480   5.354
15762WAT     H247529   0.734   6.421   5.454
15763WAT      O47530   0.455   0.996   9.848
15763WAT     H147531   0.399   1.034   9.774
15763WAT     H247532   0.511   0.922   9.812
15764WAT      O47533   0.498   7.223   3.146
15764WAT     H147534   0.441   7.303   3.163
15764WAT     H247535   0.465   7.146   3.202
15765WAT      O47536   0.922   2.856   5.371
15765WAT     H147537   0.932   2.884   5.276
15765WAT     H247538   0.828   2.828   5.388
15766WAT      O47539   9.670   8.469   8.434
15766WAT     H147540   9.645   8.390   8.488
15766WAT     H247541   9.628   8.462   8.343
15767WAT      O47542   2.265   3.039   9.342
15767WAT     H147543   2.346   3.096   9.329
15767WAT     H247544   2.200   3.087   9.401
15768WAT      O47545   2.130   5.232   9.183
15768WAT     H147546   2.108   5.263   9.276
15768WAT     H247547   2.202   5.163   9.188
15769WAT      O47548   9.108   4.328   7.564
15769WAT     H147549   9.097   4.322   7.663
15769WAT     H247550   9.155   4.247   7.530
15770WAT      O47551   7.756   7.196   6.207
15770WAT     H147552   7.765   7.097   6.200
15770WAT     H247553   7.824   7.232   6.271
15771WAT      O47554   2.836   7.859   4.052
15771WAT     H147555   2.920   7.874   3.999
15771WAT     H247556   2.859   7.858   4.149
15772WAT      O47557   8.639   9.626   4.114
15772WAT     H147558   8.714   9.576   4.071
15772WAT     H247559   8.616   9.582   4.201
15773WAT      O47560   6.969   1.186   0.087
15773WAT     H147561   7.054   1.218   0.046
15773WAT     H247562   6.931   1.112   0.032
15774WAT      O47563   6.051   3.880   1.391
15774WAT     H147564   6.042   3.970   1.434
15774WAT     H247565   6.066   3.892   1.293
15775WAT      O47566   0.322   2.420   8.860
15775WAT     H147567   0.263   2.345   8.890
15775WAT     H247568   0.418   2.394   8.873
15776WAT      O47569   8.709   7.677   7.963
15776WAT     H147570   8.631   7.710   8.016
15776WAT     H247571   8.681   7.663   7.868
15777WAT      O47572   3.246   9.105   4.898
15777WAT     H147573   3.296   9.116   4.984
15777WAT     H247574   3.257   9.188   4.843
15778WAT      O47575   9.303   5.079   7.934
15778WAT     H147576   9.254   4.994   7.915
15778WAT     H247577   9.263   5.153   7.881
15779WAT      O47578   7.987   1.493   6.879
15779WAT     H147579   7.983   1.591   6.901
15779WAT     H247580   7.963   1.480   6.783
15780WAT      O47581   5.833   8.444   3.110
15780WAT     H147582   5.787   8.527   3.141
15780WAT     H247583   5.927   8.443   3.144
15781WAT      O47584   6.163   2.575   9.870
15781WAT     H147585   6.162   2.477   9.887
15781WAT     H247586   6.244   2.599   9.816
15782WAT      O47587   8.685   0.053   6.643
15782WAT     H147588   8.661  -0.039   6.673
15782WAT     H247589   8.731   0.048   6.554
15783WAT      O47590   7.301   8.798   0.635
15783WAT     H147591   7.204   8.779   0.618
15783WAT     H247592   7.311   8.883   0.686
15784WAT      O47593   9.526   3.916   3.699
15784WAT     H147594   9.514   3.847   3.627
15784WAT     H247595   9.452   3.983   3.693
15785WAT      O47596   9.698   0.296   4.890
15785WAT     H147597   9.675   0.392   4.876
15785WAT     H247598   9.641   0.239   4.830
15786WAT      O47599   4.599   3.008   0.987
15786WAT     H147600   4.626   2.989   1.082
15786WAT     H247601   4.673   3.056   0.941
15787WAT      O47602   6.690   5.093   2.749
15787WAT     H147603   6.702   5.015   2.687
15787WAT     H247604   6.592   5.112   2.761
15788WAT      O47605   7.780   7.841   0.946
15788WAT     H147606   7.805   7.780   0.871
15788WAT     H247607   7.863   7.867   0.997
15789WAT      O47608   3.466   5.038   4.024
15789WAT     H147609   3.461   5.124   3.973
15789WAT     H247610   3.445   4.962   3.963
15790WAT      O47611   6.941   1.301   8.142
15790WAT     H147612   6.849   1.322   8.176
15790WAT     H247613   6.992   1.385   8.131
15791WAT      O47614   1.886   3.060   3.939
15791WAT     H147615   1.866   2.972   3.983
15791WAT     H247616   1.816   3.126   3.962
15792WAT      O47617   0.340   4.607   2.799
15792WAT     H147618   0.430   4.625   2.841
15792WAT     H247619   0.351   4.598   2.700
15793WAT      O47620   3.784   1.743   6.287
15793WAT     H147621   3.719   1.808   6.327
15793WAT     H247622   3.767   1.734   6.189
15794WAT      O47623   7.538   5.501   5.252
15794WAT     H147624   7.575   5.590   5.226
15794WAT     H247625   7.510   5.503   5.348
15795WAT      O47626   3.493   6.332   7.830
15795WAT     H147627   3.578   6.374   7.861
15795WAT     H247628   3.506   6.293   7.739
15796WAT      O47629   6.926   1.555   4.699
15796WAT     H147630   6.831   1.549   4.727
15796WAT     H247631   6.983   1.500   4.761
15797WAT      O47632   8.549   8.819   5.832
15797WAT     H147633   8.616   8.788   5.764
15797WAT     H247634   8.495   8.894   5.793
15798WAT      O47635   7.580   6.443   7.199
15798WAT     H147636   7.670   6.402   7.215
15798WAT     H247637   7.580   6.537   7.233
15799WAT      O47638   7.834   0.141   3.373
15799WAT     H147639   7.856   0.074   3.302
15799WAT     H247640   7.910   0.148   3.438
15800WAT      O47641   2.210   1.218   8.872
15800WAT     H147642   2.154   1.154   8.923
15800WAT     H247643   2.296   1.234   8.922
15801WAT      O47644   7.141   3.508   3.762
15801WAT     H147645   7.097   3.593   3.789
15801WAT     H247646   7.073   3.434   3.762
15802WAT      O47647   7.761   3.893   5.887
15802WAT     H147648   7.780   3.990   5.873
15802WAT     H247649   7.662   3.879   5.894
15803WAT      O47650   6.293   6.554   3.456
15803WAT     H147651   6.298   6.590   3.363
15803WAT     H247652   6.349   6.471   3.462
15804WAT      O47653   5.745   7.708   0.700
15804WAT     H147654   5.656   7.702   0.654
15804WAT     H247655   5.776   7.616   0.725
15805WAT      O47656   2.778   1.186   7.848
15805WAT     H147657   2.813   1.131   7.772
15805WAT     H247658   2.780   1.133   7.932
15806WAT      O47659   4.346   6.307   3.502
15806WAT     H147660   4.336   6.253   3.586
15806WAT     H247661   4.385   6.396   3.524
15807WAT      O47662   9.066   7.859   2.484
15807WAT     H147663   8.998   7.808   2.537
15807WAT     H247664   9.100   7.802   2.409
15808WAT      O47665   3.345   5.759   8.653
15808WAT     H147666   3.290   5.811   8.588
15808WAT     H247667   3.398   5.690   8.604
15809WAT      O47668   2.657   5.383   7.914
15809WAT     H147669   2.560   5.403   7.925
15809WAT     H247670   2.668   5.302   7.856
15810WAT      O47671   8.192   8.550   4.984
15810WAT     H147672   8.239   8.468   4.949
15810WAT     H247673   8.095   8.531   4.994
15811WAT      O47674   0.686   4.482   6.086
15811WAT     H147675   0.684   4.387   6.053
15811WAT     H247676   0.612   4.534   6.044
15812WAT      O47677   9.628   6.736   6.617
15812WAT     H147678   9.682   6.660   6.653
15812WAT     H247679   9.649   6.820   6.668
15813WAT      O47680   7.773   8.965   6.092
15813WAT     H147681   7.787   8.912   6.177
15813WAT     H247682   7.857   9.014   6.070
15814WAT      O47683   8.983   9.569   0.125
15814WAT     H147684   8.943   9.656   0.097
15814WAT     H247685   8.924   9.525   0.193
15815WAT      O47686   4.589   5.245   3.286
15815WAT     H147687   4.577   5.231   3.188
15815WAT     H247688   4.667   5.305   3.303
15816WAT      O47689   4.919   0.537   0.040
15816WAT     H147690   4.975   0.541   0.123
15816WAT     H247691   4.967   0.581  -0.035
15817WAT      O47692   5.782   5.946   0.820
15817WAT     H147693   5.831   6.008   0.882
15817WAT     H247694   5.733   6.000   0.752
15818WAT      O47695   1.513   7.440   1.395
15818WAT     H147696   1.477   7.482   1.479
15818WAT     H247697   1.603   7.401   1.414
15819WAT      O47698   3.265   5.295   5.676
15819WAT     H147699   3.356   5.335   5.678
15819WAT     H247700   3.197   5.369   5.675
15820WAT      O47701   2.467   1.593   4.142
15820WAT     H147702   2.566   1.597   4.157
15820WAT     H247703   2.423   1.667   4.193
15821WAT      O47704   2.392   5.820   1.957
15821WAT     H147705   2.319   5.837   2.024
15821WAT     H247706   2.377   5.732   1.913
15822WAT      O47707   0.605   5.956   5.113
15822WAT     H147708   0.505   5.955   5.118
15822WAT     H247709   0.639   5.862   5.118
15823WAT      O47710   4.750   8.754   7.554
15823WAT     H147711   4.761   8.665   7.510
15823WAT     H247712   4.665   8.796   7.524
15824WAT      O47713   5.907   3.359   3.120
15824WAT     H147714   5.885   3.311   3.205
15824WAT     H247715   5.994   3.407   3.130
15825WAT      O47716   3.276   3.093   4.219
15825WAT     H147717   3.177   3.106   4.211
15825WAT     H247718   3.322   3.137   4.142
15826WAT      O47719   0.162   7.760   5.645
15826WAT     H147720   0.122   7.727   5.730
15826WAT     H247721   0.249   7.713   5.628
15827WAT      O47722   7.776   4.328   5.643
15827WAT     H147723   7.758   4.299   5.549
15827WAT     H247724   7.842   4.403   5.643
15828WAT      O47725   7.916   2.067   3.969
15828WAT     H147726   7.961   2.019   4.043
15828WAT     H247727   7.852   2.135   4.006
15829WAT      O47728   9.400   5.174   9.736
15829WAT     H147729   9.333   5.135   9.674
15829WAT     H247730   9.394   5.129   9.825
15830WAT      O47731   4.372   7.739   7.777
15830WAT     H147732   4.425   7.712   7.697
15830WAT     H247733   4.287   7.783   7.748
15831WAT      O47734   4.533   8.922   7.485
15831WAT     H147735   4.568   8.967   7.402
15831WAT     H247736   4.451   8.869   7.462
15832WAT      O47737   4.282   4.850   4.438
15832WAT     H147738   4.301   4.912   4.362
15832WAT     H247739   4.232   4.900   4.509
15833WAT      O47740   2.541   7.317   9.733
15833WAT     H147741   2.529   7.415   9.743
15833WAT     H247742   2.625   7.288   9.779
15834WAT      O47743   6.162   3.482   5.486
15834WAT     H147744   6.065   3.503   5.476
15834WAT     H247745   6.198   3.528   5.568
15835WAT      O47746   4.360   7.987   9.180
15835WAT     H147747   4.409   8.002   9.094
15835WAT     H247748   4.367   7.891   9.206
15836WAT      O47749   1.121   8.853   9.466
15836WAT     H147750   1.175   8.774   9.493
15836WAT     H247751   1.126   8.923   9.536
15837WAT      O47752   3.371   3.282   4.036
15837WAT     H147753   3.309   3.337   4.091
15837WAT     H247754   3.336   3.274   3.943
15838WAT      O47755   3.875   3.821   4.740
15838WAT     H147756   3.813   3.811   4.818
15838WAT     H247757   3.845   3.761   4.666
15839WAT      O47758   5.304   7.349   2.865
15839WAT     H147759   5.212   7.327   2.831
15839WAT     H247760   5.333   7.278   2.930
15840WAT      O47761   8.866   1.122   5.873
15840WAT     H147762   8.938   1.102   5.940
15840WAT     H247763   8.778   1.129   5.921
15841WAT      O47764   2.045   3.848   4.016
15841WAT     H147765   1.980   3.818   4.086
15841WAT     H247766   2.095   3.928   4.050
15842WAT      O47767   5.980   8.398   0.730
15842WAT     H147768   5.904   8.463   0.740
15842WAT     H247769   6.025   8.413   0.641
15843WAT      O47770   1.975   7.601   0.654
15843WAT     H147771   1.921   7.518   0.667
15843WAT     H247772   1.916   7.676   0.625
15844WAT      O47773   7.619   1.797   5.174
15844WAT     H147774   7.666   1.712   5.148
15844WAT     H247775   7.602   1.796   5.273
15845WAT      O47776   3.796   5.527   4.985
15845WAT     H147777   3.756   5.488   5.068
15845WAT     H247778   3.758   5.482   4.905
15846WAT      O47779   5.642   9.676   9.326
15846WAT     H147780   5.652   9.750   9.393
15846WAT     H247781   5.621   9.591   9.374
15847WAT      O47782   5.340   2.370   3.317
15847WAT     H147783   5.372   2.458   3.282
15847WAT     H247784   5.243   2.359   3.297
15848WAT      O47785   8.809   7.443   4.833
15848WAT     H147786   8.895   7.471   4.877
15848WAT     H247787   8.791   7.347   4.854
15849WAT      O47788   3.143   2.059   9.024
15849WAT     H147789   3.186   2.107   9.101
15849WAT     H247790   3.180   2.094   8.938
15850WAT      O47791   8.469   4.064   7.471
15850WAT     H147792   8.451   4.105   7.560
15850WAT     H247793   8.542   4.114   7.425
15851WAT      O47794   8.231   5.354   6.616
15851WAT     H147795   8.187   5.325   6.701
15851WAT     H247796   8.294   5.284   6.585
15852WAT      O47797   7.177   3.312   6.171
15852WAT     H147798   7.140   3.231   6.125
15852WAT     H247799   7.276   3.301   6.181
15853WAT      O47800   4.226   4.989   0.595
15853WAT     H147801   4.264   4.898   0.615
15853WAT     H247802   4.219   5.001   0.496
15854WAT      O47803   3.158   0.943   4.683
15854WAT     H147804   3.138   0.849   4.654
15854WAT     H247805   3.244   0.944   4.734
15855WAT      O47806   8.083   5.804   3.849
15855WAT     H147807   8.074   5.902   3.835
15855WAT     H247808   8.100   5.759   3.761
15856WAT      O47809   4.985   7.042   4.873
15856WAT     H147810   5.004   6.950   4.837
15856WAT     H247811   4.992   7.041   4.972
15857WAT      O47812   0.095   9.539   8.398
15857WAT     H147813   0.109   9.443   8.374
15857WAT     H247814   0.090   9.547   8.498
15858WAT      O47815   5.593   3.385   9.323
15858WAT     H147816   5.668   3.398   9.389
15858WAT     H247817   5.508   3.368   9.373
15859WAT      O47818   1.599   3.175   3.538
15859WAT     H147819   1.528   3.160   3.469
15859WAT     H247820   1.649   3.090   3.554
15860WAT      O47821   5.116   7.581   7.722
15860WAT     H147822   5.212   7.598   7.743
15860WAT     H247823   5.110   7.527   7.638
15861WAT      O47824   7.902   6.507   6.429
15861WAT     H147825   7.804   6.486   6.429
15861WAT     H247826   7.930   6.533   6.522
15862WAT      O47827   9.347   9.671   9.773
15862WAT     H147828   9.284   9.743   9.744
15862WAT     H247829   9.427   9.671   9.714
15863WAT      O47830   8.894   8.452   8.701
15863WAT     H147831   8.933   8.360   8.706
15863WAT     H247832   8.963   8.516   8.668
15864WAT      O47833   1.011   8.135   2.556
15864WAT     H147834   1.057   8.218   2.523
15864WAT     H247835   1.056   8.055   2.516
15865WAT      O47836   8.773   6.950   0.194
15865WAT     H147837   8.715   7.007   0.136
15865WAT     H247838   8.841   6.903   0.138
15866WAT      O47839   6.369   7.616   8.493
15866WAT     H147840   6.402   7.694   8.547
15866WAT     H247841   6.419   7.534   8.519
15867WAT      O47842   4.332   4.397   8.978
15867WAT     H147843   4.344   4.496   8.976
15867WAT     H247844   4.420   4.353   8.995
15868WAT      O47845   7.981   8.546   1.328
15868WAT     H147846   8.060   8.592   1.368
15868WAT     H247847   8.006   8.451   1.306
15869WAT      O47848   0.187   3.595   6.541
15869WAT     H147849   0.185   3.497   6.522
15869WAT     H247850   0.108   3.639   6.499
15870WAT      O47851   7.214   5.212   4.733
15870WAT     H147852   7.154   5.267   4.790
15870WAT     H247853   7.307   5.249   4.737
15871WAT      O47854   5.554   2.798   0.478
15871WAT     H147855   5.567   2.893   0.505
15871WAT     H247856   5.587   2.784   0.385
15872WAT      O47857   5.109   6.068   7.146
15872WAT     H147858   5.110   6.015   7.061
15872WAT     H247859   5.034   6.134   7.144
15873WAT      O47860   6.358   4.915   2.550
15873WAT     H147861   6.377   4.860   2.632
15873WAT     H247862   6.328   4.854   2.477
15874WAT      O47863   2.524   8.655   5.900
15874WAT     H147864   2.473   8.734   5.866
15874WAT     H247865   2.612   8.686   5.938
15875WAT      O47866   4.504   8.053   0.210
15875WAT     H147867   4.479   8.107   0.130
15875WAT     H247868   4.565   8.106   0.269
15876WAT      O47869   5.298   4.108   7.094
15876WAT     H147870   5.314   4.206   7.105
15876WAT     H247871   5.374   4.068   7.042
15877WAT      O47872   5.539   3.268   8.593
15877WAT     H147873   5.608   3.201   8.564
15877WAT     H247874   5.525   3.335   8.520
15878WAT      O47875   6.355   9.741   0.072
15878WAT     H147876   6.300   9.818   0.039
15878WAT     H247877   6.370   9.750   0.170
15879WAT      O47878   3.125   8.503   4.254
15879WAT     H147879   3.204   8.561   4.235
15879WAT     H247880   3.121   8.429   4.187
15880WAT      O47881   4.481   9.744   8.939
15880WAT     H147882   4.546   9.819   8.951
15880WAT     H247883   4.453   9.739   8.844
15881WAT      O47884   5.314   7.218   0.631
15881WAT     H147885   5.269   7.226   0.720
15881WAT     H247886   5.396   7.275   0.629
15882WAT      O47887   0.206   9.820   4.584
15882WAT     H147888   0.160   9.904   4.554
15882WAT     H247889   0.138   9.748   4.595
15883WAT      O47890   6.050   0.489   4.362
15883WAT     H147891   6.002   0.534   4.286
15883WAT     H247892   6.149   0.494   4.346
15884WAT      O47893   2.641   3.405   7.402
15884WAT     H147894   2.571   3.348   7.444
15884WAT     H247895   2.695   3.450   7.473
15885WAT      O47896   0.026   7.484   6.558
15885WAT     H147897  -0.045   7.499   6.488
15885WAT     H247898  -0.015   7.488   6.649
15886WAT      O47899   1.792   9.199   1.867
15886WAT     H147900   1.723   9.187   1.796
15886WAT     H247901   1.786   9.292   1.904
15887WAT      O47902   7.378   6.887   3.105
15887WAT     H147903   7.418   6.795   3.102
15887WAT     H247904   7.287   6.885   3.063
15888WAT      O47905   5.675   1.136   3.659
15888WAT     H147906   5.650   1.214   3.603
15888WAT     H247907   5.603   1.117   3.726
15889WAT      O47908   8.368   8.501   8.999
15889WAT     H147909   8.346   8.564   9.074
15889WAT     H247910   8.375   8.552   8.913
15890WAT      O47911   8.388   1.188   6.692
15890WAT     H147912   8.341   1.251   6.754
15890WAT     H247913   8.371   1.094   6.721
15891WAT      O47914   3.754   7.111   6.999
15891WAT     H147915   3.692   7.178   6.958
15891WAT     H247916   3.715   7.077   7.085
15892WAT      O47917   7.960   5.162   9.061
15892WAT     H147918   8.004   5.229   9.002
15892WAT     H247919   7.880   5.203   9.104
15893WAT      O47920   5.812   9.285   7.200
15893WAT     H147921   5.860   9.265   7.115
15893WAT     H247922   5.861   9.357   7.250
15894WAT      O47923   6.225   3.468   6.945
15894WAT     H147924   6.129   3.440   6.945
15894WAT     H247925   6.272   3.425   7.021
15895WAT      O47926   7.312   6.467   7.490
15895WAT     H147927   7.331   6.436   7.583
15895WAT     H247928   7.283   6.389   7.434
15896WAT      O47929   4.643   6.293   7.018
15896WAT     H147930   4.618   6.319   7.111
15896WAT     H247931   4.584   6.219   6.987
15897WAT      O47932   0.302   6.616   7.282
15897WAT     H147933   0.391   6.609   7.326
15897WAT     H247934   0.305   6.687   7.212
15898WAT      O47935   7.535   1.008   9.093
15898WAT     H147936   7.622   1.051   9.117
15898WAT     H247937   7.518   0.930   9.155
15899WAT      O47938   6.225   2.093   8.497
15899WAT     H147939   6.294   2.159   8.467
15899WAT     H247940   6.205   2.030   8.422
15900WAT      O47941   8.839   6.479   5.787
15900WAT     H147942   8.903   6.510   5.857
15900WAT     H247943   8.821   6.382   5.799
15901WAT      O47944   6.759   7.954   9.190
15901WAT     H147945   6.826   7.997   9.251
15901WAT     H247946   6.669   7.959   9.231
15902WAT      O47947   5.216   6.494   9.629
15902WAT     H147948   5.239   6.543   9.713
15902WAT     H247949   5.216   6.396   9.646
15903WAT      O47950   3.747   3.773   9.681
15903WAT     H147951   3.723   3.760   9.585
15903WAT     H247952   3.687   3.842   9.721
15904WAT      O47953   5.235   8.101   4.013
15904WAT     H147954   5.189   8.021   4.053
15904WAT     H247955   5.252   8.083   3.916
15905WAT      O47956   8.623   9.786   0.799
15905WAT     H147957   8.699   9.731   0.836
15905WAT     H247958   8.605   9.757   0.704
15906WAT      O47959   0.934   4.991   1.599
15906WAT     H147960   0.906   5.006   1.694
15906WAT     H247961   1.031   5.012   1.589
15907WAT      O47962   1.058   3.510   4.346
15907WAT     H147963   1.118   3.585   4.372
15907WAT     H247964   1.113   3.429   4.326
15908WAT      O47965   5.840   1.327   4.633
15908WAT     H147966   5.914   1.360   4.575
15908WAT     H247967   5.754   1.333   4.583
15909WAT      O47968   1.600   3.301   2.361
15909WAT     H147969   1.538   3.332   2.433
15909WAT     H247970   1.606   3.201   2.363
15910WAT      O47971   8.575   5.189   7.928
15910WAT     H147972   8.673   5.189   7.948
15910WAT     H247973   8.561   5.175   7.830
15911WAT      O47974   7.177   9.783   0.425
15911WAT     H147975   7.141   9.875   0.415
15911WAT     H247976   7.232   9.778   0.509
15912WAT      O47977   2.065   3.979   6.390
15912WAT     H147978   2.076   3.921   6.308
15912WAT     H247979   2.005   4.056   6.369
15913WAT      O47980   1.497   4.419   9.389
15913WAT     H147981   1.448   4.341   9.427
15913WAT     H247982   1.466   4.503   9.433
15914WAT      O47983   9.665   5.978   4.646
15914WAT     H147984   9.567   5.974   4.630
15914WAT     H247985   9.713   5.987   4.559
15915WAT      O47986   0.651   8.055   2.312
15915WAT     H147987   0.660   7.958   2.289
15915WAT     H247988   0.668   8.110   2.231
15916WAT      O47989   9.482   0.763   2.673
15916WAT     H147990   9.580   0.763   2.651
15916WAT     H247991   9.450   0.858   2.678
15917WAT      O47992   4.662   1.753   6.901
15917WAT     H147993   4.590   1.752   6.831
15917WAT     H247994   4.621   1.771   6.990
15918WAT      O47995   1.646   8.843   5.002
15918WAT     H147996   1.598   8.755   4.995
15918WAT     H247997   1.593   8.914   4.957
15919WAT      O47998   2.524   7.571   3.943
15919WAT     H147999   2.443   7.527   3.981
15919WAT     H248000   2.535   7.662   3.983
15920WAT      O48001   9.558   0.033   7.121
15920WAT     H148002   9.480  -0.005   7.170
15920WAT     H248003   9.529   0.069   7.033
15921WAT      O48004   2.248   6.844   6.885
15921WAT     H148005   2.219   6.898   6.964
15921WAT     H248006   2.342   6.869   6.861
15922WAT      O48007   4.234   4.361   0.873
15922WAT     H148008   4.175   4.438   0.847
15922WAT     H248009   4.330   4.387   0.865
15923WAT      O48010   2.258   4.098   0.913
15923WAT     H148011   2.230   4.193   0.924
15923WAT     H248012   2.344   4.083   0.962
15924WAT      O48013   6.100   7.675   6.573
15924WAT     H148014   6.073   7.619   6.494
15924WAT     H248015   6.034   7.661   6.647
15925WAT      O48016   5.898   1.487   1.851
15925WAT     H148017   5.932   1.520   1.939
15925WAT     H248018   5.923   1.552   1.779
15926WAT      O48019   8.266   4.035   7.292
15926WAT     H148020   8.348   4.041   7.349
15926WAT     H248021   8.187   4.017   7.350
15927WAT      O48022   1.634   2.069   5.788
15927WAT     H148023   1.622   2.045   5.884
15927WAT     H248024   1.567   2.139   5.762
15928WAT      O48025   0.845   5.275   5.519
15928WAT     H148026   0.881   5.345   5.580
15928WAT     H248027   0.921   5.225   5.477
15929WAT      O48028   9.317   8.114   4.623
15929WAT     H148029   9.400   8.141   4.575
15929WAT     H248030   9.237   8.138   4.568
15930WAT      O48031   4.947   1.164   0.804
15930WAT     H148032   4.914   1.071   0.789
15930WAT     H248033   4.954   1.182   0.902
15931WAT      O48034   6.163   6.869   1.508
15931WAT     H148035   6.096   6.796   1.515
15931WAT     H248036   6.203   6.870   1.416
15932WAT      O48037   9.095   1.274   7.031
15932WAT     H148038   9.106   1.350   6.967
15932WAT     H248039   9.071   1.310   7.121
15933WAT      O48040   1.512   8.303   1.316
15933WAT     H148041   1.556   8.310   1.406
15933WAT     H248042   1.457   8.220   1.313
15934WAT      O48043   2.600   7.583   9.739
15934WAT     H148044   2.554   7.616   9.821
15934WAT     H248045   2.699   7.592   9.749
15935WAT      O48046   0.747   7.486   3.861
15935WAT     H148047   0.666   7.463   3.808
15935WAT     H248048   0.775   7.407   3.916
15936WAT      O48049   4.636   3.105   6.068
15936WAT     H148050   4.704   3.139   6.134
15936WAT     H248051   4.680   3.092   5.979
15937WAT      O48052   9.881   4.154   9.008
15937WAT     H148053   9.912   4.166   9.102
15937WAT     H248054   9.805   4.088   9.007
15938WAT      O48055   5.424   4.967   3.135
15938WAT     H148056   5.391   4.999   3.224
15938WAT     H248057   5.502   5.021   3.106
15939WAT      O48058   5.973   4.394   1.355
15939WAT     H148059   5.927   4.331   1.293
15939WAT     H248060   5.969   4.486   1.317
15940WAT      O48061   1.162   8.091   4.608
15940WAT     H148062   1.227   8.123   4.677
15940WAT     H248063   1.142   7.994   4.623
15941WAT      O48064   4.858   8.231   8.482
15941WAT     H148065   4.803   8.313   8.468
15941WAT     H248066   4.804   8.163   8.532
15942WAT      O48067   2.020   8.914   8.024
15942WAT     H148068   2.080   8.908   8.103
15942WAT     H248069   2.075   8.922   7.941
15943WAT      O48070   8.023   6.778   4.223
15943WAT     H148071   7.931   6.744   4.206
15943WAT     H248072   8.020   6.852   4.291
15944WAT      O48073   0.955   9.332   0.546
15944WAT     H148074   0.937   9.236   0.524
15944WAT     H248075   0.951   9.386   0.462
15945WAT      O48076   1.872   6.422   4.679
15945WAT     H148077   1.940   6.393   4.747
15945WAT     H248078   1.916   6.481   4.611
15946WAT      O48079   8.455   5.782   8.591
15946WAT     H148080   8.455   5.876   8.558
15946WAT     H248081   8.383   5.730   8.545
15947WAT      O48082   0.699   3.208   7.175
15947WAT     H148083   0.733   3.175   7.263
15947WAT     H248084   0.599   3.209   7.177
15948WAT      O48085   6.051   3.056   6.524
15948WAT     H148086   6.138   3.103   6.508
15948WAT     H248087   6.042   2.980   6.460
15949WAT      O48088   6.669   3.686   9.111
15949WAT     H148089   6.635   3.610   9.056
15949WAT     H248090   6.591   3.737   9.148
15950WAT      O48091   3.009   7.718   0.334
15950WAT     H148092   3.107   7.704   0.317
15950WAT     H248093   2.976   7.648   0.397
15951WAT      O48094   9.820   1.464   5.749
15951WAT     H148095   9.894   1.508   5.698
15951WAT     H248096   9.805   1.372   5.713
15952WAT      O48097   0.525   6.548   1.327
15952WAT     H148098   0.544   6.451   1.310
15952WAT     H248099   0.431   6.569   1.300
15953WAT      O48100   3.591   2.861   6.604
15953WAT     H148101   3.630   2.941   6.558
15953WAT     H248102   3.593   2.876   6.703
15954WAT      O48103   4.480   7.155   3.123
15954WAT     H148104   4.484   7.207   3.037
15954WAT     H248105   4.439   7.065   3.106
15955WAT      O48106   5.067   9.487   7.193
15955WAT     H148107   5.119   9.463   7.274
15955WAT     H248108   5.094   9.578   7.161
15956WAT      O48109   7.587   8.112   0.388
15956WAT     H148110   7.625   8.050   0.456
15956WAT     H248111   7.503   8.153   0.423
15957WAT      O48112   4.424   6.754   7.213
15957WAT     H148113   4.338   6.704   7.209
15957WAT     H248114   4.426   6.823   7.140
15958WAT      O48115   4.609   4.089   3.617
15958WAT     H148116   4.662   4.022   3.564
15958WAT     H248117   4.659   4.175   3.623
15959WAT      O48118   2.162   5.396   1.348
15959WAT     H148119   2.115   5.318   1.306
15959WAT     H248120   2.257   5.370   1.367
15960WAT      O48121   5.068   1.417   7.007
15960WAT     H148122   5.099   1.385   6.917
15960WAT     H248123   5.148   1.437   7.064
15961WAT      O48124   0.841   9.362   1.262
15961WAT     H148125   0.807   9.431   1.325
15961WAT     H248126   0.935   9.382   1.236
15962WAT      O48127   1.981   5.827   6.960
15962WAT     H148128   1.994   5.728   6.960
15962WAT     H248129   2.065   5.871   6.929
15963WAT      O48130   1.846   6.588   6.979
15963WAT     H148131   1.765   6.544   6.941
15963WAT     H248132   1.904   6.620   6.905
15964WAT      O48133   6.718   8.067   1.927
15964WAT     H148134   6.706   8.039   2.022
15964WAT     H248135   6.630   8.096   1.888
15965WAT      O48136   6.880   0.600   1.682
15965WAT     H148137   6.931   0.687   1.686
15965WAT     H248138   6.818   0.594   1.760
15966WAT      O48139   1.942   6.740   5.132
15966WAT     H148140   1.852   6.698   5.146
15966WAT     H248141   2.008   6.698   5.193
15967WAT      O48142   8.455   5.414   9.701
15967WAT     H148143   8.410   5.483   9.758
15967WAT     H248144   8.416   5.416   9.609
15968WAT      O48145   9.501   3.437   5.855
15968WAT     H148146   9.598   3.418   5.841
15968WAT     H248147   9.447   3.374   5.800
15969WAT      O48148   1.880   1.910   4.832
15969WAT     H148149   1.945   1.921   4.907
15969WAT     H248150   1.930   1.910   4.745
15970WAT      O48151   1.996   2.903   5.317
15970WAT     H148152   2.064   2.866   5.381
15970WAT     H248153   2.041   2.968   5.256
15971WAT      O48154   5.123   1.780   1.536
15971WAT     H148155   5.044   1.719   1.528
15971WAT     H248156   5.100   1.857   1.594
15972WAT      O48157   7.161   4.064   0.422
15972WAT     H148158   7.104   4.125   0.477
15972WAT     H248159   7.221   4.011   0.481
15973WAT      O48160   3.150   8.830   7.753
15973WAT     H148161   3.163   8.880   7.839
15973WAT     H248162   3.090   8.752   7.770
15974WAT      O48163   9.084   9.135   4.974
15974WAT     H148164   9.058   9.041   4.994
15974WAT     H248165   9.080   9.150   4.875
15975WAT      O48166   4.504   1.883   5.050
15975WAT     H148167   4.495   1.808   5.115
15975WAT     H248168   4.458   1.859   4.964
15976WAT      O48169   8.305   4.093   8.220
15976WAT     H148170   8.238   4.051   8.158
15976WAT     H248171   8.367   4.151   8.167
15977WAT      O48172   4.320   8.201   0.427
15977WAT     H148173   4.419   8.196   0.439
15977WAT     H248174   4.298   8.206   0.330
15978WAT      O48175   7.715   2.474   8.438
15978WAT     H148176   7.754   2.437   8.522
15978WAT     H248177   7.757   2.563   8.418
15979WAT      O48178   7.636   4.892   1.906
15979WAT     H148179   7.727   4.870   1.873
15979WAT     H248180   7.574   4.815   1.889
15980WAT      O48181   3.400   1.703   6.330
15980WAT     H148182   3.359   1.793   6.315
15980WAT     H248183   3.389   1.647   6.248
15981WAT      O48184   7.518   7.873   1.080
15981WAT     H148185   7.561   7.882   1.169
15981WAT     H248186   7.443   7.939   1.071
15982WAT      O48187   9.114   9.592   6.266
15982WAT     H148188   9.024   9.612   6.303
15982WAT     H248189   9.146   9.670   6.211
15983WAT      O48190   2.841   1.965   8.028
15983WAT     H148191   2.763   1.904   8.027
15983WAT     H248192   2.871   1.982   7.934
15984WAT      O48193   4.906   3.617   1.983
15984WAT     H148194   4.813   3.651   1.971
15984WAT     H248195   4.913   3.572   2.072
15985WAT      O48196   8.665   6.119   2.144
15985WAT     H148197   8.721   6.059   2.201
15985WAT     H248198   8.569   6.094   2.155
15986WAT      O48199   7.804   5.569   4.376
15986WAT     H148200   7.843   5.477   4.369
15986WAT     H248201   7.711   5.563   4.412
15987WAT      O48202   8.581   0.174   0.583
15987WAT     H148203   8.482   0.191   0.590
15987WAT     H248204   8.630   0.243   0.635
15988WAT      O48205   3.797   5.608   9.561
15988WAT     H148206   3.777   5.647   9.472
15988WAT     H248207   3.739   5.651   9.630
15989WAT      O48208   2.932   2.740   5.630
15989WAT     H148209   2.903   2.834   5.610
15989WAT     H248210   2.856   2.677   5.613
15990WAT      O48211   5.948   2.048   1.991
15990WAT     H148212   5.997   2.125   1.950
15990WAT     H248213   5.914   2.075   2.081
15991WAT      O48214   4.026   2.592   4.783
15991WAT     H148215   4.054   2.644   4.702
15991WAT     H248216   4.038   2.494   4.765
15992WAT      O48217   0.794   0.014   3.946
15992WAT     H148218   0.762   0.086   3.884
15992WAT     H248219   0.894   0.013   3.945
15993WAT      O48220   8.932   4.656   0.114
15993WAT     H148221   8.971   4.566   0.131
15993WAT     H248222   8.932   4.709   0.200
15994WAT      O48223   9.865   1.778   1.056
15994WAT     H148224   9.807   1.838   1.000
15994WAT     H248225   9.961   1.800   1.039
15995WAT      O48226   2.738   0.658   6.058
15995WAT     H148227   2.836   0.673   6.067
15995WAT     H248228   2.722   0.581   5.995
15996WAT      O48229   9.715   3.483   3.984
15996WAT     H148230   9.619   3.455   3.988
15996WAT     H248231   9.760   3.462   4.070
15997WAT      O48232   3.889   6.353   1.713
15997WAT     H148233   3.818   6.296   1.753
15997WAT     H248234   3.961   6.295   1.675
15998WAT      O48235   2.799   6.837   8.332
15998WAT     H148236   2.822   6.934   8.339
15998WAT     H248237   2.765   6.805   8.421
15999WAT      O48238   2.839   2.647   1.696
15999WAT     H148239   2.915   2.601   1.649
15999WAT     H248240   2.802   2.586   1.767
16000WAT      O48241   3.026   7.275   2.730
16000WAT     H148242   3.020   7.321   2.819
16000WAT     H248243   2.999   7.179   2.741
16001WAT      O48244   1.541   7.264   3.836
16001WAT     H148245   1.502   7.254   3.744
16001WAT     H248246   1.471   7.296   3.899
16002WAT      O48247   9.142   9.351   9.135
16002WAT     H148248   9.084   9.430   9.154
16002WAT     H248249   9.131   9.324   9.039
16003WAT      O48250   8.041   0.137   8.017
16003WAT     H148251   8.065   0.181   7.931
16003WAT     H248252   8.125   0.113   8.067
16004WAT      O48253   8.807   1.751   2.725
16004WAT     H148254   8.894   1.799   2.732
16004WAT     H248255   8.792   1.696   2.807
16005WAT      O48256   8.095   8.994   8.103
16005WAT     H148257   8.066   9.080   8.143
16005WAT     H248258   8.128   9.010   8.010
16006WAT      O48259   8.501   4.062   2.161
16006WAT     H148260   8.430   4.014   2.110
16006WAT     H248261   8.588   4.015   2.151
16007WAT      O48262   3.745   2.194   2.849
16007WAT     H148263   3.820   2.222   2.789
16007WAT     H248264   3.698   2.115   2.808
16008WAT      O48265   9.645   8.557   9.448
16008WAT     H148266   9.557   8.537   9.491
16008WAT     H248267   9.629   8.585   9.353
16009WAT      O48268   9.366   4.531   0.407
16009WAT     H148269   9.419   4.603   0.362
16009WAT     H248270   9.274   4.566   0.426
16010WAT      O48271   7.645   0.883   1.736
16010WAT     H148272   7.722   0.829   1.702
16010WAT     H248273   7.588   0.826   1.795
16011WAT      O48274   3.507   4.883   7.676
16011WAT     H148275   3.510   4.785   7.657
16011WAT     H248276   3.414   4.917   7.660
16012WAT      O48277   4.879   3.837   8.814
16012WAT     H148278   4.867   3.849   8.913
16012WAT     H248279   4.893   3.926   8.771
16013WAT      O48280   3.042   6.657   7.146
16013WAT     H148281   3.049   6.560   7.169
16013WAT     H248282   2.993   6.705   7.218
16014WAT      O48283   5.217   9.028   5.961
16014WAT     H148284   5.307   8.987   5.969
16014WAT     H248285   5.212   9.081   5.877
16015WAT      O48286   3.245   5.449   1.114
16015WAT     H148287   3.152   5.414   1.113
16015WAT     H248288   3.253   5.523   1.181
16016WAT      O48289   8.748   7.226   1.576
16016WAT     H148290   8.838   7.183   1.586
16016WAT     H248291   8.731   7.247   1.480
16017WAT      O48292   3.267   5.701   7.535
16017WAT     H148293   3.266   5.611   7.493
16017WAT     H248294   3.206   5.762   7.484
16018WAT      O48295   7.088   5.222   4.048
16018WAT     H148296   7.096   5.281   3.968
16018WAT     H248297   7.142   5.139   4.033
16019WAT      O48298   3.158   0.232   6.675
16019WAT     H148299   3.237   0.232   6.736
16019WAT     H248300   3.134   0.138   6.650
16020WAT      O48301   2.298   5.069   2.325
16020WAT     H148302   2.385   5.024   2.306
16020WAT     H248303   2.223   5.004   2.312
16021WAT      O48304   7.492   0.718   1.881
16021WAT     H148305   7.458   0.633   1.920
16021WAT     H248306   7.444   0.795   1.922
16022WAT      O48307   4.146   2.914   0.457
16022WAT     H148308   4.077   2.867   0.402
16022WAT     H248309   4.188   2.849   0.520
16023WAT      O48310   1.131   9.614   8.279
16023WAT     H148311   1.198   9.663   8.334
16023WAT     H248312   1.165   9.605   8.185
16024WAT      O48313   5.309   4.404   2.864
16024WAT     H148314   5.245   4.340   2.822
16024WAT     H248315   5.351   4.362   2.944
16025WAT      O48316   7.481   2.656   8.388
16025WAT     H148317   7.454   2.714   8.465
16025WAT     H248318   7.556   2.597   8.416
16026WAT      O48319   9.113   7.504   5.463
16026WAT     H148320   9.207   7.476   5.477
16026WAT     H248321   9.051   7.435   5.500
16027WAT      O48322   0.932   3.735   9.203
16027WAT     H148323   0.851   3.685   9.235
16027WAT     H248324   0.946   3.715   9.106
16028WAT      O48325   6.819   0.909   7.438
16028WAT     H148326   6.771   0.871   7.359
16028WAT     H248327   6.869   0.991   7.411
16029WAT      O48328   5.908   9.599   8.982
16029WAT     H148329   5.816   9.632   8.998
16029WAT     H248330   5.927   9.598   8.884
16030WAT      O48331   5.622   5.136   0.734
16030WAT     H148332   5.597   5.083   0.653
16030WAT     H248333   5.715   5.171   0.723
16031WAT      O48334   9.857   7.353   3.043
16031WAT     H148335   9.840   7.346   2.945
16031WAT     H248336   9.915   7.433   3.062
16032WAT      O48337   9.022   4.163   6.328
16032WAT     H148338   9.111   4.170   6.375
16032WAT     H248339   8.956   4.223   6.374
16033WAT      O48340   4.090   1.100   8.108
16033WAT     H148341   4.175   1.081   8.058
16033WAT     H248342   4.012   1.088   8.047
16034WAT      O48343   3.533   4.837   5.994
16034WAT     H148344   3.506   4.842   6.090
16034WAT     H248345   3.533   4.741   5.964
16035WAT      O48346   8.260   0.705   3.449
16035WAT     H148347   8.353   0.723   3.482
16035WAT     H248348   8.262   0.635   3.378
16036WAT      O48349   5.720   0.137   5.825
16036WAT     H148350   5.695   0.208   5.759
16036WAT     H248351   5.771   0.064   5.778
16037WAT      O48352   5.322   7.746   9.398
16037WAT     H148353   5.396   7.679   9.392
16037WAT     H248354   5.314   7.794   9.311
16038WAT      O48355   9.546   7.658   7.023
16038WAT     H148356   9.547   7.698   6.931
16038WAT     H248357   9.536   7.559   7.016
16039WAT      O48358   3.956   5.789   8.493
16039WAT     H148359   3.870   5.841   8.490
16039WAT     H248360   3.962   5.732   8.411
16040WAT      O48361   2.610   2.147   5.740
16040WAT     H148362   2.679   2.161   5.810
16040WAT     H248363   2.520   2.137   5.783
16041WAT      O48364   4.021   4.277   1.399
16041WAT     H148365   4.069   4.193   1.378
16041WAT     H248366   4.087   4.351   1.412
16042WAT      O48367   3.484   7.368   3.712
16042WAT     H148368   3.413   7.353   3.780
16042WAT     H248369   3.443   7.399   3.626
16043WAT      O48370   1.524   7.562   4.867
16043WAT     H148371   1.426   7.576   4.886
16043WAT     H248372   1.567   7.649   4.846
16044WAT      O48373   9.054   4.262   7.828
16044WAT     H148374   9.097   4.174   7.848
16044WAT     H248375   9.080   4.328   7.899
16045WAT      O48376   5.551   8.606   9.079
16045WAT     H148377   5.485   8.545   9.122
16045WAT     H248378   5.616   8.638   9.148
16046WAT      O48379   2.987   7.470   4.502
16046WAT     H148380   3.038   7.400   4.452
16046WAT     H248381   2.889   7.457   4.487
16047WAT      O48382   0.188   3.731   3.167
16047WAT     H148383   0.095   3.738   3.133
16047WAT     H248384   0.251   3.717   3.090
16048WAT      O48385   0.029   6.752   1.896
16048WAT     H148386   0.061   6.847   1.900
16048WAT     H248387  -0.033   6.741   1.818
16049WAT      O48388   4.131   8.703   2.152
16049WAT     H148389   4.071   8.763   2.098
16049WAT     H248390   4.215   8.752   2.174
16050WAT      O48391   1.624   8.651   4.088
16050WAT     H148392   1.545   8.694   4.046
16050WAT     H248393   1.692   8.631   4.018
16051WAT      O48394   9.626   5.175   2.138
16051WAT     H148395   9.708   5.129   2.104
16051WAT     H248396   9.625   5.269   2.103
16052WAT      O48397   9.782   5.382   1.277
16052WAT     H148398   9.766   5.347   1.369
16052WAT     H248399   9.832   5.314   1.223
16053WAT      O48400   7.830   5.345   8.570
16053WAT     H148401   7.908   5.283   8.555
16053WAT     H248402   7.821   5.364   8.667
16054WAT      O48403   2.684   8.029   0.324
16054WAT     H148404   2.782   8.022   0.303
16054WAT     H248405   2.673   8.067   0.415
16055WAT      O48406   8.423   9.145   4.586
16055WAT     H148407   8.403   9.182   4.676
16055WAT     H248408   8.485   9.067   4.596
16056WAT      O48409   6.972   6.159   1.538
16056WAT     H148410   6.908   6.174   1.463
16056WAT     H248411   7.059   6.125   1.503
16057WAT      O48412   6.911   9.845   8.979
16057WAT     H148413   6.838   9.812   9.038
16057WAT     H248414   6.954   9.767   8.933
16058WAT      O48415   1.763   1.024   1.406
16058WAT     H148416   1.753   0.945   1.344
16058WAT     H248417   1.784   0.991   1.498
16059WAT      O48418   2.009   0.509   4.257
16059WAT     H148419   1.957   0.585   4.296
16059WAT     H248420   1.946   0.437   4.228
16060WAT      O48421   3.836   9.126   1.037
16060WAT     H148422   3.896   9.177   0.976
16060WAT     H248423   3.745   9.119   0.996
16061WAT      O48424   1.265   1.577   6.128
16061WAT     H148425   1.202   1.581   6.051
16061WAT     H248426   1.230   1.634   6.203
16062WAT      O48427   3.667   3.285   2.715
16062WAT     H148428   3.608   3.237   2.649
16062WAT     H248429   3.723   3.352   2.666
16063WAT      O48430   1.097   6.763   0.486
16063WAT     H148431   1.091   6.811   0.574
16063WAT     H248432   1.014   6.709   0.472
16064WAT      O48433   3.742   3.891   5.859
16064WAT     H148434   3.727   3.977   5.908
16064WAT     H248435   3.812   3.905   5.789
16065WAT      O48436   5.939   0.804   7.732
16065WAT     H148437   5.906   0.898   7.738
16065WAT     H248438   5.862   0.741   7.735
16066WAT      O48439   6.229   3.992   5.950
16066WAT     H148440   6.275   3.958   5.868
16066WAT     H248441   6.130   3.977   5.940
16067WAT      O48442   4.120   2.512   3.962
16067WAT     H148443   4.105   2.607   3.989
16067WAT     H248444   4.043   2.456   3.992
16068WAT      O48445   0.992   3.194   5.441
16068WAT     H148446   1.044   3.279   5.428
16068WAT     H248447   0.967   3.185   5.538
16069WAT      O48448   8.056   3.340   3.847
16069WAT     H148449   8.072   3.270   3.917
16069WAT     H248450   7.982   3.401   3.877
16070WAT      O48451   6.423   2.703   8.826
16070WAT     H148452   6.357   2.762   8.872
16070WAT     H248453   6.507   2.698   8.881
16071WAT      O48454   6.097   2.924   2.667
16071WAT     H148455   6.138   2.946   2.579
16071WAT     H248456   6.120   2.830   2.692
16072WAT      O48457   8.590   9.824   3.521
16072WAT     H148458   8.623   9.739   3.480
16072WAT     H248459   8.500   9.810   3.560
16073WAT      O48460   7.736   7.388   2.244
16073WAT     H148461   7.728   7.321   2.318
16073WAT     H248462   7.646   7.404   2.205
16074WAT      O48463   1.883   4.023   7.191
16074WAT     H148464   1.805   4.019   7.128
16074WAT     H248465   1.850   4.011   7.284
16075WAT      O48466   9.634   6.469   4.413
16075WAT     H148467   9.538   6.473   4.442
16075WAT     H248468   9.641   6.414   4.330
16076WAT      O48469   9.598   9.120   0.110
16076WAT     H148470   9.545   9.187   0.060
16076WAT     H248471   9.537   9.055   0.155
16077WAT      O48472   2.923   7.281   6.833
16077WAT     H148473   2.898   7.350   6.766
16077WAT     H248474   3.001   7.228   6.798
16078WAT      O48475   1.061   2.757   7.686
16078WAT     H148476   1.006   2.788   7.608
16078WAT     H248477   1.034   2.664   7.710
16079WAT      O48478   1.549   9.428   2.618
16079WAT     H148479   1.642   9.394   2.633
16079WAT     H248480   1.511   9.462   2.704
16080WAT      O48481   8.177   5.883   1.355
16080WAT     H148482   8.208   5.914   1.265
16080WAT     H248483   8.224   5.935   1.426
16081WAT      O48484   8.337   7.912   2.037
16081WAT     H148485   8.434   7.933   2.026
16081WAT     H248486   8.323   7.859   2.121
16082WAT      O48487   2.660   0.194   1.163
16082WAT     H148488   2.733   0.125   1.157
16082WAT     H248489   2.700   0.283   1.185
16083WAT      O48490   0.965   6.394   3.047
16083WAT     H148491   0.961   6.426   2.952
16083WAT     H248492   1.050   6.424   3.089
16084WAT      O48493   8.046   7.522   2.904
16084WAT     H148494   8.083   7.533   2.996
16084WAT     H248495   7.958   7.475   2.909
16085WAT      O48496   9.017   2.573   3.493
16085WAT     H148497   8.982   2.581   3.400
16085WAT     H248498   9.037   2.664   3.529
16086WAT      O48499   6.502   5.840   2.251
16086WAT     H148500   6.490   5.744   2.278
16086WAT     H248501   6.596   5.868   2.270
16087WAT      O48502   6.637   4.262   1.163
16087WAT     H148503   6.686   4.208   1.231
16087WAT     H248504   6.548   4.220   1.145
16088WAT      O48505   7.643   0.580   9.616
16088WAT     H148506   7.626   0.679   9.618
16088WAT     H248507   7.703   0.559   9.539
16089WAT      O48508   7.972   0.012   6.857
16089WAT     H148509   7.919  -0.070   6.879
16089WAT     H248510   8.069  -0.010   6.858
16090WAT      O48511   0.292   7.559   9.083
16090WAT     H148512   0.226   7.611   9.138
16090WAT     H248513   0.335   7.490   9.140
16091WAT      O48514   0.480   3.685   9.448
16091WAT     H148515   0.425   3.758   9.409
16091WAT     H248516   0.546   3.724   9.513
16092WAT      O48517   7.112   6.160   6.003
16092WAT     H148518   7.210   6.159   6.019
16092WAT     H248519   7.088   6.093   5.933
16093WAT      O48520   4.487   1.223   2.510
16093WAT     H148521   4.469   1.293   2.579
16093WAT     H248522   4.425   1.235   2.433
16094WAT      O48523   1.286   5.618   5.988
16094WAT     H148524   1.324   5.588   6.075
16094WAT     H248525   1.357   5.618   5.918
16095WAT      O48526   6.175   9.684   8.820
16095WAT     H148527   6.187   9.607   8.883
16095WAT     H248528   6.079   9.692   8.795
16096WAT      O48529   5.868   9.513   1.201
16096WAT     H148530   5.910   9.424   1.220
16096WAT     H248531   5.860   9.565   1.286
16097WAT      O48532   5.457   6.608   4.087
16097WAT     H148533   5.443   6.676   4.159
16097WAT     H248534   5.488   6.654   4.004
16098WAT      O48535   4.064   0.744   8.516
16098WAT     H148536   4.086   0.750   8.613
16098WAT     H248537   4.091   0.828   8.469
16099WAT      O48538   8.852   0.424   5.466
16099WAT     H148539   8.869   0.334   5.506
16099WAT     H248540   8.780   0.471   5.517
16100WAT      O48541   1.514   3.758   7.161
16100WAT     H148542   1.501   3.665   7.128
16100WAT     H248543   1.551   3.815   7.088
16101WAT      O48544   9.676   5.913   9.518
16101WAT     H148545   9.708   6.006   9.497
16101WAT     H248546   9.687   5.855   9.437
16102WAT      O48547   6.313   8.743   3.313
16102WAT     H148548   6.411   8.748   3.298
16102WAT     H248549   6.271   8.688   3.241
16103WAT      O48550   0.159   6.175   5.033
16103WAT     H148551   0.093   6.170   4.958
16103WAT     H248552   0.113   6.207   5.116
16104WAT      O48553   7.367   5.644   2.020
16104WAT     H148554   7.317   5.666   2.105
16104WAT     H248555   7.448   5.702   2.014
16105WAT      O48556   8.509   4.880   7.089
16105WAT     H148557   8.534   4.945   7.018
16105WAT     H248558   8.425   4.909   7.134
16106WAT      O48559   1.332   2.576   2.910
16106WAT     H148560   1.250   2.633   2.917
16106WAT     H248561   1.413   2.630   2.932
16107WAT      O48562   1.590   2.384   7.289
16107WAT     H148563   1.618   2.298   7.246
16107WAT     H248564   1.661   2.415   7.352
16108WAT      O48565   1.137   7.091   6.794
16108WAT     H148566   1.135   7.125   6.700
16108WAT     H248567   1.058   7.126   6.844
16109WAT      O48568   1.465   0.130   7.271
16109WAT     H148569   1.448   0.141   7.369
16109WAT     H248570   1.383   0.093   7.227
16110WAT      O48571   9.470   8.254   3.019
16110WAT     H148572   9.430   8.175   2.973
16110WAT     H248573   9.569   8.246   3.019
16111WAT      O48574   4.183   6.831   6.635
16111WAT     H148575   4.148   6.922   6.654
16111WAT     H248576   4.187   6.817   6.536
16112WAT      O48577   5.394   1.203   2.662
16112WAT     H148578   5.312   1.173   2.711
16112WAT     H248579   5.386   1.301   2.642
16113WAT      O48580   7.136   2.829   8.444
16113WAT     H148581   7.176   2.809   8.534
16113WAT     H248582   7.181   2.773   8.374
16114WAT      O48583   0.670   1.462   0.595
16114WAT     H148584   0.629   1.424   0.678
16114WAT     H248585   0.755   1.510   0.619
16115WAT      O48586   0.124   9.436   1.024
16115WAT     H148587   0.137   9.461   0.928
16115WAT     H248588   0.101   9.518   1.076
16116WAT      O48589   6.455   7.857   1.304
16116WAT     H148590   6.463   7.851   1.204
16116WAT     H248591   6.450   7.953   1.331
16117WAT      O48592   8.520   3.177   8.951
16117WAT     H148593   8.554   3.124   8.873
16117WAT     H248594   8.589   3.243   8.979
16118WAT      O48595   6.849   4.567   6.008
16118WAT     H148596   6.753   4.563   6.034
16118WAT     H248597   6.898   4.491   6.051
16119WAT      O48598   6.121   7.911   2.924
16119WAT     H148599   6.118   7.833   2.987
16119WAT     H248600   6.216   7.927   2.897
16120WAT      O48601   0.513   6.162   8.860
16120WAT     H148602   0.500   6.227   8.936
16120WAT     H248603   0.533   6.071   8.897
16121WAT      O48604   2.201   8.405   1.381
16121WAT     H148605   2.231   8.444   1.294
16121WAT     H248606   2.103   8.420   1.391
16122WAT      O48607   0.585   0.062   2.254
16122WAT     H148608   0.608   0.005   2.332
16122WAT     H248609   0.642   0.038   2.176
16123WAT      O48610   8.212   3.941   6.040
16123WAT     H148611   8.128   3.892   6.014
16123WAT     H248612   8.217   3.948   6.139
16124WAT      O48613   9.809   5.863   1.552
16124WAT     H148614   9.848   5.818   1.632
16124WAT     H248615   9.832   5.811   1.470
16125WAT      O48616   3.052   2.199   2.386
16125WAT     H148617   3.002   2.137   2.447
16125WAT     H248618   2.995   2.278   2.364
16126WAT      O48619   8.300   7.300   0.974
16126WAT     H148620   8.249   7.302   1.061
16126WAT     H248621   8.397   7.290   0.993
16127WAT      O48622   6.153   6.296   3.151
16127WAT     H148623   6.189   6.203   3.149
16127WAT     H248624   6.130   6.325   3.058
16128WAT      O48625   7.096   7.502   3.052
16128WAT     H148626   7.114   7.524   3.148
16128WAT     H248627   7.172   7.534   2.995
16129WAT      O48628   9.217   3.455   1.909
16129WAT     H148629   9.241   3.359   1.893
16129WAT     H248630   9.140   3.480   1.850
16130WAT      O48631   3.979   6.094   4.666
16130WAT     H148632   3.989   5.996   4.651
16130WAT     H248633   3.886   6.122   4.641
16131WAT      O48634   5.561   2.695   5.997
16131WAT     H148635   5.562   2.695   5.897
16131WAT     H248636   5.480   2.744   6.030
16132WAT      O48637   0.461   2.579   4.579
16132WAT     H148638   0.535   2.530   4.625
16132WAT     H248639   0.453   2.671   4.619
16133WAT      O48640   4.203   7.277   1.671
16133WAT     H148641   4.238   7.262   1.763
16133WAT     H248642   4.109   7.311   1.676
16134WAT      O48643   9.364   2.516   0.818
16134WAT     H148644   9.352   2.606   0.861
16134WAT     H248645   9.298   2.451   0.858
16135WAT      O48646   5.811   8.925   7.003
16135WAT     H148647   5.729   8.874   6.976
16135WAT     H248648   5.892   8.870   6.985
16136WAT      O48649   3.104  -0.004   7.259
16136WAT     H148650   3.102   0.067   7.330
16136WAT     H248651   3.115   0.039   7.169
16137WAT      O48652   1.822   1.566   1.072
16137WAT     H148653   1.813   1.480   1.123
16137WAT     H248654   1.785   1.641   1.127
16138WAT      O48655   6.366   2.732   1.781
16138WAT     H148656   6.336   2.770   1.693
16138WAT     H248657   6.290   2.732   1.845
16139WAT      O48658   5.174   2.766   8.448
16139WAT     H148659   5.219   2.721   8.525
16139WAT     H248660   5.092   2.813   8.480
16140WAT      O48661   5.484   0.618   8.853
16140WAT     H148662   5.566   0.653   8.897
16140WAT     H248663   5.440   0.551   8.913
16141WAT      O48664   2.966   4.716   9.376
16141WAT     H148665   3.008   4.637   9.331
16141WAT     H248666   2.889   4.749   9.321
16142WAT      O48667   7.608   2.936   6.646
16142WAT     H148668   7.634   2.861   6.585
16142WAT     H248669   7.691   2.980   6.680
16143WAT      O48670   2.727   9.064   3.580
16143WAT     H148671   2.774   8.988   3.625
16143WAT     H248672   2.785   9.100   3.507
16144WAT      O48673   7.587   4.685   4.869
16144WAT     H148674   7.600   4.773   4.916
16144WAT     H248675   7.664   4.625   4.889
16145WAT      O48676   8.871   0.904   8.332
16145WAT     H148677   8.810   0.931   8.406
16145WAT     H248678   8.944   0.972   8.322
16146WAT      O48679   9.841   4.557   5.298
16146WAT     H148680   9.798   4.600   5.377
16146WAT     H248681   9.830   4.458   5.303
16147WAT      O48682   0.491   4.586   8.667
16147WAT     H148683   0.398   4.571   8.698
16147WAT     H248684   0.535   4.656   8.723
16148WAT      O48685   8.331   7.159   4.501
16148WAT     H148686   8.414   7.182   4.551
16148WAT     H248687   8.254   7.210   4.540
16149WAT      O48688   0.629   3.948   1.891
16149WAT     H148689   0.553   3.882   1.893
16149WAT     H248690   0.712   3.901   1.863
16150WAT      O48691   1.478   5.167   7.288
16150WAT     H148692   1.463   5.263   7.262
16150WAT     H248693   1.522   5.119   7.212
16151WAT      O48694   9.050   9.180   4.723
16151WAT     H148695   9.043   9.248   4.649
16151WAT     H248696   8.958   9.149   4.748
16152WAT      O48697   0.812   2.268   9.483
16152WAT     H148698   0.857   2.204   9.421
16152WAT     H248699   0.759   2.334   9.429
16153WAT      O48700   7.881   8.369   9.878
16153WAT     H148701   7.805   8.434   9.879
16153WAT     H248702   7.954   8.400   9.939
16154WAT      O48703   5.555   6.830   8.220
16154WAT     H148704   5.505   6.829   8.306
16154WAT     H248705   5.650   6.859   8.237
16155WAT      O48706   4.006   8.581   1.416
16155WAT     H148707   4.013   8.595   1.515
16155WAT     H248708   4.098   8.586   1.376
16156WAT      O48709   0.982   7.289   9.804
16156WAT     H148710   0.911   7.327   9.744
16156WAT     H248711   1.024   7.210   9.760
16157WAT      O48712   6.918   9.801   9.323
16157WAT     H148713   6.866   9.806   9.237
16157WAT     H248714   7.016   9.809   9.302
16158WAT      O48715   5.229   6.619   2.302
16158WAT     H148716   5.246   6.711   2.336
16158WAT     H248717   5.186   6.624   2.212
16159WAT      O48718   3.873   6.015   7.578
16159WAT     H148719   3.856   5.920   7.550
16159WAT     H248720   3.804   6.043   7.645
16160WAT      O48721   3.818   9.266   6.628
16160WAT     H148722   3.855   9.292   6.717
16160WAT     H248723   3.729   9.221   6.640
16161WAT      O48724   7.948   8.857   3.749
16161WAT     H148725   7.947   8.763   3.716
16161WAT     H248726   8.028   8.904   3.712
16162WAT      O48727   4.877   6.196   8.579
16162WAT     H148728   4.803   6.256   8.608
16162WAT     H248729   4.882   6.117   8.641
16163WAT      O48730   2.778   3.859   7.521
16163WAT     H148731   2.692   3.855   7.571
16163WAT     H248732   2.854   3.848   7.584
16164WAT      O48733   9.307   2.940   4.351
16164WAT     H148734   9.280   2.848   4.323
16164WAT     H248735   9.400   2.959   4.319
16165WAT      O48736   9.155   7.879   3.785
16165WAT     H148737   9.131   7.891   3.881
16165WAT     H248738   9.211   7.797   3.775
16166WAT      O48739   5.023   9.764   6.368
16166WAT     H148740   5.005   9.680   6.317
16166WAT     H248741   5.119   9.789   6.358
16167WAT      O48742   8.141   0.031   4.556
16167WAT     H148743   8.138   0.115   4.502
16167WAT     H248744   8.159  -0.047   4.496
16168WAT      O48745   6.701   0.930   7.699
16168WAT     H148746   6.736   0.935   7.606
16168WAT     H248747   6.679   1.022   7.731
16169WAT      O48748   8.916   8.838   9.103
16169WAT     H148749   8.837   8.776   9.099
16169WAT     H248750   8.938   8.857   9.198
16170WAT      O48751   8.109   6.059   3.736
16170WAT     H148752   8.151   6.056   3.646
16170WAT     H248753   8.052   6.141   3.745
16171WAT      O48754   6.526   0.238   5.388
16171WAT     H148755   6.437   0.194   5.404
16171WAT     H248756   6.512   0.322   5.335
16172WAT      O48757   8.196   1.502   7.238
16172WAT     H148758   8.252   1.435   7.189
16172WAT     H248759   8.100   1.491   7.212
16173WAT      O48760   9.560   5.510   0.403
16173WAT     H148761   9.565   5.608   0.381
16173WAT     H248762   9.611   5.458   0.335
16174WAT      O48763   6.800   0.344   0.536
16174WAT     H148764   6.806   0.250   0.570
16174WAT     H248765   6.871   0.359   0.467
16175WAT      O48766   1.788   8.298   7.769
16175WAT     H148767   1.831   8.346   7.845
16175WAT     H248768   1.729   8.361   7.719
16176WAT      O48769   6.009   5.477   2.976
16176WAT     H148770   6.104   5.444   2.979
16176WAT     H248771   6.006   5.564   2.927
16177WAT      O48772   0.234   1.986   5.584
16177WAT     H148773   0.230   2.076   5.627
16177WAT     H248774   0.288   1.924   5.641
16178WAT      O48775   3.037   3.783   6.321
16178WAT     H148776   3.076   3.834   6.397
16178WAT     H248777   2.980   3.844   6.265
16179WAT      O48778   1.254   9.357   9.071
16179WAT     H148779   1.263   9.287   8.999
16179WAT     H248780   1.225   9.313   9.156
16180WAT      O48781   6.694   8.338   3.024
16180WAT     H148782   6.621   8.400   3.052
16180WAT     H248783   6.719   8.356   2.929
16181WAT      O48784   4.891   3.953   0.604
16181WAT     H148785   4.824   3.885   0.637
16181WAT     H248786   4.958   3.908   0.546
16182WAT      O48787   7.761   7.025   9.588
16182WAT     H148788   7.687   7.059   9.530
16182WAT     H248789   7.843   7.012   9.533
16183WAT      O48790   8.071   4.006   2.994
16183WAT     H148791   8.080   4.053   3.082
16183WAT     H248792   8.008   4.058   2.935
16184WAT      O48793   4.549   2.609   2.084
16184WAT     H148794   4.630   2.646   2.039
16184WAT     H248795   4.545   2.642   2.179
16185WAT      O48796   3.733   4.734   4.126
16185WAT     H148797   3.675   4.805   4.167
16185WAT     H248798   3.748   4.661   4.192
16186WAT      O48799   2.475   1.108   0.920
16186WAT     H148800   2.444   1.032   0.977
16186WAT     H248801   2.410   1.122   0.845
16187WAT      O48802   3.577   8.180   1.073
16187WAT     H148803   3.551   8.086   1.051
16187WAT     H248804   3.525   8.210   1.153
16188WAT      O48805   1.195   9.757   9.613
16188WAT     H148806   1.178   9.727   9.519
16188WAT     H248807   1.281   9.806   9.617
16189WAT      O48808   7.165   2.037   3.072
16189WAT     H148809   7.257   2.063   3.046
16189WAT     H248810   7.168   1.952   3.125
16190WAT      O48811   8.449   3.592   3.833
16190WAT     H148812   8.354   3.610   3.807
16190WAT     H248813   8.504   3.673   3.817
16191WAT      O48814   5.275   3.602   5.073
16191WAT     H148815   5.255   3.522   5.018
16191WAT     H248816   5.193   3.627   5.126
16192WAT      O48817   0.838   3.708   4.590
16192WAT     H148818   0.875   3.690   4.499
16192WAT     H248819   0.821   3.806   4.600
16193WAT      O48820   9.356   3.078   3.760
16193WAT     H148821   9.417   3.092   3.682
16193WAT     H248822   9.331   3.166   3.799
16194WAT      O48823   1.664   5.131   2.681
16194WAT     H148824   1.602   5.201   2.717
16194WAT     H248825   1.758   5.156   2.702
16195WAT      O48826   1.420   2.219   6.398
16195WAT     H148827   1.478   2.245   6.321
16195WAT     H248828   1.460   2.252   6.483
16196WAT      O48829   4.031   1.825   0.206
16196WAT     H148830   3.978   1.766   0.145
16196WAT     H248831   3.969   1.885   0.256
16197WAT      O48832   7.170   2.154   8.606
16197WAT     H148833   7.098   2.180   8.670
16197WAT     H248834   7.154   2.060   8.576
16198WAT      O48835   0.611   4.475   1.066
16198WAT     H148836   0.574   4.532   0.993
16198WAT     H248837   0.599   4.521   1.154
16199WAT      O48838   6.458   7.217   6.313
16199WAT     H148839   6.369   7.209   6.359
16199WAT     H248840   6.456   7.165   6.228
16200WAT      O48841   0.266   1.337   4.905
16200WAT     H148842   0.345   1.278   4.923
16200WAT     H248843   0.291   1.408   4.839
16201WAT      O48844   6.923   1.811   5.019
16201WAT     H148845   6.891   1.893   4.971
16201WAT     H248846   6.848   1.744   5.023
16202WAT      O48847   5.865   8.900   3.232
16202WAT     H148848   5.814   8.845   3.298
16202WAT     H248849   5.805   8.971   3.195
16203WAT      O48850   1.045   1.245   4.674
16203WAT     H148851   1.030   1.151   4.705
16203WAT     H248852   0.964   1.300   4.694
16204WAT      O48853   5.270   4.267   9.663
16204WAT     H148854   5.284   4.236   9.569
16204WAT     H248855   5.177   4.244   9.692
16205WAT      O48856   8.593   4.586   0.049
16205WAT     H148857   8.630   4.679   0.046
16205WAT     H248858   8.632   4.532  -0.025
16206WAT      O48859   0.087   4.672   8.880
16206WAT     H148860   0.052   4.579   8.890
16206WAT     H248861   0.013   4.737   8.891
16207WAT      O48862   5.224   8.643   9.509
16207WAT     H148863   5.278   8.589   9.573
16207WAT     H248864   5.223   8.738   9.538
16208WAT      O48865   2.388   9.038   9.675
16208WAT     H148866   2.349   9.129   9.686
16208WAT     H248867   2.330   8.970   9.721
16209WAT      O48868   5.874   2.084   1.337
16209WAT     H148869   5.913   1.992   1.341
16209WAT     H248870   5.864   2.111   1.241
16210WAT      O48871   5.964   4.326   6.069
16210WAT     H148872   5.980   4.259   5.996
16210WAT     H248873   5.949   4.416   6.029
16211WAT      O48874   5.926   2.157   4.894
16211WAT     H148875   6.017   2.197   4.888
16211WAT     H248876   5.889   2.146   4.802
16212WAT      O48877   4.512   0.249   2.214
16212WAT     H148878   4.472   0.163   2.247
16212WAT     H248879   4.569   0.288   2.286
16213WAT      O48880   2.946   9.560   5.186
16213WAT     H148881   2.868   9.611   5.221
16213WAT     H248882   3.011   9.544   5.260
16214WAT      O48883   2.837   5.716   3.666
16214WAT     H148884   2.930   5.741   3.638
16214WAT     H248885   2.771   5.761   3.606
16215WAT      O48886   5.336   2.162   4.646
16215WAT     H148887   5.338   2.258   4.675
16215WAT     H248888   5.243   2.137   4.620
16216WAT      O48889   8.343   8.079   3.042
16216WAT     H148890   8.313   7.987   3.015
16216WAT     H248891   8.352   8.136   2.961
16217WAT      O48892   5.021   4.905   2.784
16217WAT     H148893   4.977   4.839   2.844
16217WAT     H248894   4.953   4.971   2.751
16218WAT      O48895   1.531   0.166   0.222
16218WAT     H148896   1.568   0.116   0.300
16218WAT     H248897   1.500   0.256   0.251
16219WAT      O48898   3.678   3.433   5.668
16219WAT     H148899   3.729   3.519   5.674
16219WAT     H248900   3.708   3.371   5.740
16220WAT      O48901   4.059   6.085   3.746
16220WAT     H148902   4.157   6.103   3.743
16220WAT     H248903   4.021   6.088   3.654
16221WAT      O48904   7.225   5.712   6.704
16221WAT     H148905   7.267   5.654   6.634
16221WAT     H248906   7.131   5.682   6.720
16222WAT      O48907   8.447   1.284   7.648
16222WAT     H148908   8.469   1.348   7.575
16222WAT     H248909   8.378   1.219   7.616
16223WAT      O48910   3.872   7.595   1.412
16223WAT     H148911   3.890   7.504   1.376
16223WAT     H248912   3.799   7.590   1.481
16224WAT      O48913   0.341   8.028   3.218
16224WAT     H148914   0.283   8.106   3.241
16224WAT     H248915   0.293   7.968   3.155
16225WAT      O48916   9.242   3.819   0.683
16225WAT     H148917   9.199   3.901   0.721
16225WAT     H248918   9.324   3.845   0.632
16226WAT      O48919   5.670   5.238   8.414
16226WAT     H148920   5.676   5.175   8.491
16226WAT     H248921   5.671   5.186   8.328
16227WAT      O48922   0.234   0.958   8.520
16227WAT     H148923   0.271   0.869   8.495
16227WAT     H248924   0.300   1.007   8.576
16228WAT      O48925   9.494   4.088   4.747
16228WAT     H148926   9.398   4.091   4.773
16228WAT     H248927   9.525   4.180   4.724
16229WAT      O48928   8.528   2.595   3.037
16229WAT     H148929   8.597   2.643   3.090
16229WAT     H248930   8.437   2.624   3.065
16230WAT      O48931   4.526   9.619   0.798
16230WAT     H148932   4.474   9.642   0.716
16230WAT     H248933   4.515   9.522   0.818
16231WAT      O48934   8.749   7.365   3.757
16231WAT     H148935   8.832   7.335   3.805
16231WAT     H248936   8.713   7.290   3.701
16232WAT      O48937   9.224   5.271   2.955
16232WAT     H148938   9.268   5.238   3.038
16232WAT     H248939   9.133   5.231   2.947
16233WAT      O48940   4.056   6.647   3.947
16233WAT     H148941   4.006   6.595   3.878
16233WAT     H248942   4.154   6.648   3.924
16234WAT      O48943   3.280   0.599   1.317
16234WAT     H148944   3.293   0.684   1.266
16234WAT     H248945   3.183   0.586   1.335
16235WAT      O48946   2.813   0.024   0.899
16235WAT     H148947   2.729  -0.021   0.871
16235WAT     H248948   2.843  -0.012   0.987
16236WAT      O48949   0.435   2.812   1.867
16236WAT     H148950   0.414   2.900   1.911
16236WAT     H248951   0.359   2.749   1.882
16237WAT      O48952   5.194   2.398   2.015
16237WAT     H148953   5.124   2.339   2.054
16237WAT     H248954   5.279   2.386   2.066
16238WAT      O48955   5.261   6.215   3.540
16238WAT     H148956   5.303   6.125   3.550
16238WAT     H248957   5.249   6.236   3.443
16239WAT      O48958   2.492   7.036   4.574
16239WAT     H148959   2.441   7.029   4.660
16239WAT     H248960   2.574   6.978   4.579
16240WAT      O48961   9.035   7.523   4.968
16240WAT     H148962   9.023   7.545   5.065
16240WAT     H248963   9.057   7.607   4.918
16241WAT      O48964   0.614   5.337   0.438
16241WAT     H148965   0.537   5.326   0.375
16241WAT     H248966   0.590   5.405   0.507
16242WAT      O48967   9.667   1.251   4.449
16242WAT     H148968   9.596   1.198   4.403
16242WAT     H248969   9.632   1.341   4.472
16243WAT      O48970   1.272   3.026   2.128
16243WAT     H148971   1.363   3.020   2.087
16243WAT     H248972   1.208   2.969   2.078
16244WAT      O48973   2.351   0.838   0.681
16244WAT     H148974   2.341   0.849   0.780
16244WAT     H248975   2.448   0.840   0.657
16245WAT      O48976   5.737   1.428   8.601
16245WAT     H148977   5.754   1.444   8.504
16245WAT     H248978   5.818   1.454   8.654
16246WAT      O48979   1.145   7.042   8.108
16246WAT     H148980   1.244   7.050   8.114
16246WAT     H248981   1.109   7.001   8.192
16247WAT      O48982   1.708   8.986   0.521
16247WAT     H148983   1.714   9.064   0.458
16247WAT     H248984   1.615   8.981   0.557
16248WAT      O48985   4.958   6.167   2.737
16248WAT     H148986   4.873   6.178   2.788
16248WAT     H248987   4.979   6.251   2.687
16249WAT      O48988   9.418   1.118   5.690
16249WAT     H148989   9.474   1.161   5.760
16249WAT     H248990   9.358   1.050   5.732
16250WAT      O48991   6.002   4.823   8.957
16250WAT     H148992   6.030   4.807   8.862
16250WAT     H248993   6.081   4.817   9.017
16251WAT      O48994   7.741   0.788   4.572
16251WAT     H148995   7.683   0.707   4.568
16251WAT     H248996   7.837   0.760   4.565
16252WAT      O48997   5.633   6.449   1.343
16252WAT     H148998   5.649   6.541   1.380
16252WAT     H248999   5.560   6.453   1.276
16253WAT      O49000   1.198   2.172   4.683
16253WAT     H149001   1.176   2.221   4.767
16253WAT     H249002   1.222   2.077   4.704
16254WAT      O49003   8.488   9.804   2.635
16254WAT     H149004   8.507   9.714   2.673
16254WAT     H249005   8.406   9.842   2.679
16255WAT      O49006   6.020   4.918   3.471
16255WAT     H149007   5.958   4.984   3.428
16255WAT     H249008   6.043   4.950   3.562
16256WAT      O49009   6.498   9.167   5.983
16256WAT     H149010   6.514   9.158   5.885
16256WAT     H249011   6.405   9.198   5.999
16257WAT      O49012   9.226   5.020   5.388
16257WAT     H149013   9.128   5.033   5.373
16257WAT     H249014   9.244   4.922   5.400
16258WAT      O49015   2.609   7.462   7.153
16258WAT     H149016   2.558   7.547   7.152
16258WAT     H249017   2.554   7.390   7.195
16259WAT      O49018   1.060   0.524   1.552
16259WAT     H149019   1.121   0.538   1.630
16259WAT     H249020   1.111   0.486   1.475
16260WAT      O49021   2.857   8.801   2.858
16260WAT     H149022   2.827   8.723   2.913
16260WAT     H249023   2.812   8.799   2.769
16261WAT      O49024   9.045   9.251   7.567
16261WAT     H149025   9.024   9.330   7.626
16261WAT     H249026   9.101   9.281   7.490
16262WAT      O49027   6.824   4.232   5.263
16262WAT     H149028   6.872   4.298   5.321
16262WAT     H249029   6.874   4.222   5.177
16263WAT      O49030   0.998   4.130   9.216
16263WAT     H149031   0.989   4.031   9.205
16263WAT     H249032   1.075   4.151   9.276
16264WAT      O49033   3.293   5.414   4.011
16264WAT     H149034   3.305   5.511   4.028
16264WAT     H249035   3.200   5.386   4.036
16265WAT      O49036   5.238   5.235   9.105
16265WAT     H149037   5.324   5.284   9.097
16265WAT     H249038   5.229   5.199   9.198
16266WAT      O49039   6.148   5.188   9.128
16266WAT     H149040   6.157   5.170   9.226
16266WAT     H249041   6.239   5.209   9.090
16267WAT      O49042   8.122   4.902   2.702
16267WAT     H149043   8.167   4.970   2.645
16267WAT     H249044   8.183   4.823   2.713
16268WAT      O49045   6.818   9.378   5.337
16268WAT     H149046   6.726   9.339   5.332
16268WAT     H249047   6.877   9.319   5.392
16269WAT      O49048   2.097   0.338   1.771
16269WAT     H149049   2.038   0.263   1.802
16269WAT     H249050   2.171   0.352   1.837
16270WAT      O49051   8.879   3.117   1.079
16270WAT     H149052   8.902   3.162   1.165
16270WAT     H249053   8.794   3.066   1.089
16271WAT      O49054   2.130   0.360   1.474
16271WAT     H149055   2.128   0.354   1.574
16271WAT     H249056   2.220   0.395   1.445
16272WAT      O49057   2.154   5.787   3.798
16272WAT     H149058   2.212   5.720   3.754
16272WAT     H249059   2.066   5.746   3.820
16273WAT      O49060   7.967   8.956   7.271
16273WAT     H149061   8.042   8.894   7.292
16273WAT     H249062   8.002   9.050   7.265
16274WAT      O49063   2.135   4.698   3.849
16274WAT     H149064   2.040   4.724   3.834
16274WAT     H249065   2.178   4.764   3.911
16275WAT      O49066   7.454   5.309   9.042
16275WAT     H149067   7.360   5.342   9.030
16275WAT     H249068   7.500   5.306   8.953
16276WAT      O49069   7.346   3.649   3.865
16276WAT     H149070   7.281   3.574   3.862
16276WAT     H249071   7.351   3.692   3.775
16277WAT      O49072   3.182   1.815   5.988
16277WAT     H149073   3.255   1.753   5.962
16277WAT     H249074   3.109   1.764   6.034
16278WAT      O49075   5.181   6.999   3.361
16278WAT     H149076   5.135   7.019   3.274
16278WAT     H249077   5.115   6.960   3.425
16279WAT      O49078   7.314   5.026   6.262
16279WAT     H149079   7.235   5.024   6.324
16279WAT     H249080   7.394   4.991   6.309
16280WAT      O49081   4.249   8.818   0.258
16280WAT     H149082   4.332   8.831   0.205
16280WAT     H249083   4.204   8.733   0.230
16281WAT      O49084   3.536   2.740   7.945
16281WAT     H149085   3.451   2.790   7.963
16281WAT     H249086   3.614   2.800   7.964
16282WAT      O49087   7.050   7.685   9.041
16282WAT     H149088   6.976   7.653   9.101
16282WAT     H249089   7.132   7.699   9.096
16283WAT      O49090   3.294   7.363   9.038
16283WAT     H149091   3.368   7.428   9.023
16283WAT     H249092   3.330   7.270   9.035
16284WAT      O49093   9.530   0.671   6.533
16284WAT     H149094   9.518   0.724   6.617
16284WAT     H249095   9.448   0.617   6.516
16285WAT      O49096   4.701   1.661   9.267
16285WAT     H149097   4.703   1.647   9.168
16285WAT     H249098   4.673   1.755   9.287
16286WAT      O49099   9.168   1.813   7.134
16286WAT     H149100   9.209   1.889   7.186
16286WAT     H249101   9.151   1.842   7.040
16287WAT      O49102   1.485   3.974   9.136
16287WAT     H149103   1.491   3.913   9.057
16287WAT     H249104   1.427   4.051   9.114
16288WAT      O49105   2.513   8.068   3.433
16288WAT     H149106   2.576   8.015   3.490
16288WAT     H249107   2.563   8.108   3.357
16289WAT      O49108   1.255   2.385   4.472
16289WAT     H149109   1.199   2.460   4.508
16289WAT     H249110   1.259   2.311   4.539
16290WAT      O49111   8.279   2.248   0.840
16290WAT     H149112   8.297   2.177   0.907
16290WAT     H249113   8.282   2.209   0.748
16291WAT      O49114   5.793   8.392   5.721
16291WAT     H149115   5.747   8.365   5.805
16291WAT     H249116   5.848   8.315   5.688
16292WAT      O49117   2.203   6.065   5.449
16292WAT     H149118   2.261   6.021   5.518
16292WAT     H249119   2.236   6.158   5.432
16293WAT      O49120   9.381   0.610   4.396
16293WAT     H149121   9.472   0.573   4.380
16293WAT     H249122   9.343   0.573   4.480
16294WAT      O49123   2.655   2.004   9.406
16294WAT     H149124   2.609   1.916   9.399
16294WAT     H249125   2.587   2.077   9.409
16295WAT      O49126   8.837   1.761   0.568
16295WAT     H149127   8.833   1.710   0.654
16295WAT     H249128   8.887   1.847   0.582
16296WAT      O49129   5.761   7.467   0.768
16296WAT     H149130   5.838   7.403   0.769
16296WAT     H249131   5.687   7.429   0.713
16297WAT      O49132   3.330   7.573   2.688
16297WAT     H149133   3.371   7.500   2.742
16297WAT     H249134   3.243   7.599   2.729
16298WAT      O49135   1.593   6.481   4.755
16298WAT     H149136   1.688   6.499   4.730
16298WAT     H249137   1.542   6.452   4.674
16299WAT      O49138   5.798   2.093   2.718
16299WAT     H149139   5.836   2.021   2.660
16299WAT     H249140   5.779   2.057   2.810
16300WAT      O49141   0.673   7.142   2.825
16300WAT     H149142   0.574   7.140   2.816
16300WAT     H249143   0.715   7.139   2.734
16301WAT      O49144   4.073   9.636   7.688
16301WAT     H149145   4.033   9.545   7.695
16301WAT     H249146   4.143   9.647   7.759
16302WAT      O49147   0.390   3.958   4.689
16302WAT     H149148   0.415   4.026   4.620
16302WAT     H249149   0.405   3.866   4.653
16303WAT      O49150   4.929   6.874   9.438
16303WAT     H149151   4.937   6.782   9.476
16303WAT     H249152   4.991   6.883   9.360
16304WAT      O49153   3.480   7.287   1.121
16304WAT     H149154   3.470   7.188   1.110
16304WAT     H249155   3.390   7.328   1.139
16305WAT      O49156   3.241   0.156   2.467
16305WAT     H149157   3.304   0.185   2.539
16305WAT     H249158   3.251   0.216   2.387
16306WAT      O49159   5.167   3.572   6.297
16306WAT     H149160   5.081   3.536   6.334
16306WAT     H249161   5.244   3.528   6.344
16307WAT      O49162   0.480   2.697   2.126
16307WAT     H149163   0.381   2.680   2.127
16307WAT     H249164   0.527   2.619   2.086
16308WAT      O49165   5.699   8.973   0.024
16308WAT     H149166   5.695   8.881   0.061
16308WAT     H249167   5.786   8.986  -0.024
16309WAT      O49168   1.711   0.024   0.670
16309WAT     H149169   1.689   0.119   0.691
16309WAT     H249170   1.803   0.003   0.703
16310WAT      O49171   2.320   0.844   0.954
16310WAT     H149172   2.358   0.761   0.995
16310WAT     H249173   2.225   0.854   0.982
16311WAT      O49174   1.716   8.421   3.343
16311WAT     H149175   1.780   8.467   3.281
16311WAT     H249176   1.647   8.487   3.374
16312WAT      O49177   4.573   0.616   2.803
16312WAT     H149178   4.594   0.688   2.737
16312WAT     H249179   4.606   0.643   2.893
16313WAT      O49180   8.206   6.026   4.612
16313WAT     H149181   8.150   5.997   4.535
16313WAT     H249182   8.247   5.946   4.656
16314WAT      O49183   8.952   4.172   8.901
16314WAT     H149184   8.852   4.169   8.911
16314WAT     H249185   8.990   4.084   8.928
16315WAT      O49186   3.463   8.837   6.520
16315WAT     H149187   3.365   8.846   6.501
16315WAT     H249188   3.515   8.874   6.443
16316WAT      O49189   6.214   9.498   6.773
16316WAT     H149190   6.203   9.579   6.715
16316WAT     H249191   6.156   9.424   6.739
16317WAT      O49192   6.834   7.005   9.574
16317WAT     H149193   6.798   6.914   9.593
16317WAT     H249194   6.802   7.035   9.484
16318WAT      O49195   7.890   9.820   5.695
16318WAT     H149196   7.848   9.820   5.786
16318WAT     H249197   7.877   9.909   5.652
16319WAT      O49198   4.066   9.338   2.888
16319WAT     H149199   4.044   9.399   2.812
16319WAT     H249200   4.134   9.271   2.859
16320WAT      O49201   0.012   4.206   3.196
16320WAT     H149202   0.037   4.134   3.132
16320WAT     H249203  -0.006   4.291   3.147
16321WAT      O49204   8.307   4.818   3.666
16321WAT     H149205   8.387   4.838   3.723
16321WAT     H249206   8.281   4.901   3.616
16322WAT      O49207   2.203   8.111   3.856
16322WAT     H149208   2.188   8.130   3.759
16322WAT     H249209   2.226   8.014   3.868
16323WAT      O49210   5.140   8.405   1.697
16323WAT     H149211   5.187   8.322   1.666
16323WAT     H249212   5.105   8.390   1.790
16324WAT      O49213   6.831   3.641   4.016
16324WAT     H149214   6.803   3.565   3.959
16324WAT     H249215   6.917   3.679   3.981
16325WAT      O49216   1.248   6.553   9.593
16325WAT     H149217   1.315   6.494   9.637
16325WAT     H249218   1.256   6.646   9.631
16326WAT      O49219   3.150   1.460   4.551
16326WAT     H149220   3.103   1.375   4.526
16326WAT     H249221   3.202   1.493   4.473
16327WAT      O49222   4.443   6.997   9.124
16327WAT     H149223   4.449   6.908   9.170
16327WAT     H249224   4.435   7.069   9.193
16328WAT      O49225   1.388   4.671   3.904
16328WAT     H149226   1.369   4.573   3.900
16328WAT     H249227   1.306   4.720   3.934
16329WAT      O49228   0.584   1.096   2.902
16329WAT     H149229   0.640   1.178   2.913
16329WAT     H249230   0.499   1.121   2.854
16330WAT      O49231   9.395   3.896   0.013
16330WAT     H149232   9.327   3.910   0.085
16330WAT     H249233   9.356   3.839  -0.059
16331WAT      O49234   1.473   6.543   2.149
16331WAT     H149235   1.495   6.462   2.095
16331WAT     H249236   1.454   6.619   2.087
16332WAT      O49237   0.897   5.543   4.118
16332WAT     H149238   0.846   5.628   4.105
16332WAT     H249239   0.852   5.468   4.070
16333WAT      O49240   2.011   9.286   2.233
16333WAT     H149241   2.053   9.355   2.173
16333WAT     H249242   2.029   9.310   2.328
16334WAT      O49243   6.819   4.976   2.217
16334WAT     H149244   6.822   4.880   2.187
16334WAT     H249245   6.749   4.987   2.288
16335WAT      O49246   0.309   5.575   7.334
16335WAT     H149247   0.352   5.525   7.258
16335WAT     H249248   0.231   5.626   7.300
16336WAT      O49249   8.819   9.164   6.500
16336WAT     H149250   8.916   9.175   6.479
16336WAT     H249251   8.779   9.253   6.519
16337WAT      O49252   2.850   4.685   9.648
16337WAT     H149253   2.912   4.714   9.575
16337WAT     H249254   2.898   4.622   9.709
16338WAT      O49255   8.949   3.017   3.306
16338WAT     H149256   8.938   2.996   3.209
16338WAT     H249257   8.957   3.116   3.318
16339WAT      O49258   2.957   0.921   4.129
16339WAT     H149259   3.026   0.849   4.119
16339WAT     H249260   2.898   0.899   4.207
16340WAT      O49261   9.287   3.708   5.170
16340WAT     H149262   9.360   3.712   5.238
16340WAT     H249263   9.237   3.622   5.178
16341WAT      O49264   3.813   0.655   4.124
16341WAT     H149265   3.795   0.624   4.218
16341WAT     H249266   3.890   0.719   4.124
16342WAT      O49267   5.875   4.405   6.843
16342WAT     H149268   5.966   4.410   6.803
16342WAT     H249269   5.807   4.400   6.771
16343WAT      O49270   8.555   6.751   8.011
16343WAT     H149271   8.534   6.829   7.951
16343WAT     H249272   8.557   6.667   7.957
16344WAT      O49273   1.466   5.274   8.813
16344WAT     H149274   1.414   5.200   8.770
16344WAT     H249275   1.535   5.235   8.874
16345WAT      O49276   5.325   7.014   5.385
16345WAT     H149277   5.285   7.097   5.423
16345WAT     H249278   5.380   7.037   5.305
16346WAT      O49279   0.795   3.574   7.325
16346WAT     H149280   0.883   3.617   7.342
16346WAT     H249281   0.795   3.531   7.235
16347WAT      O49282   5.642   1.573   4.577
16347WAT     H149283   5.615   1.631   4.654
16347WAT     H249284   5.563   1.520   4.547
16348WAT      O49285   8.220   0.489   9.841
16348WAT     H149286   8.183   0.490   9.934
16348WAT     H249287   8.211   0.580   9.800
16349WAT      O49288   0.434   9.785   8.599
16349WAT     H149289   0.504   9.791   8.529
16349WAT     H249290   0.465   9.724   8.672
16350WAT      O49291   2.833   9.082   1.090
16350WAT     H149292   2.744   9.040   1.107
16350WAT     H249293   2.896   9.013   1.053
16351WAT      O49294   7.524   2.263   4.930
16351WAT     H149295   7.533   2.196   5.004
16351WAT     H249296   7.509   2.215   4.844
16352WAT      O49297   5.403   3.248   5.798
16352WAT     H149298   5.401   3.212   5.705
16352WAT     H249299   5.459   3.330   5.801
16353WAT      O49300   3.690   2.895   5.947
16353WAT     H149301   3.727   2.931   6.033
16353WAT     H249302   3.590   2.897   5.949
16354WAT      O49303   0.182   0.099   5.296
16354WAT     H149304   0.124   0.073   5.373
16354WAT     H249305   0.204   0.018   5.241
16355WAT      O49306   1.517   5.202   9.833
16355WAT     H149307   1.518   5.129   9.902
16355WAT     H249308   1.599   5.259   9.844
16356WAT      O49309   3.582   9.213   4.904
16356WAT     H149310   3.635   9.130   4.919
16356WAT     H249311   3.486   9.190   4.890
16357WAT      O49312   2.459   0.648   0.290
16357WAT     H149313   2.380   0.637   0.229
16357WAT     H249314   2.471   0.745   0.311
16358WAT      O49315   5.069   6.297   2.074
16358WAT     H149316   5.096   6.222   2.013
16358WAT     H249317   5.125   6.378   2.054
16359WAT      O49318   6.139   8.404   7.858
16359WAT     H149319   6.040   8.413   7.860
16359WAT     H249320   6.167   8.356   7.776
16360WAT      O49321   1.515   0.211   1.213
16360WAT     H149322   1.504   0.174   1.121
16360WAT     H249323   1.611   0.231   1.230
16361WAT      O49324   3.668   5.207   5.098
16361WAT     H149325   3.764   5.179   5.093
16361WAT     H249326   3.647   5.236   5.191
16362WAT      O49327   8.049   7.904   1.577
16362WAT     H149328   7.965   7.908   1.523
16362WAT     H249329   8.071   7.808   1.596
16363WAT      O49330   5.209   5.649   2.587
16363WAT     H149331   5.239   5.621   2.496
16363WAT     H249332   5.270   5.611   2.656
16364WAT      O49333   6.679   1.642   4.312
16364WAT     H149334   6.698   1.738   4.295
16364WAT     H249335   6.597   1.614   4.261
16365WAT      O49336   5.717   5.793   3.966
16365WAT     H149337   5.697   5.819   4.060
16365WAT     H249338   5.632   5.790   3.913
16366WAT      O49339   1.661   6.956   7.292
16366WAT     H149340   1.689   6.889   7.361
16366WAT     H249341   1.654   6.911   7.203
16367WAT      O49342   0.178   8.548   8.769
16367WAT     H149343   0.256   8.490   8.793
16367WAT     H249344   0.209   8.642   8.758
16368WAT      O49345   7.648   7.622   4.504
16368WAT     H149346   7.636   7.654   4.410
16368WAT     H249347   7.588   7.544   4.520
16369WAT      O49348   3.248   7.644   2.002
16369WAT     H149349   3.197   7.641   2.088
16369WAT     H249350   3.187   7.674   1.928
16370WAT      O49351   1.371   3.954   3.474
16370WAT     H149352   1.332   3.980   3.386
16370WAT     H249353   1.299   3.917   3.533
16371WAT      O49354   7.355   6.933   9.722
16371WAT     H149355   7.447   6.904   9.694
16371WAT     H249356   7.297   6.942   9.641
16372WAT      O49357   9.581   2.751   9.235
16372WAT     H149358   9.543   2.745   9.143
16372WAT     H249359   9.523   2.698   9.298
16373WAT      O49360   3.216   4.782   6.760
16373WAT     H149361   3.221   4.882   6.766
16373WAT     H249362   3.206   4.754   6.665
16374WAT      O49363   6.864   6.284   9.325
16374WAT     H149364   6.776   6.317   9.294
16374WAT     H249365   6.891   6.334   9.408
16375WAT      O49366   8.579   5.476   4.963
16375WAT     H149367   8.677   5.458   4.970
16375WAT     H249368   8.561   5.528   4.879
16376WAT      O49369   8.015   4.644   1.011
16376WAT     H149370   8.058   4.635   1.101
16376WAT     H249371   7.955   4.566   0.994
16377WAT      O49372   4.989   5.933   8.269
16377WAT     H149373   5.057   5.969   8.332
16377WAT     H249374   4.897   5.959   8.301
16378WAT      O49375   8.485   3.848   4.613
16378WAT     H149376   8.563   3.906   4.635
16378WAT     H249377   8.506   3.754   4.640
16379WAT      O49378   2.358   3.517   5.870
16379WAT     H149379   2.271   3.561   5.848
16379WAT     H249380   2.367   3.506   5.969
16380WAT      O49381   0.454   4.730   9.556
16380WAT     H149382   0.456   4.632   9.579
16380WAT     H249383   0.371   4.771   9.595
16381WAT      O49384   5.421   0.997   5.295
16381WAT     H149385   5.326   1.004   5.264
16381WAT     H249386   5.479   1.057   5.240
16382WAT      O49387   0.195   7.294   1.464
16382WAT     H149388   0.294   7.303   1.447
16382WAT     H249389   0.146   7.356   1.402
16383WAT      O49390   8.220   6.298   7.469
16383WAT     H149391   8.135   6.338   7.437
16383WAT     H249392   8.204   6.250   7.556
16384WAT      O49393   7.577   1.445   5.628
16384WAT     H149394   7.620   1.532   5.605
16384WAT     H249395   7.482   1.445   5.595
16385WAT      O49396   4.350   4.926   1.249
16385WAT     H149397   4.279   4.874   1.200
16385WAT     H249398   4.438   4.879   1.238
16386WAT      O49399   6.890   3.278   0.615
16386WAT     H149400   6.918   3.332   0.536
16386WAT     H249401   6.964   3.218   0.643
16387WAT      O49402   6.628   5.607   3.306
16387WAT     H149403   6.660   5.687   3.255
16387WAT     H249404   6.533   5.587   3.279
16388WAT      O49405   2.501   8.506   5.680
16388WAT     H149406   2.427   8.549   5.628
16388WAT     H249407   2.512   8.554   5.767
16389WAT      O49408   8.187   9.563   3.326
16389WAT     H149409   8.179   9.515   3.414
16389WAT     H249410   8.133   9.517   3.257
16390WAT      O49411   3.522   4.750   8.721
16390WAT     H149412   3.614   4.768   8.687
16390WAT     H249413   3.455   4.783   8.655
16391WAT      O49414   6.721   6.761   0.417
16391WAT     H149415   6.633   6.731   0.453
16391WAT     H249416   6.788   6.687   0.426
16392WAT      O49417   7.122   9.404   5.837
16392WAT     H149418   7.032   9.380   5.873
16392WAT     H249419   7.112   9.441   5.745
16393WAT      O49420   3.194   6.102   0.523
16393WAT     H149421   3.134   6.023   0.534
16393WAT     H249422   3.182   6.164   0.601
16394WAT      O49423   9.444   3.191   3.050
16394WAT     H149424   9.418   3.099   3.020
16394WAT     H249425   9.367   3.234   3.096
16395WAT      O49426   4.156   9.792   9.505
16395WAT     H149427   4.235   9.851   9.522
16395WAT     H249428   4.089   9.841   9.450
16396WAT      O49429   3.677   4.283   0.165
16396WAT     H149430   3.740   4.323   0.099
16396WAT     H249431   3.633   4.355   0.218
16397WAT      O49432   7.359   1.402   0.843
16397WAT     H149433   7.448   1.402   0.888
16397WAT     H249434   7.293   1.452   0.899
16398WAT      O49435   2.405   3.046   8.887
16398WAT     H149436   2.378   2.950   8.883
16398WAT     H249437   2.337   3.098   8.939
16399WAT      O49438   8.178   0.723   9.739
16399WAT     H149439   8.201   0.730   9.642
16399WAT     H249440   8.218   0.800   9.788
16400WAT      O49441   9.872   0.683   1.071
16400WAT     H149442   9.810   0.614   1.109
16400WAT     H249443   9.965   0.667   1.106
16401WAT      O49444   4.432   7.757   3.143
16401WAT     H149445   4.339   7.768   3.178
16401WAT     H249446   4.494   7.815   3.195
16402WAT      O49447   7.583   6.534   1.810
16402WAT     H149448   7.574   6.464   1.881
16402WAT     H249449   7.526   6.613   1.834
16403WAT      O49450   0.658   3.572   3.985
16403WAT     H149451   0.696   3.506   3.920
16403WAT     H249452   0.720   3.580   4.064
16404WAT      O49453   1.918   4.149   1.574
16404WAT     H149454   1.935   4.055   1.544
16404WAT     H249455   1.859   4.148   1.655
16405WAT      O49456   9.696   8.518   7.252
16405WAT     H149457   9.742   8.465   7.324
16405WAT     H249458   9.713   8.476   7.163
16406WAT      O49459   6.490   7.991   3.926
16406WAT     H149460   6.438   7.936   3.991
16406WAT     H249461   6.588   7.981   3.944
16407WAT      O49462   1.022   2.739   6.973
16407WAT     H149463   1.066   2.777   6.891
16407WAT     H249464   0.923   2.750   6.965
16408WAT      O49465   4.399   3.737   0.083
16408WAT     H149466   4.463   3.769   0.153
16408WAT     H249467   4.415   3.789  -0.001
16409WAT      O49468   1.254   5.804   9.417
16409WAT     H149469   1.254   5.733   9.488
16409WAT     H249470   1.326   5.870   9.436
16410WAT      O49471   5.946   3.344   7.737
16410WAT     H149472   5.871   3.279   7.752
16410WAT     H249473   5.949   3.368   7.640
16411WAT      O49474   4.318   2.216   9.252
16411WAT     H149475   4.389   2.158   9.212
16411WAT     H249476   4.256   2.160   9.307
16412WAT      O49477   6.000   2.934   6.763
16412WAT     H149478   6.084   2.889   6.793
16412WAT     H249479   6.016   2.976   6.673
16413WAT      O49480   0.156   9.646   1.834
16413WAT     H149481   0.234   9.605   1.882
16413WAT     H249482   0.152   9.743   1.855
16414WAT      O49483   7.638   1.645   2.848
16414WAT     H149484   7.637   1.585   2.928
16414WAT     H249485   7.582   1.605   2.775
16415WAT      O49486   7.303   0.895   3.654
16415WAT     H149487   7.329   0.822   3.717
16415WAT     H249488   7.205   0.913   3.662
16416WAT      O49489   0.186   2.275   0.839
16416WAT     H149490   0.194   2.351   0.904
16416WAT     H249491   0.107   2.218   0.863
16417WAT      O49492   1.833   5.835   8.291
16417WAT     H149493   1.925   5.812   8.261
16417WAT     H249494   1.823   5.812   8.388
16418WAT      O49495   1.230   4.697   2.375
16418WAT     H149496   1.271   4.756   2.306
16418WAT     H249497   1.171   4.629   2.331
16419WAT      O49498   7.062   4.973   7.187
16419WAT     H149499   7.129   4.926   7.130
16419WAT     H249500   7.093   5.067   7.204
16420WAT      O49501   9.468   0.074   6.877
16420WAT     H149502   9.462   0.028   6.788
16420WAT     H249503   9.472   0.173   6.863
16421WAT      O49504   1.152   1.366   9.052
16421WAT     H149505   1.155   1.322   8.962
16421WAT     H249506   1.227   1.332   9.108
16422WAT      O49507   3.447   5.273   4.217
16422WAT     H149508   3.421   5.176   4.225
16422WAT     H249509   3.403   5.312   4.136
16423WAT      O49510   5.319   2.223   7.147
16423WAT     H149511   5.396   2.240   7.085
16423WAT     H249512   5.237   2.269   7.111
16424WAT      O49513   0.192   0.283   9.404
16424WAT     H149514   0.107   0.282   9.457
16424WAT     H249515   0.216   0.378   9.382
16425WAT      O49516   6.821   0.763   7.872
16425WAT     H149517   6.860   0.688   7.818
16425WAT     H249518   6.778   0.829   7.810
16426WAT      O49519   3.024   1.774   5.154
16426WAT     H149520   2.978   1.797   5.240
16426WAT     H249521   3.004   1.845   5.086
16427WAT      O49522   4.035   7.955   0.313
16427WAT     H149523   4.015   8.001   0.400
16427WAT     H249524   4.132   7.966   0.292
16428WAT      O49525   4.610   4.405   1.689
16428WAT     H149526   4.597   4.417   1.788
16428WAT     H249527   4.529   4.360   1.651
16429WAT      O49528   2.806   9.356   0.329
16429WAT     H149529   2.738   9.284   0.312
16429WAT     H249530   2.896   9.325   0.298
16430WAT      O49531   7.168   7.905   7.166
16430WAT     H149532   7.158   7.870   7.259
16430WAT     H249533   7.256   7.874   7.128
16431WAT      O49534   1.876   7.581   1.986
16431WAT     H149535   1.795   7.577   1.928
16431WAT     H249536   1.905   7.676   1.997
16432WAT      O49537   0.231   4.727   9.723
16432WAT     H149538   0.312   4.699   9.776
16432WAT     H249539   0.163   4.654   9.725
16433WAT      O49540   6.253   8.191   4.459
16433WAT     H149541   6.341   8.144   4.450
16433WAT     H249542   6.203   8.183   4.372
16434WAT      O49543   0.442   2.750   9.512
16434WAT     H149544   0.382   2.670   9.516
16434WAT     H249545   0.519   2.730   9.451
16435WAT      O49546   5.312   2.653   8.634
16435WAT     H149547   5.334   2.745   8.668
16435WAT     H249548   5.395   2.597   8.632
16436WAT      O49549   8.116   3.900   6.296
16436WAT     H149550   8.134   3.813   6.343
16436WAT     H249551   8.049   3.885   6.223
16437WAT      O49552   0.430   3.805   4.004
16437WAT     H149553   0.493   3.751   3.949
16437WAT     H249554   0.440   3.902   3.980
16438WAT      O49555   0.848   2.029   4.884
16438WAT     H149556   0.790   1.954   4.916
16438WAT     H249557   0.832   2.045   4.786
16439WAT      O49558   4.889   8.419   9.161
16439WAT     H149559   4.822   8.360   9.207
16439WAT     H249560   4.968   8.433   9.221
16440WAT      O49561   3.442   3.796   2.626
16440WAT     H149562   3.407   3.752   2.709
16440WAT     H249563   3.527   3.751   2.598
16441WAT      O49564   1.131   9.626   0.794
16441WAT     H149565   1.183   9.601   0.875
16441WAT     H249566   1.184   9.605   0.712
16442WAT      O49567   4.837   6.103   1.639
16442WAT     H149568   4.899   6.053   1.700
16442WAT     H249569   4.766   6.148   1.693
16443WAT      O49570   2.148   8.609   4.774
16443WAT     H149571   2.095   8.529   4.804
16443WAT     H249572   2.204   8.642   4.850
16444WAT      O49573   0.644   4.531   6.368
16444WAT     H149574   0.676   4.492   6.282
16444WAT     H249575   0.552   4.569   6.356
16445WAT      O49576   6.218   7.031   8.861
16445WAT     H149577   6.118   7.033   8.859
16445WAT     H249578   6.254   7.122   8.839
16446WAT      O49579   5.208   7.206   0.389
16446WAT     H149580   5.256   7.258   0.319
16446WAT     H249581   5.264   7.204   0.473
16447WAT      O49582   3.122   2.624   5.440
16447WAT     H149583   3.074   2.696   5.489
16447WAT     H249584   3.105   2.536   5.485
16448WAT      O49585   6.424   5.450   4.273
16448WAT     H149586   6.495   5.476   4.207
16448WAT     H249587   6.426   5.512   4.351
16449WAT      O49588   3.464   3.301   8.011
16449WAT     H149589   3.535   3.285   7.943
16449WAT     H249590   3.378   3.325   7.966
16450WAT      O49591   3.720   9.346   7.891
16450WAT     H149592   3.773   9.430   7.881
16450WAT     H249593   3.639   9.350   7.832
16451WAT      O49594   8.014   0.799   9.498
16451WAT     H149595   7.943   0.738   9.462
16451WAT     H249596   7.987   0.831   9.589
16452WAT      O49597   6.208   3.818   2.304
16452WAT     H149598   6.194   3.830   2.402
16452WAT     H249599   6.122   3.832   2.255
16453WAT      O49600   0.644   2.306   8.292
16453WAT     H149601   0.618   2.219   8.250
16453WAT     H249602   0.602   2.312   8.383
16454WAT      O49603   9.762   8.953   7.444
16454WAT     H149604   9.738   9.045   7.413
16454WAT     H249605   9.862   8.945   7.450
16455WAT      O49606   5.349   2.686   2.166
16455WAT     H149607   5.350   2.708   2.068
16455WAT     H249608   5.257   2.700   2.202
16456WAT      O49609   5.157   3.622   1.859
16456WAT     H149610   5.075   3.650   1.909
16456WAT     H249611   5.131   3.577   1.774
16457WAT      O49612   3.052   0.696   4.589
16457WAT     H149613   3.013   0.605   4.607
16457WAT     H249614   3.060   0.709   4.490
16458WAT      O49615   3.179   7.843   8.548
16458WAT     H149616   3.247   7.770   8.544
16458WAT     H249617   3.225   7.931   8.556
16459WAT      O49618   9.421   4.660   2.744
16459WAT     H149619   9.491   4.680   2.814
16459WAT     H249620   9.338   4.629   2.789
16460WAT      O49621   7.516   5.863   1.969
16460WAT     H149622   7.477   5.952   1.948
16460WAT     H249623   7.616   5.870   1.971
16461WAT      O49624   5.372   9.777   9.776
16461WAT     H149625   5.327   9.843   9.837
16461WAT     H249626   5.450   9.735   9.824
16462WAT      O49627   0.334   6.179   3.724
16462WAT     H149628   0.358   6.234   3.644
16462WAT     H249629   0.249   6.131   3.707
16463WAT      O49630   5.842   4.622   4.757
16463WAT     H149631   5.873   4.702   4.808
16463WAT     H249632   5.917   4.587   4.701
16464WAT      O49633   1.700   5.105   6.767
16464WAT     H149634   1.604   5.096   6.794
16464WAT     H249635   1.706   5.102   6.667
16465WAT      O49636   5.430   0.436   6.128
16465WAT     H149637   5.382   0.461   6.212
16465WAT     H249638   5.419   0.509   6.060
16466WAT      O49639   9.826   8.208   2.280
16466WAT     H149640   9.726   8.202   2.271
16466WAT     H249641   9.862   8.117   2.302
16467WAT      O49642   2.154   1.965   9.761
16467WAT     H149643   2.098   2.042   9.792
16467WAT     H249644   2.190   1.916   9.841
16468WAT      O49645   4.177   1.000   7.703
16468WAT     H149646   4.243   1.036   7.769
16468WAT     H249647   4.140   0.913   7.737
16469WAT      O49648   2.734   0.272   1.486
16469WAT     H149649   2.821   0.228   1.505
16469WAT     H249650   2.742   0.329   1.405
16470WAT      O49651   3.139   4.945   5.361
16470WAT     H149652   3.221   4.997   5.341
16470WAT     H249653   3.139   4.860   5.307
16471WAT      O49654   6.290   3.404   9.605
16471WAT     H149655   6.362   3.405   9.535
16471WAT     H249656   6.217   3.466   9.577
16472WAT      O49657   7.953   5.618   9.512
16472WAT     H149658   7.857   5.633   9.533
16472WAT     H249659   7.999   5.706   9.501
16473WAT      O49660   9.536   4.783   0.067
16473WAT     H149661   9.588   4.844   0.128
16473WAT     H249662   9.583   4.775  -0.021
16474WAT      O49663   9.276   6.518   2.072
16474WAT     H149664   9.300   6.611   2.045
16474WAT     H249665   9.185   6.518   2.114
16475WAT      O49666   6.554   2.774   7.318
16475WAT     H149667   6.561   2.825   7.403
16475WAT     H249668   6.511   2.831   7.248
16476WAT      O49669   3.589   3.109   1.696
16476WAT     H149670   3.554   3.088   1.604
16476WAT     H249671   3.588   3.207   1.710
16477WAT      O49672   4.063   3.241   4.000
16477WAT     H149673   4.062   3.161   4.060
16477WAT     H249674   3.979   3.242   3.945
16478WAT      O49675   2.753   7.477   3.851
16478WAT     H149676   2.767   7.380   3.871
16478WAT     H249677   2.684   7.513   3.913
16479WAT      O49678   8.954   7.780   7.995
16479WAT     H149679   8.971   7.873   8.027
16479WAT     H249680   8.856   7.768   7.979
16480WAT      O49681   3.263   3.779   9.822
16480WAT     H149682   3.297   3.696   9.866
16480WAT     H249683   3.288   3.859   9.877
16481WAT      O49684   5.596   4.917   7.734
16481WAT     H149685   5.681   4.968   7.724
16481WAT     H249686   5.577   4.901   7.831
16482WAT      O49687   8.056   2.221   6.838
16482WAT     H149688   8.036   2.316   6.864
16482WAT     H249689   7.976   2.182   6.793
16483WAT      O49690   3.249   3.554   3.046
16483WAT     H149691   3.243   3.516   3.138
16483WAT     H249692   3.162   3.543   2.999
16484WAT      O49693   5.034   2.715   9.068
16484WAT     H149694   4.976   2.797   9.071
16484WAT     H249695   5.004   2.657   8.992
16485WAT      O49696   6.427   7.230   3.778
16485WAT     H149697   6.418   7.246   3.876
16485WAT     H249698   6.406   7.134   3.757
16486WAT      O49699   6.563   5.304   8.136
16486WAT     H149700   6.591   5.235   8.203
16486WAT     H249701   6.468   5.330   8.152
16487WAT      O49702   0.742   3.514   4.887
16487WAT     H149703   0.772   3.480   4.976
16487WAT     H249704   0.729   3.613   4.891
16488WAT      O49705   8.207   7.041   3.436
16488WAT     H149706   8.161   6.970   3.490
16488WAT     H249707   8.193   7.022   3.338
16489WAT      O49708   0.311   9.113   6.672
16489WAT     H149709   0.309   9.104   6.572
16489WAT     H249710   0.376   9.047   6.710
16490WAT      O49711   3.486   9.438   5.280
16490WAT     H149712   3.432   9.376   5.224
16490WAT     H249713   3.468   9.420   5.377
16491WAT      O49714   9.638   2.543   5.162
16491WAT     H149715   9.717   2.564   5.103
16491WAT     H249716   9.623   2.444   5.163
16492WAT      O49717   3.005   8.717   0.195
16492WAT     H149718   3.017   8.727   0.096
16492WAT     H249719   2.920   8.667   0.212
16493WAT      O49720   4.688   8.010   7.224
16493WAT     H149721   4.726   7.946   7.158
16493WAT     H249722   4.684   7.967   7.314
16494WAT      O49723   8.709   9.425   1.406
16494WAT     H149724   8.668   9.404   1.495
16494WAT     H249725   8.775   9.354   1.383
16495WAT      O49726   1.204   1.834   8.662
16495WAT     H149727   1.275   1.905   8.674
16495WAT     H249728   1.180   1.827   8.566
16496WAT      O49729   6.051   6.011   3.892
16496WAT     H149730   6.038   5.916   3.920
16496WAT     H249731   6.124   6.052   3.948
16497WAT      O49732   9.423   7.623   5.854
16497WAT     H149733   9.351   7.631   5.923
16497WAT     H249734   9.415   7.535   5.807
16498WAT      O49735   6.424   1.365   9.522
16498WAT     H149736   6.480   1.282   9.522
16498WAT     H249737   6.479   1.443   9.493
16499WAT      O49738   7.514   3.417   1.087
16499WAT     H149739   7.415   3.407   1.078
16499WAT     H249740   7.552   3.448   1.000
16500WAT      O49741   8.879   9.844   3.230
16500WAT     H149742   8.791   9.797   3.242
16500WAT     H249743   8.950   9.794   3.280
16501WAT      O49744   8.469   8.309   4.501
16501WAT     H149745   8.379   8.285   4.539
16501WAT     H249746   8.475   8.277   4.407
16502WAT      O49747   1.196   5.410   3.522
16502WAT     H149748   1.268   5.348   3.489
16502WAT     H249749   1.227   5.504   3.514
16503WAT      O49750   6.385   4.713   7.956
16503WAT     H149751   6.306   4.653   7.945
16503WAT     H249752   6.377   4.792   7.896
16504WAT      O49753   5.557   1.843   6.385
16504WAT     H149754   5.492   1.900   6.436
16504WAT     H249755   5.506   1.778   6.328
16505WAT      O49756   9.377   7.821   8.110
16505WAT     H149757   9.318   7.754   8.064
16505WAT     H249758   9.374   7.907   8.060
16506WAT      O49759   7.440   7.512   6.910
16506WAT     H149760   7.420   7.415   6.922
16506WAT     H249761   7.383   7.565   6.973
16507WAT      O49762   9.851   4.143   6.614
16507WAT     H149763   9.882   4.220   6.558
16507WAT     H249764   9.764   4.110   6.579
16508WAT      O49765   0.329   4.729   7.965
16508WAT     H149766   0.393   4.653   7.959
16508WAT     H249767   0.264   4.713   8.040
16509WAT      O49768   8.772   0.358   1.227
16509WAT     H149769   8.858   0.311   1.249
16509WAT     H249770   8.726   0.385   1.311
16510WAT      O49771   6.718   9.486   7.068
16510WAT     H149772   6.622   9.516   7.070
16510WAT     H249773   6.737   9.443   6.980
16511WAT      O49774   0.827   2.257   5.052
16511WAT     H149775   0.835   2.184   4.985
16511WAT     H249776   0.838   2.219   5.144
16512WAT      O49777   3.471   7.819   9.392
16512WAT     H149778   3.502   7.827   9.487
16512WAT     H249779   3.371   7.824   9.390
16513WAT      O49780   3.305   2.865   6.477
16513WAT     H149781   3.397   2.825   6.478
16513WAT     H249782   3.263   2.855   6.567
16514WAT      O49783   1.960   5.041   8.415
16514WAT     H149784   1.936   5.005   8.505
16514WAT     H249785   2.057   5.024   8.397
16515WAT      O49786   1.602   0.910   8.604
16515WAT     H149787   1.520   0.947   8.560
16515WAT     H249788   1.674   0.898   8.535
16516WAT      O49789   0.585   1.766   3.919
16516WAT     H149790   0.637   1.705   3.979
16516WAT     H249791   0.644   1.798   3.845
16517WAT      O49792   1.629   5.296   0.632
16517WAT     H149793   1.695   5.270   0.561
16517WAT     H249794   1.600   5.215   0.682
16518WAT      O49795   7.183   0.274   8.051
16518WAT     H149796   7.113   0.281   8.123
16518WAT     H249797   7.164   0.342   7.980
16519WAT      O49798   1.502   8.583   9.446
16519WAT     H149799   1.562   8.575   9.366
16519WAT     H249800   1.548   8.638   9.516
16520WAT      O49801   9.530   8.147   4.432
16520WAT     H149802   9.609   8.208   4.426
16520WAT     H249803   9.560   8.053   4.415
16521WAT      O49804   5.716   1.258   5.482
16521WAT     H149805   5.764   1.195   5.420
16521WAT     H249806   5.706   1.215   5.572
16522WAT      O49807   5.853   8.339   6.601
16522WAT     H149808   5.766   8.363   6.559
16522WAT     H249809   5.927   8.387   6.552
16523WAT      O49810   0.867   9.384   4.466
16523WAT     H149811   0.805   9.401   4.390
16523WAT     H249812   0.886   9.470   4.513
16524WAT      O49813   4.524   2.886   1.647
16524WAT     H149814   4.430   2.853   1.655
16524WAT     H249815   4.569   2.881   1.736
16525WAT      O49816   3.207   9.115   0.697
16525WAT     H149817   3.131   9.068   0.742
16525WAT     H249818   3.177   9.206   0.668
16526WAT      O49819   0.781   9.830   7.648
16526WAT     H149820   0.804   9.807   7.553
16526WAT     H249821   0.686   9.860   7.653
16527WAT      O49822   1.155   8.684   4.354
16527WAT     H149823   1.130   8.642   4.267
16527WAT     H249824   1.073   8.713   4.402
16528WAT      O49825   3.067   9.192   2.814
16528WAT     H149826   3.000   9.210   2.742
16528WAT     H249827   3.030   9.222   2.902
16529WAT      O49828   0.143   1.559   5.607
16529WAT     H149829   0.114   1.629   5.542
16529WAT     H249830   0.243   1.558   5.613
16530WAT      O49831   8.159   2.192   4.314
16530WAT     H149832   8.207   2.183   4.227
16530WAT     H249833   8.112   2.106   4.335
16531WAT      O49834   6.893   4.383   4.673
16531WAT     H149835   6.816   4.322   4.695
16531WAT     H249836   6.857   4.472   4.645
16532WAT      O49837   5.764   2.095   7.356
16532WAT     H149838   5.796   2.153   7.281
16532WAT     H249839   5.664   2.102   7.363
16533WAT      O49840   0.117   9.794   7.169
16533WAT     H149841   0.191   9.785   7.103
16533WAT     H249842   0.031   9.811   7.120
16534WAT      O49843   5.729   7.013   5.149
16534WAT     H149844   5.781   6.961   5.218
16534WAT     H249845   5.676   6.949   5.093
16535WAT      O49846   7.832   6.909   2.449
16535WAT     H149847   7.740   6.873   2.465
16535WAT     H249848   7.859   6.889   2.355
16536WAT      O49849   3.282   2.929   3.406
16536WAT     H149850   3.225   2.951   3.486
16536WAT     H249851   3.364   2.881   3.436
16537WAT      O49852   5.240   5.691   1.371
16537WAT     H149853   5.152   5.672   1.328
16537WAT     H249854   5.313   5.647   1.319
16538WAT      O49855   8.612   9.503   4.358
16538WAT     H149856   8.545   9.432   4.380
16538WAT     H249857   8.700   9.480   4.400
16539WAT      O49858   3.990   2.241   9.734
16539WAT     H149859   4.016   2.267   9.640
16539WAT     H249860   4.026   2.150   9.754
16540WAT      O49861   6.917   3.230   9.624
16540WAT     H149862   6.892   3.186   9.711
16540WAT     H249863   6.865   3.189   9.550
16541WAT      O49864   5.471   3.490   6.084
16541WAT     H149865   5.505   3.483   5.991
16541WAT     H249866   5.386   3.543   6.085
16542WAT      O49867   4.022   0.152   3.478
16542WAT     H149868   4.082   0.231   3.485
16542WAT     H249869   4.022   0.118   3.383
16543WAT      O49870   2.580   7.941   3.738
16543WAT     H149871   2.605   8.038   3.736
16543WAT     H249872   2.582   7.909   3.833
16544WAT      O49873   8.308   8.468   1.200
16544WAT     H149874   8.390   8.448   1.147
16544WAT     H249875   8.323   8.551   1.254
16545WAT      O49876   7.290   5.965   5.090
16545WAT     H149877   7.208   5.983   5.144
16545WAT     H249878   7.306   6.041   5.027
16546WAT      O49879   6.529   9.674   1.667
16546WAT     H149880   6.583   9.593   1.692
16546WAT     H249881   6.571   9.756   1.707
16547WAT      O49882   5.200   2.833   1.095
16547WAT     H149883   5.105   2.825   1.065
16547WAT     H249884   5.228   2.929   1.091
16548WAT      O49885   8.233   7.472   3.358
16548WAT     H149886   8.133   7.475   3.362
16548WAT     H249887   8.270   7.561   3.385
16549WAT      O49888   8.426   4.203   0.233
16549WAT     H149889   8.422   4.201   0.133
16549WAT     H249890   8.480   4.124   0.265
16550WAT      O49891   5.479   4.369   3.085
16550WAT     H149892   5.512   4.453   3.128
16550WAT     H249893   5.540   4.293   3.108
16551WAT      O49894   7.166   7.795   7.802
16551WAT     H149895   7.182   7.878   7.749
16551WAT     H249896   7.247   7.736   7.798
16552WAT      O49897   5.244   5.365   6.749
16552WAT     H149898   5.235   5.296   6.678
16552WAT     H249899   5.305   5.331   6.821
16553WAT      O49900   3.634   9.823   7.424
16553WAT     H149901   3.641   9.781   7.333
16553WAT     H249902   3.686   9.908   7.425
16554WAT      O49903   5.596   7.671   7.212
16554WAT     H149904   5.576   7.575   7.233
16554WAT     H249905   5.578   7.688   7.115
16555WAT      O49906   6.932   7.238   5.741
16555WAT     H149907   6.838   7.212   5.718
16555WAT     H249908   6.933   7.330   5.779
16556WAT      O49909   5.632   8.916   4.017
16556WAT     H149910   5.669   8.912   3.924
16556WAT     H249911   5.678   8.989   4.068
16557WAT      O49912   8.334   8.635   3.616
16557WAT     H149913   8.398   8.652   3.541
16557WAT     H249914   8.304   8.540   3.612
16558WAT      O49915   6.503   7.532   6.118
16558WAT     H149916   6.460   7.528   6.208
16558WAT     H249917   6.532   7.626   6.099
16559WAT      O49918   5.070   3.464   9.170
16559WAT     H149919   5.056   3.472   9.071
16559WAT     H249920   4.982   3.477   9.217
16560WAT      O49921   6.700   0.212   9.247
16560WAT     H149922   6.642   0.145   9.293
16560WAT     H249923   6.643   0.277   9.197
16561WAT      O49924   9.350   6.089   5.563
16561WAT     H149925   9.406   6.158   5.516
16561WAT     H249926   9.377   5.998   5.533
16562WAT      O49927   3.278   6.889   6.834
16562WAT     H149928   3.248   6.979   6.865
16562WAT     H249929   3.301   6.892   6.737
16563WAT      O49930   8.483   3.568   5.469
16563WAT     H149931   8.417   3.574   5.395
16563WAT     H249932   8.435   3.558   5.556
16564WAT      O49933   9.880   1.435   0.906
16564WAT     H149934   9.870   1.522   0.952
16564WAT     H249935   9.938   1.446   0.825
16565WAT      O49936   1.568   2.491   1.057
16565WAT     H149937   1.600   2.397   1.046
16565WAT     H249938   1.586   2.521   1.151
16566WAT      O49939   4.916   7.423   1.018
16566WAT     H149940   4.998   7.471   0.988
16566WAT     H249941   4.837   7.458   0.968
16567WAT      O49942   1.959   1.540   6.092
16567WAT     H149943   1.962   1.630   6.049
16567WAT     H249944   2.031   1.482   6.054
16568WAT      O49945   7.622   3.075   1.267
16568WAT     H149946   7.589   3.094   1.174
16568WAT     H249947   7.648   3.161   1.311
16569WAT      O49948   5.300   3.369   9.223
16569WAT     H149949   5.300   3.323   9.312
16569WAT     H249950   5.207   3.397   9.201
16570WAT      O49951   5.529   6.582   2.266
16570WAT     H149952   5.457   6.575   2.197
16570WAT     H249953   5.496   6.636   2.344
16571WAT      O49954   3.844   9.486   8.804
16571WAT     H149955   3.792   9.544   8.742
16571WAT     H249956   3.793   9.401   8.821
16572WAT      O49957   3.639   2.029   2.636
16572WAT     H149958   3.622   2.110   2.580
16572WAT     H249959   3.705   1.970   2.590
16573WAT      O49960   9.459   9.240   9.605
16573WAT     H149961   9.413   9.292   9.532
16573WAT     H249962   9.428   9.145   9.602
16574WAT      O49963   0.994   1.938   2.105
16574WAT     H149964   0.940   2.019   2.081
16574WAT     H249965   0.953   1.857   2.063
16575WAT      O49966   3.239   9.618   6.368
16575WAT     H149967   3.189   9.630   6.453
16575WAT     H249968   3.336   9.640   6.382
16576WAT      O49969   0.033   5.334   9.468
16576WAT     H149970  -0.042   5.306   9.528
16576WAT     H249971   0.064   5.425   9.494
16577WAT      O49972   0.671   0.888   9.253
16577WAT     H149973   0.593   0.947   9.232
16577WAT     H249974   0.646   0.792   9.237
16578WAT      O49975   4.945   4.957   3.312
16578WAT     H149976   4.930   5.028   3.244
16578WAT     H249977   5.004   4.886   3.273
16579WAT      O49978   6.644   6.433   2.538
16579WAT     H149979   6.726   6.409   2.589
16579WAT     H249980   6.667   6.500   2.467
16580WAT      O49981   3.335   5.961   9.821
16580WAT     H149982   3.315   6.035   9.885
16580WAT     H249983   3.421   5.980   9.774
16581WAT      O49984   0.662   5.041   2.155
16581WAT     H149985   0.569   5.034   2.190
16581WAT     H249986   0.715   5.102   2.213
16582WAT      O49987   1.607   1.996   6.046
16582WAT     H149988   1.523   1.983   6.099
16582WAT     H249989   1.675   2.043   6.102
16583WAT      O49990   6.390   6.637   4.372
16583WAT     H149991   6.490   6.637   4.366
16583WAT     H249992   6.352   6.580   4.300
16584WAT      O49993   1.723   1.393   2.603
16584WAT     H149994   1.800   1.417   2.662
16584WAT     H249995   1.714   1.293   2.599
16585WAT      O49996   4.508   7.395   6.378
16585WAT     H149997   4.474   7.324   6.439
16585WAT     H249998   4.572   7.356   6.312
16586WAT      O49999   7.144   2.543   2.259
16586WAT     H150000   7.202   2.494   2.324
16586WAT     H250001   7.051   2.507   2.264
16587WAT      O50002   6.273   3.757   2.891
16587WAT     H150003   6.332   3.691   2.937
16587WAT     H250004   6.286   3.750   2.792
16588WAT      O50005   7.292   1.466   9.863
16588WAT     H150006   7.386   1.454   9.829
16588WAT     H250007   7.293   1.469   9.963
16589WAT      O50008   3.105   8.501   8.056
16589WAT     H150009   3.024   8.551   8.027
16589WAT     H250010   3.078   8.426   8.117
16590WAT      O50011   1.874   8.449   0.579
16590WAT     H150012   1.941   8.522   0.593
16590WAT     H250013   1.899   8.370   0.635
16591WAT      O50014   6.390   5.667   6.397
16591WAT     H150015   6.452   5.733   6.356
16591WAT     H250016   6.416   5.651   6.492
16592WAT      O50017   3.995   9.512   5.868
16592WAT     H150018   4.045   9.458   5.935
16592WAT     H250019   4.039   9.601   5.857
16593WAT      O50020   6.583   9.296   6.624
16593WAT     H150021   6.495   9.250   6.632
16593WAT     H250022   6.575   9.375   6.564
16594WAT      O50023   6.301   6.056   6.897
16594WAT     H150024   6.314   6.144   6.851
16594WAT     H250025   6.218   6.059   6.953
16595WAT      O50026   4.367   5.836   9.344
16595WAT     H150027   4.367   5.841   9.244
16595WAT     H250028   4.333   5.922   9.381
16596WAT      O50029   1.357   6.615   2.908
16596WAT     H150030   1.422   6.664   2.850
16596WAT     H250031   1.267   6.616   2.866
16597WAT      O50032   6.355   0.721   0.566
16597WAT     H150033   6.411   0.777   0.505
16597WAT     H250034   6.373   0.746   0.661
16598WAT      O50035   1.941   5.722   8.609
16598WAT     H150036   1.927   5.700   8.705
16598WAT     H250037   1.993   5.648   8.565
16599WAT      O50038   8.815   6.356   6.842
16599WAT     H150039   8.740   6.319   6.897
16599WAT     H250040   8.798   6.452   6.823
16600WAT      O50041   4.979   5.798   8.575
16600WAT     H150042   4.905   5.775   8.512
16600WAT     H250043   5.054   5.841   8.524
16601WAT      O50044   9.018   1.135   8.311
16601WAT     H150045   8.937   1.172   8.266
16601WAT     H250046   9.089   1.205   8.317
16602WAT      O50047   6.287   3.152   3.058
16602WAT     H150048   6.310   3.171   3.154
16602WAT     H250049   6.268   3.054   3.047
16603WAT      O50050   7.986   3.793   6.012
16603WAT     H150051   7.966   3.700   6.040
16603WAT     H250052   7.910   3.829   5.958
16604WAT      O50053   4.495   3.735   9.376
16604WAT     H150054   4.563   3.663   9.391
16604WAT     H250055   4.410   3.695   9.344
16605WAT      O50056   9.567   6.356   8.758
16605WAT     H150057   9.508   6.410   8.698
16605WAT     H250058   9.650   6.407   8.779
16606WAT      O50059   5.541   5.873   4.541
16606WAT     H150060   5.536   5.842   4.446
16606WAT     H250061   5.540   5.793   4.602
16607WAT      O50062   9.652   1.246   7.281
16607WAT     H150063   9.625   1.263   7.376
16607WAT     H250064   9.608   1.162   7.250
16608WAT      O50065   6.734   7.304   9.389
16608WAT     H150066   6.734   7.217   9.341
16608WAT     H250067   6.679   7.370   9.340
16609WAT      O50068   0.203   2.668   6.375
16609WAT     H150069   0.147   2.595   6.336
16609WAT     H250070   0.234   2.641   6.466
16610WAT      O50071   4.655   6.936   4.520
16610WAT     H150072   4.577   6.935   4.457
16610WAT     H250073   4.675   7.030   4.546
16611WAT      O50074   9.431   7.934   1.484
16611WAT     H150075   9.349   7.960   1.535
16611WAT     H250076   9.491   7.880   1.544
16612WAT      O50077   7.847   8.438   4.473
16612WAT     H150078   7.765   8.393   4.437
16612WAT     H250079   7.883   8.502   4.405
16613WAT      O50080   8.353   7.910   1.707
16613WAT     H150081   8.280   7.841   1.711
16613WAT     H250082   8.419   7.886   1.636
16614WAT      O50083   1.617   1.310   1.590
16614WAT     H150084   1.707   1.266   1.601
16614WAT     H250085   1.555   1.246   1.545
16615WAT      O50086   4.692   8.634   9.707
16615WAT     H150087   4.603   8.623   9.752
16615WAT     H250088   4.686   8.599   9.614
16616WAT      O50089   8.049   0.560   7.171
16616WAT     H150090   8.133   0.556   7.118
16616WAT     H250091   7.995   0.477   7.155
16617WAT      O50092   9.071   3.356   4.228
16617WAT     H150093   9.141   3.382   4.295
16617WAT     H250094   9.072   3.257   4.216
16618WAT      O50095   6.622   5.477   6.103
16618WAT     H150096   6.705   5.530   6.088
16618WAT     H250097   6.542   5.533   6.078
16619WAT      O50098   1.167   2.351   6.239
16619WAT     H150099   1.134   2.258   6.259
16619WAT     H250100   1.265   2.355   6.257
16620WAT      O50101   8.027   4.292   3.620
16620WAT     H150102   8.016   4.311   3.522
16620WAT     H250103   7.937   4.275   3.661
16621WAT      O50104   4.723   2.106   7.136
16621WAT     H150105   4.670   2.185   7.170
16621WAT     H250106   4.816   2.136   7.114
16622WAT      O50107   4.220   2.730   2.652
16622WAT     H150108   4.302   2.674   2.665
16622WAT     H250109   4.168   2.735   2.738
16623WAT      O50110   6.347   2.477   8.710
16623WAT     H150111   6.377   2.565   8.746
16623WAT     H250112   6.270   2.443   8.765
16624WAT      O50113   1.590   3.593   3.579
16624WAT     H150114   1.654   3.518   3.564
16624WAT     H250115   1.641   3.676   3.604
16625WAT      O50116   7.087   1.962   6.962
16625WAT     H150117   7.156   1.932   7.028
16625WAT     H250118   7.000   1.916   6.982
16626WAT      O50119   6.176   4.825   4.928
16626WAT     H150120   6.202   4.732   4.901
16626WAT     H250121   6.182   4.834   5.027
16627WAT      O50122   7.750   5.363   2.862
16627WAT     H150123   7.803   5.382   2.779
16627WAT     H250124   7.739   5.264   2.872
16628WAT      O50125   3.024   1.247   8.623
16628WAT     H150126   3.120   1.229   8.642
16628WAT     H250127   2.987   1.175   8.563
16629WAT      O50128   8.136   2.995   8.744
16629WAT     H150129   8.122   2.906   8.702
16629WAT     H250130   8.179   3.057   8.679
16630WAT      O50131   4.970   2.218   2.410
16630WAT     H150132   5.019   2.190   2.493
16630WAT     H250133   4.989   2.315   2.392
16631WAT      O50134   0.956   7.941   4.397
16631WAT     H150135   1.055   7.951   4.407
16631WAT     H250136   0.936   7.860   4.342
16632WAT      O50137   8.517   7.542   3.449
16632WAT     H150138   8.583   7.483   3.404
16632WAT     H250139   8.480   7.607   3.383
16633WAT      O50140   2.159   5.988   2.737
16633WAT     H150141   2.086   5.930   2.700
16633WAT     H250142   2.119   6.065   2.786
16634WAT      O50143   6.608   3.056   8.924
16634WAT     H150144   6.675   3.021   8.989
16634WAT     H250145   6.653   3.083   8.839
16635WAT      O50146   3.380   1.207   1.506
16635WAT     H150147   3.475   1.232   1.484
16635WAT     H250148   3.322   1.226   1.428
16636WAT      O50149   6.978   0.310   3.445
16636WAT     H150150   6.917   0.329   3.523
16636WAT     H250151   6.986   0.211   3.432
16637WAT      O50152   0.313   5.504   1.506
16637WAT     H150153   0.247   5.536   1.438
16637WAT     H250154   0.285   5.536   1.597
16638WAT      O50155   4.260   0.823   4.528
16638WAT     H150156   4.170   0.819   4.484
16638WAT     H250157   4.304   0.734   4.521
16639WAT      O50158   7.160   8.169   5.532
16639WAT     H150159   7.192   8.178   5.626
16639WAT     H250160   7.061   8.153   5.531
16640WAT      O50161   9.675   8.732   3.856
16640WAT     H150162   9.765   8.773   3.870
16640WAT     H250163   9.672   8.689   3.766
16641WAT      O50164   6.316   3.571   1.106
16641WAT     H150165   6.351   3.540   1.195
16641WAT     H250166   6.278   3.492   1.057
16642WAT      O50167   8.903   9.825   6.087
16642WAT     H150168   8.998   9.847   6.107
16642WAT     H250169   8.892   9.726   6.078
16643WAT      O50170   3.179   9.577   9.826
16643WAT     H150171   3.145   9.557   9.917
16643WAT     H250172   3.126   9.526   9.758
16644WAT      O50173   3.976   5.499   8.994
16644WAT     H150174   4.006   5.590   9.024
16644WAT     H250175   3.939   5.506   8.901
16645WAT      O50176   6.669   7.830   7.335
16645WAT     H150177   6.627   7.771   7.404
16645WAT     H250178   6.638   7.802   7.244
16646WAT      O50179   0.152   6.024   4.178
16646WAT     H150180   0.227   5.971   4.218
16646WAT     H250181   0.161   6.120   4.205
16647WAT      O50182   2.797   8.661   8.953
16647WAT     H150183   2.806   8.732   8.883
16647WAT     H250184   2.847   8.579   8.924
16648WAT      O50185   0.121   5.540   1.035
16648WAT     H150186   0.039   5.597   1.030
16648WAT     H250187   0.196   5.586   0.988
16649WAT      O50188   0.809   9.748   8.685
16649WAT     H150189   0.783   9.828   8.740
16649WAT     H250190   0.833   9.673   8.746
16650WAT      O50191   0.317   4.779   4.988
16650WAT     H150192   0.409   4.742   4.990
16650WAT     H250193   0.320   4.879   5.000
16651WAT      O50194   0.347   8.309   0.900
16651WAT     H150195   0.416   8.333   0.969
16651WAT     H250196   0.391   8.302   0.810
16652WAT      O50197   6.904   8.340   4.212
16652WAT     H150198   7.004   8.346   4.217
16652WAT     H250199   6.864   8.415   4.265
16653WAT      O50200   4.123   9.055   2.115
16653WAT     H150201   4.219   9.032   2.129
16653WAT     H250202   4.069   8.971   2.114
16654WAT      O50203   3.332   7.410   0.800
16654WAT     H150204   3.261   7.479   0.787
16654WAT     H250205   3.345   7.393   0.898
16655WAT      O50206   8.929   0.793   9.194
16655WAT     H150207   8.970   0.702   9.189
16655WAT     H250208   8.945   0.831   9.286
16656WAT      O50209   2.334   1.027   2.543
16656WAT     H150210   2.291   1.105   2.496
16656WAT     H250211   2.361   1.054   2.635
16657WAT      O50212   5.790   2.293   5.517
16657WAT     H150213   5.744   2.236   5.449
16657WAT     H250214   5.727   2.313   5.592
16658WAT      O50215   6.568   6.755   1.139
16658WAT     H150216   6.629   6.787   1.066
16658WAT     H250217   6.484   6.720   1.098
16659WAT      O50218   1.832   0.888   9.188
16659WAT     H150219   1.855   0.979   9.221
16659WAT     H250220   1.734   0.885   9.164
16660WAT      O50221   4.811   2.629   2.400
16660WAT     H150222   4.711   2.630   2.400
16660WAT     H250223   4.845   2.655   2.310
16661WAT      O50224   8.241   0.330   3.772
16661WAT     H150225   8.198   0.247   3.809
16661WAT     H250226   8.248   0.323   3.673
16662WAT      O50227   1.001   5.587   6.570
16662WAT     H150228   1.004   5.522   6.645
16662WAT     H250229   1.007   5.680   6.606
16663WAT      O50230   5.682   5.582   4.598
16663WAT     H150231   5.599   5.529   4.581
16663WAT     H250232   5.762   5.530   4.566
16664WAT      O50233   0.751   0.284   5.633
16664WAT     H150234   0.726   0.223   5.558
16664WAT     H250235   0.679   0.351   5.647
16665WAT      O50236   1.638   7.325   8.045
16665WAT     H150237   1.585   7.396   7.999
16665WAT     H250238   1.672   7.360   8.132
16666WAT      O50239   4.680   5.640   1.812
16666WAT     H150240   4.638   5.720   1.854
16666WAT     H250241   4.737   5.668   1.735
16667WAT      O50242   9.259   3.629   0.861
16667WAT     H150243   9.252   3.671   0.951
16667WAT     H250244   9.237   3.697   0.790
16668WAT      O50245   2.298   6.109   8.970
16668WAT     H150246   2.255   6.199   8.962
16668WAT     H250247   2.374   6.103   8.906
16669WAT      O50248   5.515   1.938   5.577
16669WAT     H150249   5.455   1.929   5.656
16669WAT     H250250   5.599   1.887   5.594
16670WAT      O50251   9.563   0.450   4.674
16670WAT     H150252   9.478   0.491   4.707
16670WAT     H250253   9.575   0.471   4.577
16671WAT      O50254   7.630   0.553   4.088
16671WAT     H150255   7.591   0.515   4.172
16671WAT     H250256   7.729   0.538   4.088
16672WAT      O50257   7.263   7.430   1.254
16672WAT     H150258   7.239   7.333   1.251
16672WAT     H250259   7.323   7.447   1.333
16673WAT      O50260   7.103   3.498   4.952
16673WAT     H150261   7.035   3.556   4.995
16673WAT     H250262   7.184   3.492   5.011
16674WAT      O50263   1.905   0.118   9.766
16674WAT     H150264   1.954   0.031   9.768
16674WAT     H250265   1.887   0.145   9.672
16675WAT      O50266   4.847   0.601   0.368
16675WAT     H150267   4.852   0.698   0.343
16675WAT     H250268   4.754   0.578   0.393
16676WAT      O50269   6.517   2.921   3.609
16676WAT     H150270   6.428   2.959   3.588
16676WAT     H250271   6.516   2.822   3.594
16677WAT      O50272   3.519   7.587   7.551
16677WAT     H150273   3.534   7.492   7.524
16677WAT     H250274   3.422   7.604   7.565
16678WAT      O50275   1.904   9.148   3.994
16678WAT     H150276   1.941   9.153   4.087
16678WAT     H250277   1.851   9.231   3.975
16679WAT      O50278   1.258   8.183   0.746
16679WAT     H150279   1.179   8.198   0.806
16679WAT     H250280   1.242   8.104   0.688
16680WAT      O50281   4.501   5.668   7.326
16680WAT     H150282   4.491   5.578   7.282
16680WAT     H250283   4.587   5.669   7.378
16681WAT      O50284   1.666   8.692   2.090
16681WAT     H150285   1.690   8.789   2.087
16681WAT     H250286   1.635   8.668   2.182
16682WAT      O50287   2.794   0.042   2.595
16682WAT     H150288   2.860   0.059   2.668
16682WAT     H250289   2.707   0.085   2.618
16683WAT      O50290   2.591   6.814   0.430
16683WAT     H150291   2.685   6.786   0.454
16683WAT     H250292   2.592   6.907   0.394
16684WAT      O50293   5.728   4.294   5.610
16684WAT     H150294   5.703   4.389   5.592
16684WAT     H250295   5.826   4.287   5.625
16685WAT      O50296   2.713   5.245   4.190
16685WAT     H150297   2.687   5.180   4.118
16685WAT     H250298   2.712   5.338   4.152
16686WAT      O50299   3.781   9.098   3.572
16686WAT     H150300   3.861   9.095   3.631
16686WAT     H250301   3.729   9.182   3.590
16687WAT      O50302   3.817   6.322   0.776
16687WAT     H150303   3.905   6.277   0.758
16687WAT     H250304   3.757   6.311   0.697
16688WAT      O50305   5.598   4.073   5.395
16688WAT     H150306   5.587   4.147   5.461
16688WAT     H250307   5.651   4.106   5.316
16689WAT      O50308   5.786   1.781   7.631
16689WAT     H150309   5.809   1.819   7.542
16689WAT     H250310   5.757   1.686   7.621
16690WAT      O50311   4.107   5.691   6.896
16690WAT     H150312   4.125   5.624   6.967
16690WAT     H250313   4.189   5.747   6.882
16691WAT      O50314   8.007   2.605   5.700
16691WAT     H150315   8.103   2.623   5.680
16691WAT     H250316   7.974   2.669   5.769
16692WAT      O50317   9.427   6.675   0.137
16692WAT     H150318   9.367   6.716   0.206
16692WAT     H250319   9.490   6.611   0.181
16693WAT      O50320   7.859   2.306   1.040
16693WAT     H150321   7.812   2.315   0.952
16693WAT     H250322   7.843   2.214   1.077
16694WAT      O50323   4.381   2.461   3.479
16694WAT     H150324   4.300   2.453   3.536
16694WAT     H250325   4.382   2.387   3.411
16695WAT      O50326   8.595   8.271   5.996
16695WAT     H150327   8.499   8.243   5.995
16695WAT     H250328   8.625   8.290   5.903
16696WAT      O50329   0.064   1.447   2.456
16696WAT     H150330   0.086   1.497   2.540
16696WAT     H250331  -0.033   1.454   2.437
16697WAT      O50332   4.454   5.557   3.258
16697WAT     H150333   4.451   5.636   3.196
16697WAT     H250334   4.397   5.484   3.222
16698WAT      O50335   2.825   0.467   5.398
16698WAT     H150336   2.893   0.487   5.469
16698WAT     H250337   2.838   0.528   5.320
16699WAT      O50338   4.927   8.752   8.566
16699WAT     H150339   4.866   8.820   8.607
16699WAT     H250340   4.908   8.745   8.468
16700WAT      O50341   2.740   3.640   9.636
16700WAT     H150342   2.696   3.720   9.679
16700WAT     H250343   2.745   3.654   9.537
16701WAT      O50344   8.534   7.392   6.404
16701WAT     H150345   8.499   7.364   6.493
16701WAT     H250346   8.518   7.320   6.337
16702WAT      O50347   5.564   0.118   4.273
16702WAT     H150348   5.519   0.196   4.227
16702WAT     H250349   5.658   0.111   4.241
16703WAT      O50350   3.031   6.513   1.350
16703WAT     H150351   2.941   6.477   1.376
16703WAT     H250352   3.019   6.590   1.288
16704WAT      O50353   6.897   8.683   3.774
16704WAT     H150354   6.950   8.598   3.775
16704WAT     H250355   6.883   8.713   3.680
16705WAT      O50356   9.268   7.953   6.365
16705WAT     H150357   9.283   7.955   6.464
16705WAT     H250358   9.287   8.044   6.326
16706WAT      O50359   3.754   2.471   2.158
16706WAT     H150360   3.696   2.548   2.183
16706WAT     H250361   3.791   2.486   2.066
16707WAT      O50362   4.819   5.417   1.623
16707WAT     H150363   4.739   5.438   1.680
16707WAT     H250364   4.889   5.374   1.679
16708WAT      O50365   8.917   6.739   7.692
16708WAT     H150366   8.931   6.731   7.791
16708WAT     H250367   8.994   6.699   7.644
16709WAT      O50368   7.617   5.697   9.008
16709WAT     H150369   7.530   5.661   8.976
16709WAT     H250370   7.666   5.627   9.060
16710WAT      O50371   8.306   7.729   3.403
16710WAT     H150372   8.287   7.773   3.491
16710WAT     H250373   8.365   7.789   3.349
16711WAT      O50374   6.362   5.881   5.319
16711WAT     H150375   6.394   5.890   5.224
16711WAT     H250376   6.300   5.957   5.341
16712WAT      O50377   2.843   8.905   0.581
16712WAT     H150378   2.823   8.809   0.562
16712WAT     H250379   2.931   8.929   0.541
16713WAT      O50380   0.395   7.621   7.461
16713WAT     H150381   0.428   7.579   7.376
16713WAT     H250382   0.461   7.689   7.492
16714WAT      O50383   5.354   2.829   7.386
16714WAT     H150384   5.332   2.922   7.357
16714WAT     H250385   5.391   2.831   7.479
16715WAT      O50386   4.747   6.481   5.864
16715WAT     H150387   4.725   6.574   5.893
16715WAT     H250388   4.725   6.417   5.937
16716WAT      O50389   2.968   8.582   5.007
16716WAT     H150390   2.969   8.490   4.968
16716WAT     H250391   2.987   8.648   4.935
16717WAT      O50392   3.422   7.704   0.831
16717WAT     H150393   3.510   7.671   0.795
16717WAT     H250394   3.438   7.787   0.886
16718WAT      O50395   4.060   7.324   2.491
16718WAT     H150396   4.153   7.304   2.460
16718WAT     H250397   4.062   7.345   2.589
16719WAT      O50398   2.162   9.841   0.169
16719WAT     H150399   2.090   9.773   0.158
16719WAT     H250400   2.251   9.797   0.151
16720WAT      O50401   5.829   0.326   7.737
16720WAT     H150402   5.913   0.362   7.694
16720WAT     H250403   5.812   0.234   7.703
16721WAT      O50404   7.073   1.416   4.870
16721WAT     H150405   7.126   1.332   4.864
16721WAT     H250406   7.057   1.439   4.966
16722WAT      O50407   2.991   6.503   0.532
16722WAT     H150408   2.996   6.454   0.445
16722WAT     H250409   3.080   6.500   0.577
16723WAT      O50410   3.223   1.062   0.907
16723WAT     H150411   3.318   1.039   0.925
16723WAT     H250412   3.215   1.161   0.890
16724WAT      O50413   5.897   8.379   2.839
16724WAT     H150414   5.909   8.280   2.849
16724WAT     H250415   5.890   8.421   2.929
16725WAT      O50416   7.903   3.405   8.341
16725WAT     H150417   7.825   3.417   8.280
16725WAT     H250418   7.983   3.376   8.289
16726WAT      O50419   8.616   3.238   0.862
16726WAT     H150420   8.670   3.155   0.878
16726WAT     H250421   8.526   3.228   0.903
16727WAT      O50422   6.776   7.133   5.351
16727WAT     H150423   6.728   7.082   5.280
16727WAT     H250424   6.751   7.230   5.345
16728WAT      O50425   3.471   7.411   1.864
16728WAT     H150426   3.502   7.316   1.854
16728WAT     H250427   3.422   7.439   1.781
16729WAT      O50428   2.245   4.995   4.410
16729WAT     H150429   2.284   4.951   4.490
16729WAT     H250430   2.312   5.058   4.370
16730WAT      O50431   1.180   9.048   6.433
16730WAT     H150432   1.164   8.961   6.386
16730WAT     H250433   1.276   9.074   6.423
16731WAT      O50434   2.624   6.261   5.088
16731WAT     H150435   2.586   6.344   5.130
16731WAT     H250436   2.643   6.194   5.160
16732WAT      O50437   1.548   2.520   7.979
16732WAT     H150438   1.510   2.441   8.029
16732WAT     H250439   1.571   2.492   7.885
16733WAT      O50440   8.523   1.385   9.096
16733WAT     H150441   8.613   1.427   9.084
16733WAT     H250442   8.479   1.423   9.178
16734WAT      O50443   6.480   3.159   2.431
16734WAT     H150444   6.543   3.133   2.504
16734WAT     H250445   6.466   3.081   2.370
16735WAT      O50446   9.077   3.960   9.321
16735WAT     H150447   9.049   3.938   9.228
16735WAT     H250448   8.999   3.998   9.372
16736WAT      O50449   1.896   1.914   6.337
16736WAT     H150450   1.985   1.888   6.374
16736WAT     H250451   1.837   1.834   6.334
16737WAT      O50452   6.191   5.596   4.209
16737WAT     H150453   6.269   5.538   4.233
16737WAT     H250454   6.161   5.574   4.116
16738WAT      O50455   8.691   3.323   1.938
16738WAT     H150456   8.754   3.399   1.954
16738WAT     H250457   8.743   3.239   1.927
16739WAT      O50458   4.781   7.738   1.360
16739WAT     H150459   4.755   7.646   1.389
16739WAT     H250460   4.872   7.736   1.321
16740WAT      O50461   3.158   6.324   6.264
16740WAT     H150462   3.239   6.317   6.322
16740WAT     H250463   3.076   6.315   6.320
16741WAT      O50464   5.857   3.548   7.941
16741WAT     H150465   5.789   3.596   7.886
16741WAT     H250466   5.895   3.472   7.889
16742WAT      O50467   0.548   4.707   8.204
16742WAT     H150468   0.620   4.662   8.153
16742WAT     H250469   0.468   4.647   8.208
16743WAT      O50470   0.277   1.365   7.411
16743WAT     H150471   0.295   1.309   7.492
16743WAT     H250472   0.305   1.459   7.428
16744WAT      O50473   1.217   7.267   1.183
16744WAT     H150474   1.238   7.218   1.099
16744WAT     H250475   1.268   7.353   1.185
16745WAT      O50476   0.552   1.673   9.190
16745WAT     H150477   0.531   1.751   9.249
16745WAT     H250478   0.648   1.648   9.202
16746WAT      O50479   2.316   9.155   3.454
16746WAT     H150480   2.381   9.185   3.524
16746WAT     H250481   2.353   9.178   3.363
16747WAT      O50482   0.646   7.022   0.962
16747WAT     H150483   0.710   7.065   0.899
16747WAT     H250484   0.568   7.082   0.978
16748WAT      O50485   7.528   2.079   1.673
16748WAT     H150486   7.538   2.011   1.600
16748WAT     H250487   7.509   2.168   1.633
16749WAT      O50488   5.108   3.565   1.595
16749WAT     H150489   5.081   3.552   1.500
16749WAT     H250490   5.035   3.614   1.644
16750WAT      O50491   5.014   1.167   1.577
16750WAT     H150492   5.061   1.085   1.547
16750WAT     H250493   4.923   1.171   1.535
16751WAT      O50494   9.129   8.342   7.103
16751WAT     H150495   9.206   8.401   7.078
16751WAT     H250496   9.162   8.248   7.114
16752WAT      O50497   5.459   9.161   3.372
16752WAT     H150498   5.477   9.066   3.348
16752WAT     H250499   5.476   9.219   3.292
16753WAT      O50500   4.286   5.238   2.927
16753WAT     H150501   4.281   5.223   2.828
16753WAT     H250502   4.206   5.197   2.971
16754WAT      O50503   4.319   7.553   2.512
16754WAT     H150504   4.364   7.600   2.436
16754WAT     H250505   4.263   7.619   2.563
16755WAT      O50506   4.638   5.870   2.382
16755WAT     H150507   4.694   5.952   2.391
16755WAT     H250508   4.548   5.895   2.344
16756WAT      O50509   5.603   4.826   4.832
16756WAT     H150510   5.697   4.804   4.806
16756WAT     H250511   5.598   4.842   4.930
16757WAT      O50512   7.433   9.019   2.161
16757WAT     H150513   7.377   9.034   2.243
16757WAT     H250514   7.373   9.009   2.081
16758WAT      O50515   6.572   4.495   4.987
16758WAT     H150516   6.593   4.446   5.072
16758WAT     H250517   6.516   4.575   5.008
16759WAT      O50518   1.022   7.532   6.054
16759WAT     H150519   0.951   7.550   5.986
16759WAT     H250520   1.107   7.576   6.025
16760WAT      O50521   9.519   2.667   2.783
16760WAT     H150522   9.523   2.647   2.881
16760WAT     H250523   9.535   2.764   2.769
16761WAT      O50524   2.137   3.915   8.377
16761WAT     H150525   2.070   3.958   8.437
16761WAT     H250526   2.099   3.829   8.342
16762WAT      O50527   8.245   8.095   5.722
16762WAT     H150528   8.277   8.124   5.813
16762WAT     H250529   8.198   8.007   5.730
16763WAT      O50530   3.488   1.575   9.342
16763WAT     H150531   3.530   1.616   9.424
16763WAT     H250532   3.490   1.475   9.351
16764WAT      O50533   4.460   3.973   2.811
16764WAT     H150534   4.434   3.884   2.849
16764WAT     H250535   4.522   3.959   2.733
16765WAT      O50536   9.021   9.686   7.959
16765WAT     H150537   9.066   9.768   7.995
16765WAT     H250538   8.929   9.678   7.999
16766WAT      O50539   1.014   5.886   4.297
16766WAT     H150540   0.952   5.964   4.291
16766WAT     H250541   1.035   5.868   4.393
16767WAT      O50542   3.715   1.295   2.267
16767WAT     H150543   3.715   1.203   2.305
16767WAT     H250544   3.672   1.359   2.331
16768WAT      O50545   2.927   1.246   8.924
16768WAT     H150546   2.966   1.235   9.016
16768WAT     H250547   2.999   1.266   8.859
16769WAT      O50548   1.302   4.041   8.399
16769WAT     H150549   1.294   4.138   8.423
16769WAT     H250550   1.254   4.024   8.313
16770WAT      O50551   7.752   9.065   3.798
16770WAT     H150552   7.805   8.989   3.759
16770WAT     H250553   7.681   9.093   3.733
16771WAT      O50554   0.821   9.440   9.854
16771WAT     H150555   0.896   9.414   9.915
16771WAT     H250556   0.805   9.367   9.788
16772WAT      O50557   8.178   6.874   8.621
16772WAT     H150558   8.126   6.813   8.562
16772WAT     H250559   8.149   6.862   8.716
16773WAT      O50560   6.361   5.005   8.906
16773WAT     H150561   6.409   5.067   8.968
16773WAT     H250562   6.291   4.954   8.957
16774WAT      O50563   6.012   9.399   6.603
16774WAT     H150564   5.964   9.376   6.687
16774WAT     H250565   5.946   9.432   6.535
16775WAT      O50566   2.825   0.114   4.626
16775WAT     H150567   2.792   0.171   4.701
16775WAT     H250568   2.835   0.019   4.657
16776WAT      O50569   9.451   1.619   3.997
16776WAT     H150570   9.482   1.705   4.038
16776WAT     H250571   9.500   1.604   3.911
16777WAT      O50572   0.942   5.379   9.168
16777WAT     H150573   0.849   5.414   9.151
16777WAT     H250574   0.939   5.310   9.240
16778WAT      O50575   2.948   4.289   3.645
16778WAT     H150576   2.917   4.320   3.734
16778WAT     H250577   2.883   4.221   3.609
16779WAT      O50578   9.500   1.026   1.692
16779WAT     H150579   9.563   1.062   1.761
16779WAT     H250580   9.549   1.012   1.606
16780WAT      O50581   4.662   8.329   5.511
16780WAT     H150582   4.620   8.256   5.457
16780WAT     H250583   4.762   8.323   5.503
16781WAT      O50584   9.383   2.751   8.118
16781WAT     H150585   9.307   2.748   8.054
16781WAT     H250586   9.423   2.660   8.126
16782WAT      O50587   0.979   5.311   2.120
16782WAT     H150588   1.012   5.400   2.154
16782WAT     H250589   0.908   5.277   2.181
16783WAT      O50590   5.634   4.511   6.963
16783WAT     H150591   5.653   4.609   6.961
16783WAT     H250592   5.704   4.462   6.911
16784WAT      O50593   9.362   2.939   2.988
16784WAT     H150594   9.313   2.881   3.054
16784WAT     H250595   9.298   2.968   2.917
16785WAT      O50596   8.676   1.358   7.994
16785WAT     H150597   8.770   1.364   7.960
16785WAT     H250598   8.621   1.431   7.955
16786WAT      O50599   2.179   7.471   4.261
16786WAT     H150600   2.210   7.530   4.187
16786WAT     H250601   2.156   7.381   4.225
16787WAT      O50602   4.760   3.007   0.322
16787WAT     H150603   4.728   3.063   0.246
16787WAT     H250604   4.696   3.014   0.398
16788WAT      O50605   3.879   6.526   1.366
16788WAT     H150606   3.900   6.573   1.280
16788WAT     H250607   3.953   6.461   1.387
16789WAT      O50608   9.128   3.187   8.553
16789WAT     H150609   9.162   3.227   8.638
16789WAT     H250610   9.183   3.107   8.530
16790WAT      O50611   1.358   6.241   4.162
16790WAT     H150612   1.395   6.203   4.078
16790WAT     H250613   1.307   6.170   4.211
16791WAT      O50614   6.503   8.678   6.912
16791WAT     H150615   6.418   8.629   6.890
16791WAT     H250616   6.557   8.623   6.975
16792WAT      O50617   0.296   4.144   0.004
16792WAT     H150618   0.229   4.182   0.068
16792WAT     H250619   0.251   4.079  -0.056
16793WAT      O50620   2.660   3.509   2.064
16793WAT     H150621   2.735   3.485   2.003
16793WAT     H250622   2.575   3.467   2.031
16794WAT      O50623   0.770   0.174   3.006
16794WAT     H150624   0.690   0.224   2.972
16794WAT     H250625   0.806   0.221   3.087
16795WAT      O50626   9.500   7.108   8.736
16795WAT     H150627   9.514   7.037   8.805
16795WAT     H250628   9.513   7.198   8.777
16796WAT      O50629   9.870   6.320   1.507
16796WAT     H150630   9.855   6.388   1.435
16796WAT     H250631   9.896   6.366   1.592
16797WAT      O50632   3.713   4.359   2.973
16797WAT     H150633   3.716   4.438   3.035
16797WAT     H250634   3.805   4.320   2.964
16798WAT      O50635   4.128   8.493   5.784
16798WAT     H150636   4.191   8.417   5.801
16798WAT     H250637   4.034   8.458   5.781
16799WAT      O50638   5.528   8.867   0.417
16799WAT     H150639   5.494   8.958   0.439
16799WAT     H250640   5.628   8.865   0.423
16800WAT      O50641   7.156   5.541   9.565
16800WAT     H150642   7.233   5.601   9.587
16800WAT     H250643   7.103   5.580   9.489
16801WAT      O50644   3.888   6.239   9.681
16801WAT     H150645   3.805   6.245   9.624
16801WAT     H250646   3.912   6.143   9.694
16802WAT      O50647   9.813   0.555   1.573
16802WAT     H150648   9.807   0.576   1.475
16802WAT     H250649   9.758   0.620   1.625
16803WAT      O50650   0.591   9.701   9.038
16803WAT     H150651   0.570   9.794   9.007
16803WAT     H250652   0.661   9.704   9.109
16804WAT      O50653   8.601   7.828   0.108
16804WAT     H150654   8.531   7.788   0.167
16804WAT     H250655   8.671   7.872   0.165
16805WAT      O50656   4.517   4.875   6.416
16805WAT     H150657   4.560   4.818   6.345
16805WAT     H250658   4.560   4.965   6.416
16806WAT      O50659   0.789   1.687   2.087
16806WAT     H150660   0.693   1.695   2.060
16806WAT     H250661   0.829   1.606   2.044
16807WAT      O50662   7.368   6.450   5.690
16807WAT     H150663   7.429   6.380   5.653
16807WAT     H250664   7.413   6.497   5.766
16808WAT      O50665   9.249   6.951   8.094
16808WAT     H150666   9.162   6.959   8.142
16808WAT     H250667   9.254   6.863   8.047
16809WAT      O50668   2.127   1.522   8.613
16809WAT     H150669   2.077   1.521   8.526
16809WAT     H250670   2.099   1.444   8.669
16810WAT      O50671   6.588   3.524   7.109
16810WAT     H150672   6.626   3.617   7.108
16810WAT     H250673   6.597   3.483   7.019
16811WAT      O50674   9.811   6.138   0.747
16811WAT     H150675   9.716   6.165   0.728
16811WAT     H250676   9.834   6.164   0.841
16812WAT      O50677   9.237   0.130   7.101
16812WAT     H150678   9.258   0.053   7.162
16812WAT     H250679   9.244   0.100   7.006
16813WAT      O50680   8.130   3.673   3.495
16813WAT     H150681   8.045   3.709   3.455
16813WAT     H250682   8.142   3.578   3.468
16814WAT      O50683   9.860   9.821   2.701
16814WAT     H150684   9.865   9.735   2.752
16814WAT     H250685   9.909   9.811   2.614
16815WAT      O50686   5.946   3.202   0.751
16815WAT     H150687   5.968   3.215   0.655
16815WAT     H250688   6.003   3.130   0.790
16816WAT      O50689   7.113   9.228   8.082
16816WAT     H150690   7.014   9.227   8.096
16816WAT     H250691   7.136   9.288   8.006
16817WAT      O50692   0.472   0.398   2.165
16817WAT     H150693   0.414   0.347   2.228
16817WAT     H250694   0.553   0.344   2.143
16818WAT      O50695   4.011   9.055   8.304
16818WAT     H150696   4.104   9.090   8.290
16818WAT     H250697   4.012   8.989   8.379
16819WAT      O50698   6.111   8.768   4.620
16819WAT     H150699   6.034   8.833   4.621
16819WAT     H250700   6.079   8.679   4.587
16820WAT      O50701   0.221   4.828   9.343
16820WAT     H150702   0.315   4.800   9.320
16820WAT     H250703   0.222   4.873   9.432
16821WAT      O50704   2.711   1.980   4.604
16821WAT     H150705   2.649   2.043   4.557
16821WAT     H250706   2.753   2.027   4.682
16822WAT      O50707   5.571   0.954   6.565
16822WAT     H150708   5.472   0.961   6.561
16822WAT     H250709   5.612   1.004   6.488
16823WAT      O50710   5.229   8.671   2.851
16823WAT     H150711   5.305   8.731   2.828
16823WAT     H250712   5.212   8.675   2.950
16824WAT      O50713   5.081   3.778   4.176
16824WAT     H150714   5.076   3.831   4.261
16824WAT     H250715   5.033   3.828   4.103
16825WAT      O50716   9.709   7.557   6.368
16825WAT     H150717   9.668   7.510   6.290
16825WAT     H250718   9.650   7.544   6.448
16826WAT      O50719   5.648   7.154   2.642
16826WAT     H150720   5.599   7.241   2.654
16826WAT     H250721   5.610   7.106   2.563
16827WAT      O50722   6.331   2.215   1.268
16827WAT     H150723   6.408   2.248   1.324
16827WAT     H250724   6.245   2.240   1.313
16828WAT      O50725   8.905   2.828   8.580
16828WAT     H150726   8.880   2.924   8.593
16828WAT     H250727   8.990   2.809   8.629
16829WAT      O50728   9.412   2.415   4.555
16829WAT     H150729   9.500   2.453   4.585
16829WAT     H250730   9.411   2.317   4.571
16830WAT      O50731   4.176   3.902   1.684
16830WAT     H150732   4.093   3.899   1.739
16830WAT     H250733   4.156   3.871   1.591
16831WAT      O50734   5.232   8.651   8.242
16831WAT     H150735   5.188   8.605   8.319
16831WAT     H250736   5.303   8.713   8.276
16832WAT      O50737   5.623   0.437   7.840
16832WAT     H150738   5.707   0.398   7.802
16832WAT     H250739   5.597   0.386   7.922
16833WAT      O50740   5.146   9.451   0.743
16833WAT     H150741   5.052   9.420   0.756
16833WAT     H250742   5.189   9.467   0.831
16834WAT      O50743   0.184   7.474   5.777
16834WAT     H150744   0.280   7.456   5.797
16834WAT     H250745   0.135   7.497   5.861
16835WAT      O50746   0.759   3.534   9.261
16835WAT     H150747   0.699   3.543   9.182
16835WAT     H250748   0.704   3.538   9.345
16836WAT      O50749   2.524   7.086   1.618
16836WAT     H150750   2.482   7.005   1.578
16836WAT     H250751   2.461   7.126   1.685
16837WAT      O50752   4.811   1.479   4.252
16837WAT     H150753   4.827   1.570   4.213
16837WAT     H250754   4.801   1.487   4.351
16838WAT      O50755   6.472   5.320   5.897
16838WAT     H150756   6.513   5.379   5.827
16838WAT     H250757   6.505   5.348   5.987
16839WAT      O50758   0.142   1.530   3.701
16839WAT     H150759   0.077   1.545   3.627
16839WAT     H250760   0.165   1.617   3.744
16840WAT      O50761   3.194   3.131   9.505
16840WAT     H150762   3.168   3.222   9.535
16840WAT     H250763   3.228   3.078   9.583
16841WAT      O50764   1.921   5.385   8.899
16841WAT     H150765   1.953   5.314   8.837
16841WAT     H250766   1.898   5.467   8.847
16842WAT      O50767   5.666   1.157   6.117
16842WAT     H150768   5.722   1.217   6.174
16842WAT     H250769   5.724   1.090   6.071
16843WAT      O50770   0.649   7.295   2.530
16843WAT     H150771   0.724   7.354   2.560
16843WAT     H250772   0.687   7.212   2.490
16844WAT      O50773   6.530   8.441   5.880
16844WAT     H150774   6.600   8.412   5.945
16844WAT     H250775   6.440   8.438   5.924
16845WAT      O50776   2.350   6.972   4.803
16845WAT     H150777   2.312   6.879   4.806
16845WAT     H250778   2.412   6.986   4.880
16846WAT      O50779   8.287   0.033   7.087
16846WAT     H150780   8.238  -0.041   7.040
16846WAT     H250781   8.224   0.109   7.104
16847WAT      O50782   5.854   3.029   3.605
16847WAT     H150783   5.932   3.071   3.560
16847WAT     H250784   5.886   2.973   3.681
16848WAT      O50785   6.358   7.573   3.439
16848WAT     H150786   6.295   7.594   3.514
16848WAT     H250787   6.306   7.544   3.359
16849WAT      O50788   4.081   4.591   0.190
16849WAT     H150789   4.053   4.674   0.142
16849WAT     H250790   4.082   4.609   0.289
16850WAT      O50791   4.220   2.399   8.237
16850WAT     H150792   4.166   2.358   8.311
16850WAT     H250793   4.169   2.390   8.151
16851WAT      O50794   6.139   9.411   0.881
16851WAT     H150795   6.165   9.409   0.978
16851WAT     H250796   6.215   9.447   0.827
16852WAT      O50797   4.199   9.752   7.438
16852WAT     H150798   4.266   9.679   7.421
16852WAT     H250799   4.143   9.728   7.517
16853WAT      O50800   2.300   2.623   8.696
16853WAT     H150801   2.303   2.523   8.691
16853WAT     H250802   2.369   2.655   8.761
16854WAT      O50803   2.512   6.510   9.565
16854WAT     H150804   2.584   6.490   9.499
16854WAT     H250805   2.531   6.597   9.610
16855WAT      O50806   2.285   1.121   0.712
16855WAT     H150807   2.278   1.030   0.671
16855WAT     H250808   2.329   1.183   0.647
16856WAT      O50809   9.601   8.590   9.191
16856WAT     H150810   9.673   8.622   9.128
16856WAT     H250811   9.514   8.632   9.166
16857WAT      O50812   5.506   4.095   9.097
16857WAT     H150813   5.579   4.154   9.064
16857WAT     H250814   5.546   4.015   9.142
16858WAT      O50815   4.015   2.674   6.133
16858WAT     H150816   3.934   2.678   6.191
16858WAT     H250817   4.037   2.765   6.098
16859WAT      O50818   7.290   4.499   8.694
16859WAT     H150819   7.379   4.458   8.677
16859WAT     H250820   7.298   4.565   8.769
16860WAT      O50821   7.309   0.415   8.947
16860WAT     H150822   7.289   0.418   9.044
16860WAT     H250823   7.350   0.327   8.924
16861WAT      O50824   5.539   9.261   5.072
16861WAT     H150825   5.593   9.344   5.081
16861WAT     H250826   5.491   9.243   5.158
16862WAT      O50827   8.033   1.465   5.450
16862WAT     H150828   8.049   1.496   5.357
16862WAT     H250829   8.029   1.544   5.512
16863WAT      O50830   0.097   2.519   2.585
16863WAT     H150831   0.004   2.531   2.551
16863WAT     H250832   0.111   2.424   2.611
16864WAT      O50833   5.084   5.873   1.608
16864WAT     H150834   5.178   5.841   1.598
16864WAT     H250835   5.060   5.876   1.705
16865WAT      O50836   9.587   7.326   9.158
16865WAT     H150837   9.530   7.259   9.206
16865WAT     H250838   9.581   7.414   9.205
16866WAT      O50839   9.097   1.587   6.430
16866WAT     H150840   9.162   1.520   6.393
16866WAT     H250841   9.014   1.587   6.375
16867WAT      O50842   0.503   9.478   5.064
16867WAT     H150843   0.448   9.397   5.086
16867WAT     H250844   0.512   9.535   5.146
16868WAT      O50845   8.863   3.036   0.005
16868WAT     H150846   8.949   3.033  -0.047
16868WAT     H250847   8.859   3.121   0.058
16869WAT      O50848   6.431   0.247   6.555
16869WAT     H150849   6.463   0.155   6.535
16869WAT     H250850   6.468   0.276   6.643
16870WAT      O50851   3.024   1.684   3.283
16870WAT     H150852   2.926   1.675   3.265
16870WAT     H250853   3.075   1.658   3.201
16871WAT      O50854   4.652   5.224   4.756
16871WAT     H150855   4.630   5.288   4.829
16871WAT     H250856   4.605   5.251   4.672
16872WAT      O50857   0.715   2.292   7.900
16872WAT     H150858   0.749   2.286   7.806
16872WAT     H250859   0.780   2.247   7.962
16873WAT      O50860   4.112   0.230   0.155
16873WAT     H150861   4.078   0.161   0.091
16873WAT     H250862   4.145   0.185   0.238
16874WAT      O50863   3.443   6.452   6.163
16874WAT     H150864   3.512   6.495   6.222
16874WAT     H250865   3.477   6.363   6.133
16875WAT      O50866   8.023   6.508   7.352
16875WAT     H150867   7.964   6.431   7.326
16875WAT     H250868   7.974   6.594   7.339
16876WAT      O50869   3.630   7.324   6.859
16876WAT     H150870   3.548   7.302   6.807
16876WAT     H250871   3.696   7.370   6.799
16877WAT      O50872   4.018   4.891   6.912
16877WAT     H150873   3.985   4.859   6.823
16877WAT     H250874   3.972   4.840   6.985
16878WAT      O50875   5.938   8.527   5.332
16878WAT     H150876   5.985   8.548   5.246
16878WAT     H250877   5.985   8.452   5.378
16879WAT      O50878   8.677   6.358   4.200
16879WAT     H150879   8.710   6.378   4.108
16879WAT     H250880   8.578   6.343   4.198
16880WAT      O50881   7.522   3.702   0.927
16880WAT     H150882   7.536   3.656   0.839
16880WAT     H250883   7.585   3.664   0.995
16881WAT      O50884   1.670   0.882   7.591
16881WAT     H150885   1.628   0.825   7.520
16881WAT     H250886   1.610   0.959   7.612
16882WAT      O50887   7.713   3.275   2.186
16882WAT     H150888   7.777   3.204   2.218
16882WAT     H250889   7.635   3.232   2.141
16883WAT      O50890   5.546   5.611   1.909
16883WAT     H150891   5.637   5.607   1.869
16883WAT     H250892   5.531   5.702   1.947
16884WAT      O50893   2.992   7.505   7.973
16884WAT     H150894   2.988   7.517   7.874
16884WAT     H250895   2.902   7.522   8.013
16885WAT      O50896   7.226   7.766   0.912
16885WAT     H150897   7.236   7.730   1.004
16885WAT     H250898   7.180   7.855   0.916
16886WAT      O50899   0.043   6.190   0.024
16886WAT     H150900  -0.003   6.229   0.103
16886WAT     H250901   0.074   6.097   0.045
16887WAT      O50902   9.448   0.426   0.877
16887WAT     H150903   9.478   0.432   0.781
16887WAT     H250904   9.521   0.456   0.937
16888WAT      O50905   2.847   2.180   9.064
16888WAT     H150906   2.874   2.195   8.969
16888WAT     H250907   2.864   2.084   9.088
16889WAT      O50908   7.713   3.323   4.807
16889WAT     H150909   7.768   3.272   4.873
16889WAT     H250910   7.620   3.332   4.841
16890WAT      O50911   9.757   8.351   7.042
16890WAT     H150912   9.739   8.391   6.952
16890WAT     H250913   9.853   8.326   7.049
16891WAT      O50914   9.597   5.524   0.889
16891WAT     H150915   9.596   5.496   0.985
16891WAT     H250916   9.537   5.603   0.876
16892WAT      O50917   9.576   0.460   0.626
16892WAT     H150918   9.616   0.435   0.538
16892WAT     H250919   9.648   0.468   0.695
16893WAT      O50920   6.263   3.557   5.263
16893WAT     H150921   6.240   3.505   5.345
16893WAT     H250922   6.185   3.558   5.201
16894WAT      O50923   2.642   7.234   8.341
16894WAT     H150924   2.730   7.188   8.355
16894WAT     H250925   2.656   7.332   8.335
16895WAT      O50926   6.400   3.141   7.469
16895WAT     H150927   6.445   3.061   7.508
16895WAT     H250928   6.339   3.113   7.395
16896WAT      O50929   5.938   8.389   4.142
16896WAT     H150930   5.888   8.325   4.085
16896WAT     H250931   5.883   8.472   4.155
16897WAT      O50932   9.506   1.651   0.124
16897WAT     H150933   9.600   1.667   0.152
16897WAT     H250934   9.444   1.692   0.191
16898WAT      O50935   2.415   7.290   0.677
16898WAT     H150936   2.315   7.288   0.677
16898WAT     H250937   2.450   7.249   0.592
16899WAT      O50938   3.458   3.863   6.676
16899WAT     H150939   3.467   3.933   6.605
16899WAT     H250940   3.515   3.889   6.755
16900WAT      O50941   6.093   7.976   7.420
16900WAT     H150942   6.083   7.912   7.497
16900WAT     H250943   6.136   7.929   7.343
16901WAT      O50944   7.204   5.646   1.322
16901WAT     H150945   7.150   5.565   1.345
16901WAT     H250946   7.181   5.676   1.230
16902WAT      O50947   7.167   8.634   2.847
16902WAT     H150948   7.146   8.674   2.936
16902WAT     H250949   7.218   8.549   2.860
16903WAT      O50950   0.945   8.007   7.215
16903WAT     H150951   0.884   7.936   7.251
16903WAT     H250952   0.895   8.093   7.206
16904WAT      O50953   4.686   1.590   2.997
16904WAT     H150954   4.594   1.557   3.015
16904WAT     H250955   4.700   1.677   3.044
16905WAT      O50956   5.847   7.535   0.437
16905WAT     H150957   5.915   7.543   0.510
16905WAT     H250958   5.836   7.623   0.392
16906WAT      O50959   1.502   3.613   4.348
16906WAT     H150960   1.403   3.625   4.358
16906WAT     H250961   1.534   3.542   4.411
16907WAT      O50962   6.211   1.018   8.635
16907WAT     H150963   6.129   1.074   8.620
16907WAT     H250964   6.198   0.927   8.597
16908WAT      O50965   4.375   8.817   2.165
16908WAT     H150966   4.386   8.906   2.122
16908WAT     H250967   4.462   8.768   2.164
16909WAT      O50968   0.193   0.801   5.207
16909WAT     H150969   0.143   0.811   5.121
16909WAT     H250970   0.286   0.767   5.188
16910WAT      O50971   6.230   1.850   0.436
16910WAT     H150972   6.145   1.863   0.486
16910WAT     H250973   6.249   1.752   0.429
16911WAT      O50974   3.195   8.591   6.157
16911WAT     H150975   3.247   8.511   6.126
16911WAT     H250976   3.252   8.673   6.146
16912WAT      O50977   1.339   6.002   5.066
16912WAT     H150978   1.318   6.085   5.014
16912WAT     H250979   1.263   5.980   5.127
16913WAT      O50980   7.156   2.324   4.149
16913WAT     H150981   7.198   2.413   4.166
16913WAT     H250982   7.088   2.334   4.076
16914WAT      O50983   6.831   4.681   0.608
16914WAT     H150984   6.835   4.633   0.520
16914WAT     H250985   6.895   4.638   0.672
16915WAT      O50986   0.909   5.409   4.800
16915WAT     H150987   0.991   5.400   4.856
16915WAT     H250988   0.887   5.506   4.789
16916WAT      O50989   7.914   8.163   5.840
16916WAT     H150990   7.862   8.193   5.760
16916WAT     H250991   7.850   8.146   5.916
16917WAT      O50992   3.448   3.052   1.485
16917WAT     H150993   3.381   3.015   1.549
16917WAT     H250994   3.497   2.977   1.441
16918WAT      O50995   2.756   7.651   7.566
16918WAT     H150996   2.821   7.669   7.640
16918WAT     H250997   2.780   7.708   7.487
16919WAT      O50998   6.773   7.341   7.782
16919WAT     H150999   6.867   7.340   7.750
16919WAT     H251000   6.716   7.284   7.722
16920WAT      O51001   6.598   3.548   4.628
16920WAT     H151002   6.549   3.575   4.711
16920WAT     H251003   6.685   3.596   4.624
16921WAT      O51004   9.172   1.185   1.383
16921WAT     H151005   9.080   1.224   1.372
16921WAT     H251006   9.166   1.098   1.432
16922WAT      O51007   4.792   6.923   1.238
16922WAT     H151008   4.767   6.857   1.309
16922WAT     H251009   4.710   6.972   1.208
16923WAT      O51010   3.271   5.700   2.735
16923WAT     H151011   3.332   5.721   2.658
16923WAT     H251012   3.324   5.659   2.809
16924WAT      O51013   5.609   8.406   4.036
16924WAT     H151014   5.536   8.412   3.968
16924WAT     H251015   5.664   8.324   4.019
16925WAT      O51016   7.603   5.952   8.050
16925WAT     H151017   7.602   5.964   8.150
16925WAT     H251018   7.642   6.034   8.008
16926WAT      O51019   2.970   4.880   2.225
16926WAT     H151020   3.045   4.888   2.291
16926WAT     H251021   2.983   4.797   2.170
16927WAT      O51022   2.671   5.899   1.346
16927WAT     H151023   2.701   5.811   1.309
16927WAT     H251024   2.626   5.884   1.434
16928WAT      O51025   0.629   4.856   7.597
16928WAT     H151026   0.629   4.851   7.697
16928WAT     H251027   0.555   4.799   7.561
16929WAT      O51028   5.415   2.537   3.588
16929WAT     H151029   5.371   2.489   3.512
16929WAT     H251030   5.371   2.626   3.601
16930WAT      O51031   4.977   3.172   8.960
16930WAT     H151032   4.997   3.265   8.930
16930WAT     H251033   4.885   3.147   8.929
16931WAT      O51034   3.457   0.297   2.618
16931WAT     H151035   3.493   0.213   2.658
16931WAT     H251036   3.530   0.345   2.570
16932WAT      O51037   6.509   8.776   1.400
16932WAT     H151038   6.582   8.740   1.457
16932WAT     H251039   6.547   8.805   1.312
16933WAT      O51040   1.863   4.013   2.275
16933WAT     H151041   1.800   3.996   2.199
16933WAT     H251042   1.827   4.087   2.331
16934WAT      O51043   3.760   7.396   5.740
16934WAT     H151044   3.823   7.371   5.666
16934WAT     H251045   3.669   7.410   5.703
16935WAT      O51046   8.222   6.333   8.089
16935WAT     H151047   8.237   6.430   8.072
16935WAT     H251048   8.288   6.279   8.037
16936WAT      O51049   0.989   0.209   5.378
16936WAT     H151050   1.007   0.163   5.292
16936WAT     H251051   0.891   0.220   5.391
16937WAT      O51052   9.118   5.418   2.065
16937WAT     H151053   9.185   5.454   2.129
16937WAT     H251054   9.160   5.347   2.009
16938WAT      O51055   2.790   6.734   6.419
16938WAT     H151056   2.864   6.689   6.469
16938WAT     H251057   2.707   6.734   6.475
16939WAT      O51058   1.794   6.669   2.807
16939WAT     H151059   1.697   6.664   2.781
16939WAT     H251060   1.848   6.697   2.729
16940WAT      O51061   5.670   5.911   6.530
16940WAT     H151062   5.678   5.816   6.558
16940WAT     H251063   5.683   5.971   6.609
16941WAT      O51064   0.155   2.016   4.132
16941WAT     H151065   0.176   1.975   4.221
16941WAT     H251066   0.221   1.984   4.064
16942WAT      O51067   3.222   7.049   1.334
16942WAT     H151068   3.136   7.048   1.386
16942WAT     H251069   3.203   7.065   1.237
16943WAT      O51070   2.104   3.193   5.975
16943WAT     H151071   2.179   3.127   5.961
16943WAT     H251072   2.024   3.164   5.922
16944WAT      O51073   9.869   6.684   0.361
16944WAT     H151074   9.934   6.682   0.285
16944WAT     H251075   9.917   6.709   0.445
16945WAT      O51076   7.159   9.795   1.755
16945WAT     H151077   7.197   9.812   1.846
16945WAT     H251078   7.205   9.853   1.688
16946WAT      O51079   8.398   1.464   9.338
16946WAT     H151080   8.423   1.533   9.406
16946WAT     H251081   8.338   1.396   9.380
16947WAT      O51082   5.965   1.345   9.130
16947WAT     H151083   6.003   1.326   9.220
16947WAT     H251084   6.037   1.377   9.069
16948WAT      O51085   5.263   3.160   8.923
16948WAT     H151086   5.175   3.142   8.968
16948WAT     H251087   5.326   3.201   8.988
16949WAT      O51088   3.274   6.019   1.701
16949WAT     H151089   3.332   6.051   1.626
16949WAT     H251090   3.183   5.999   1.666
16950WAT      O51091   5.813   2.673   8.188
16950WAT     H151092   5.882   2.744   8.182
16950WAT     H251093   5.819   2.612   8.109
16951WAT      O51094   1.944   1.972   1.398
16951WAT     H151095   1.962   2.063   1.362
16951WAT     H251096   2.007   1.906   1.355
16952WAT      O51097   8.965   5.229   0.722
16952WAT     H151098   8.892   5.262   0.781
16952WAT     H251099   9.011   5.151   0.765
16953WAT      O51100   6.643   7.573   8.115
16953WAT     H151101   6.586   7.507   8.067
16953WAT     H251102   6.601   7.664   8.111
16954WAT      O51103   5.362   6.311   7.695
16954WAT     H151104   5.390   6.306   7.599
16954WAT     H251105   5.433   6.358   7.748
16955WAT      O51106   1.543   9.349   3.398
16955WAT     H151107   1.473   9.414   3.427
16955WAT     H251108   1.575   9.296   3.477
16956WAT      O51109   5.485   9.667   2.654
16956WAT     H151110   5.510   9.686   2.749
16956WAT     H251111   5.556   9.612   2.610
16957WAT      O51112   2.814   9.531   9.814
16957WAT     H151113   2.847   9.583   9.735
16957WAT     H251114   2.864   9.445   9.820
16958WAT      O51115   7.362   9.541   2.011
16958WAT     H151116   7.342   9.526   2.108
16958WAT     H251117   7.338   9.634   1.986
16959WAT      O51118   7.330   2.732   2.310
16959WAT     H151119   7.264   2.660   2.289
16959WAT     H251120   7.282   2.818   2.323
16960WAT      O51121   1.806   4.928   9.233
16960WAT     H151122   1.809   4.902   9.137
16960WAT     H251123   1.869   4.870   9.285
16961WAT      O51124   4.078   0.737   6.275
16961WAT     H151125   4.104   0.777   6.187
16961WAT     H251126   3.986   0.699   6.269
16962WAT      O51127   5.246   3.976   6.751
16962WAT     H151128   5.213   4.068   6.728
16962WAT     H251129   5.295   3.939   6.672
16963WAT      O51130   9.613   8.210   3.626
16963WAT     H151131   9.586   8.306   3.629
16963WAT     H251132   9.537   8.155   3.590
16964WAT      O51133   8.380   3.321   7.938
16964WAT     H151134   8.311   3.337   8.008
16964WAT     H251135   8.392   3.223   7.924
16965WAT      O51136   7.375   8.508   3.671
16965WAT     H151137   7.362   8.577   3.742
16965WAT     H251138   7.455   8.533   3.615
16966WAT      O51139   8.705   4.326   1.368
16966WAT     H151140   8.668   4.260   1.303
16966WAT     H251141   8.642   4.403   1.377
16967WAT      O51142   6.200   9.568   7.605
16967WAT     H151143   6.148   9.637   7.555
16967WAT     H251144   6.173   9.570   7.701
16968WAT      O51145   6.215   7.727   7.223
16968WAT     H151146   6.123   7.727   7.185
16968WAT     H251147   6.227   7.647   7.282
16969WAT      O51148   3.840   7.783   2.937
16969WAT     H151149   3.767   7.797   3.003
16969WAT     H251150   3.822   7.837   2.855
16970WAT      O51151   0.654   9.046   0.895
16970WAT     H151152   0.738   9.097   0.913
16970WAT     H251153   0.663   8.953   0.929
16971WAT      O51154   3.488   8.428   7.654
16971WAT     H151155   3.389   8.424   7.643
16971WAT     H251156   3.512   8.409   7.749
16972WAT      O51157   4.180   9.355   6.005
16972WAT     H151158   4.167   9.332   6.102
16972WAT     H251159   4.225   9.278   5.959
16973WAT      O51160   1.358   4.782   8.279
16973WAT     H151161   1.321   4.737   8.361
16973WAT     H251162   1.283   4.825   8.229
16974WAT      O51163   4.885   2.520   1.445
16974WAT     H151164   4.816   2.448   1.431
16974WAT     H251165   4.966   2.498   1.391
16975WAT      O51166   1.551   0.183   8.062
16975WAT     H151167   1.577   0.102   8.009
16975WAT     H251168   1.582   0.173   8.157
16976WAT      O51169   1.728   9.209   2.280
16976WAT     H151170   1.826   9.210   2.262
16976WAT     H251171   1.692   9.302   2.271
16977WAT      O51172   7.164   8.132   3.229
16977WAT     H151173   7.216   8.119   3.145
16977WAT     H251174   7.095   8.203   3.214
16978WAT      O51175   1.120   7.186   3.501
16978WAT     H151176   1.141   7.093   3.469
16978WAT     H251177   1.204   7.240   3.501
16979WAT      O51178   2.338   9.666   4.190
16979WAT     H151179   2.287   9.593   4.145
16979WAT     H251180   2.433   9.665   4.159
16980WAT      O51181   8.066   4.298   5.884
16980WAT     H151182   8.000   4.223   5.877
16980WAT     H251183   8.079   4.322   5.980
16981WAT      O51184   8.806   1.905   1.597
16981WAT     H151185   8.748   1.973   1.552
16981WAT     H251186   8.898   1.942   1.607
16982WAT      O51187   7.324   3.253   9.722
16982WAT     H151188   7.252   3.286   9.661
16982WAT     H251189   7.284   3.195   9.793
16983WAT      O51190   0.018   9.821   4.303
16983WAT     H151191   0.067   9.896   4.347
16983WAT     H251192  -0.001   9.845   4.208
16984WAT      O51193   1.017   7.479   2.960
16984WAT     H151194   0.998   7.575   2.981
16984WAT     H251195   0.934   7.435   2.924
16985WAT      O51196   6.786   6.113   1.075
16985WAT     H151197   6.711   6.122   1.010
16985WAT     H251198   6.754   6.068   1.158
16986WAT      O51199   6.698   3.009   7.124
16986WAT     H151200   6.710   3.104   7.153
16986WAT     H251201   6.771   2.954   7.164
16987WAT      O51202   4.479   7.179   0.959
16987WAT     H151203   4.548   7.180   0.887
16987WAT     H251204   4.401   7.124   0.930
16988WAT      O51205   4.046   6.777   1.200
16988WAT     H151206   4.067   6.859   1.253
16988WAT     H251207   3.949   6.777   1.175
16989WAT      O51208   3.570   5.723   1.783
16989WAT     H151209   3.585   5.718   1.684
16989WAT     H251210   3.492   5.665   1.807
16990WAT      O51211   4.997   6.632   8.345
16990WAT     H151212   4.921   6.613   8.408
16990WAT     H251213   4.975   6.712   8.289
16991WAT      O51214   7.490   0.287   7.573
16991WAT     H151215   7.555   0.229   7.524
16991WAT     H251216   7.503   0.276   7.672
16992WAT      O51217   2.086   5.427   5.750
16992WAT     H151218   2.127   5.401   5.837
16992WAT     H251219   2.106   5.523   5.731
16993WAT      O51220   6.176   6.288   4.038
16993WAT     H151221   6.191   6.369   4.095
16993WAT     H251222   6.225   6.210   4.077
16994WAT      O51223   0.210   3.991   8.185
16994WAT     H151224   0.224   4.088   8.163
16994WAT     H251225   0.273   3.965   8.258
16995WAT      O51226   6.873   5.776   7.710
16995WAT     H151227   6.786   5.745   7.671
16995WAT     H251228   6.866   5.873   7.735
16996WAT      O51229   9.312   9.146   3.325
16996WAT     H151230   9.268   9.110   3.407
16996WAT     H251231   9.411   9.135   3.333
16997WAT      O51232   5.639   3.904   7.890
16997WAT     H151233   5.569   3.904   7.962
16997WAT     H251234   5.651   3.811   7.856
16998WAT      O51235   9.634   0.509   4.432
16998WAT     H151236   9.681   0.596   4.450
16998WAT     H251237   9.675   0.464   4.353
16999WAT      O51238   2.414   9.836   1.479
16999WAT     H151239   2.404   9.928   1.517
16999WAT     H251240   2.334   9.781   1.504
17000WAT      O51241   8.848   6.479   8.699
17000WAT     H151242   8.823   6.562   8.647
17000WAT     H251243   8.862   6.404   8.635
17001WAT      O51244   8.271   8.960   0.714
17001WAT     H151245   8.291   8.891   0.783
17001WAT     H251246   8.297   9.050   0.748
17002WAT      O51247   9.795   7.341   8.187
17002WAT     H151248   9.714   7.321   8.242
17002WAT     H251249   9.872   7.287   8.221
17003WAT      O51250   4.790   6.989   3.777
17003WAT     H151251   4.739   7.062   3.731
17003WAT     H251252   4.730   6.912   3.795
17004WAT      O51253   6.154   1.884   0.861
17004WAT     H151254   6.232   1.844   0.812
17004WAT     H251255   6.187   1.957   0.922
17005WAT      O51256   2.480   4.123   6.686
17005WAT     H151257   2.535   4.100   6.766
17005WAT     H251258   2.408   4.187   6.712
17006WAT      O51259   4.066   3.563   4.578
17006WAT     H151260   4.112   3.506   4.511
17006WAT     H251261   4.051   3.510   4.662
17007WAT      O51262   2.120   0.892   3.834
17007WAT     H151263   2.163   0.843   3.910
17007WAT     H251264   2.105   0.830   3.757
17008WAT      O51265   3.544   1.921   1.480
17008WAT     H151266   3.485   1.979   1.423
17008WAT     H251267   3.640   1.939   1.458
17009WAT      O51268   7.488   0.151   1.171
17009WAT     H151269   7.583   0.174   1.191
17009WAT     H251270   7.454   0.211   1.099
17010WAT      O51271   2.862   9.513   6.361
17010WAT     H151272   2.807   9.501   6.278
17010WAT     H251273   2.823   9.587   6.416
17011WAT      O51274   2.272   0.420   6.502
17011WAT     H151275   2.347   0.485   6.508
17011WAT     H251276   2.229   0.427   6.412
17012WAT      O51277   9.777   3.521   0.381
17012WAT     H151278   9.875   3.540   0.380
17012WAT     H251279   9.727   3.598   0.343
17013WAT      O51280   4.339   5.895   4.092
17013WAT     H151281   4.347   5.850   4.003
17013WAT     H251282   4.305   5.988   4.080
17014WAT      O51283   8.916   6.031   9.044
17014WAT     H151284   8.870   5.946   9.072
17014WAT     H251285   8.998   6.044   9.100
17015WAT      O51286   4.296   2.036   6.241
17015WAT     H151287   4.230   1.985   6.296
17015WAT     H251288   4.315   1.987   6.157
17016WAT      O51289   6.151   2.266   7.405
17016WAT     H151290   6.108   2.256   7.315
17016WAT     H251291   6.153   2.363   7.429
17017WAT      O51292   5.921   4.357   3.814
17017WAT     H151293   5.896   4.454   3.810
17017WAT     H251294   5.839   4.301   3.818
17018WAT      O51295   8.015   6.323   5.152
17018WAT     H151296   7.942   6.382   5.119
17018WAT     H251297   8.081   6.377   5.204
17019WAT      O51298   9.885   1.448   1.792
17019WAT     H151299   9.944   1.468   1.870
17019WAT     H251300   9.805   1.397   1.824
17020WAT      O51301   6.568   5.999   0.480
17020WAT     H151302   6.577   6.034   0.387
17020WAT     H251303   6.473   5.970   0.495
17021WAT      O51304   0.593   3.180   8.493
17021WAT     H151305   0.493   3.185   8.492
17021WAT     H251306   0.622   3.088   8.520
17022WAT      O51307   0.371   9.131   7.637
17022WAT     H151308   0.320   9.136   7.723
17022WAT     H251309   0.323   9.071   7.573
17023WAT      O51310   7.041   6.154   6.524
17023WAT     H151311   7.053   6.105   6.438
17023WAT     H251312   6.972   6.225   6.513
17024WAT      O51313   8.073   0.218   2.712
17024WAT     H151314   7.995   0.274   2.683
17024WAT     H251315   8.105   0.250   2.801
17025WAT      O51316   6.947   7.359   6.478
17025WAT     H151317   7.000   7.441   6.497
17025WAT     H251318   6.861   7.384   6.435
17026WAT      O51319   8.181   1.497   7.510
17026WAT     H151320   8.141   1.406   7.503
17026WAT     H251321   8.214   1.526   7.420
17027WAT      O51322   6.174   4.939   5.982
17027WAT     H151323   6.229   4.978   5.908
17027WAT     H251324   6.084   4.981   5.983
17028WAT      O51325   7.072   4.125   3.448
17028WAT     H151326   7.010   4.107   3.525
17028WAT     H251327   7.166   4.108   3.476
17029WAT      O51328   9.169   4.013   7.792
17029WAT     H151329   9.122   3.940   7.842
17029WAT     H251330   9.263   3.984   7.772
17030WAT      O51331   4.572   3.973   0.344
17030WAT     H151332   4.487   3.931   0.376
17030WAT     H251333   4.563   3.995   0.246
17031WAT      O51334   0.866   4.631   0.453
17031WAT     H151335   0.955   4.593   0.426
17031WAT     H251336   0.873   4.731   0.458
17032WAT      O51337   3.109   7.031   6.073
17032WAT     H151338   3.183   7.089   6.040
17032WAT     H251339   3.028   7.044   6.014
17033WAT      O51340   6.294   3.416   6.267
17033WAT     H151341   6.208   3.465   6.279
17033WAT     H251342   6.370   3.476   6.292
17034WAT      O51343   5.333   5.929   2.351
17034WAT     H151344   5.316   5.846   2.298
17034WAT     H251345   5.316   5.911   2.448
17035WAT      O51346   1.914   8.581   8.963
17035WAT     H151347   1.910   8.483   8.944
17035WAT     H251348   1.872   8.632   8.887
17036WAT      O51349   8.486   7.126   5.108
17036WAT     H151350   8.464   7.221   5.087
17036WAT     H251351   8.504   7.076   5.023
17037WAT      O51352   5.190   0.070   3.874
17037WAT     H151353   5.212  -0.024   3.901
17037WAT     H251354   5.223   0.086   3.781
17038WAT      O51355   0.514   1.633   6.178
17038WAT     H151356   0.464   1.674   6.254
17038WAT     H251357   0.601   1.597   6.212
17039WAT      O51358   6.107   0.924   5.726
17039WAT     H151359   6.124   1.017   5.692
17039WAT     H251360   6.012   0.900   5.709
17040WAT      O51361   1.053   3.457   5.470
17040WAT     H151362   0.975   3.456   5.408
17040WAT     H251363   1.056   3.545   5.518
17041WAT      O51364   3.039   4.793   0.378
17041WAT     H151365   3.045   4.742   0.464
17041WAT     H251366   2.943   4.810   0.356
17042WAT      O51367   3.881   5.439   2.020
17042WAT     H151368   3.884   5.341   2.001
17042WAT     H251369   3.824   5.456   2.100
17043WAT      O51370   7.885   7.097   7.427
17043WAT     H151371   7.892   7.117   7.329
17043WAT     H251372   7.792   7.114   7.458
17044WAT      O51373   6.819   3.105   9.864
17044WAT     H151374   6.808   3.027   9.927
17044WAT     H251375   6.738   3.163   9.869
17045WAT      O51376   5.568   6.050   7.577
17045WAT     H151377   5.614   6.020   7.660
17045WAT     H251378   5.517   5.974   7.537
17046WAT      O51379   5.800   9.100   1.538
17046WAT     H151380   5.830   9.005   1.546
17046WAT     H251381   5.714   9.111   1.589
17047WAT      O51382   7.079   2.839   1.666
17047WAT     H151383   7.029   2.755   1.690
17047WAT     H251384   7.014   2.915   1.659
17048WAT      O51385   2.329   3.362   2.883
17048WAT     H151386   2.271   3.443   2.884
17048WAT     H251387   2.286   3.289   2.937
17049WAT      O51388   9.431   9.418   5.348
17049WAT     H151389   9.474   9.458   5.429
17049WAT     H251390   9.459   9.322   5.340
17050WAT      O51391   9.086   9.591   3.599
17050WAT     H151392   9.155   9.637   3.654
17050WAT     H251393   8.995   9.619   3.629
17051WAT      O51394   1.262   9.095   2.128
17051WAT     H151395   1.240   9.108   2.032
17051WAT     H251396   1.193   9.036   2.171
17052WAT      O51397   3.488   5.572   8.503
17052WAT     H151398   3.588   5.578   8.495
17052WAT     H251399   3.464   5.501   8.569
17053WAT      O51400   8.841   9.695   2.908
17053WAT     H151401   8.775   9.762   2.941
17053WAT     H251402   8.884   9.650   2.986
17054WAT      O51403   2.905   8.156   1.226
17054WAT     H151404   2.833   8.174   1.160
17054WAT     H251405   2.987   8.209   1.202
17055WAT      O51406   1.160   7.559   4.008
17055WAT     H151407   1.187   7.642   4.058
17055WAT     H251408   1.173   7.573   3.910
17056WAT      O51409   9.580   9.047   1.817
17056WAT     H151410   9.504   9.093   1.771
17056WAT     H251411   9.653   9.027   1.751
17057WAT      O51412   0.034   1.068   6.175
17057WAT     H151413   0.040   0.985   6.230
17057WAT     H251414   0.007   1.045   6.081
17058WAT      O51415   2.211   2.641   0.785
17058WAT     H151416   2.295   2.623   0.733
17058WAT     H251417   2.133   2.644   0.723
17059WAT      O51418   8.837   1.377   7.560
17059WAT     H151419   8.892   1.303   7.597
17059WAT     H251420   8.795   1.348   7.474
17060WAT      O51421   0.700   4.493   2.464
17060WAT     H151422   0.711   4.593   2.462
17060WAT     H251423   0.787   4.451   2.490
17061WAT      O51424   4.132   4.635   6.203
17061WAT     H151425   4.046   4.669   6.165
17061WAT     H251426   4.206   4.651   6.137
17062WAT      O51427   5.982   7.969   4.613
17062WAT     H151428   6.039   8.045   4.644
17062WAT     H251429   6.013   7.885   4.657
17063WAT      O51430   5.232   4.308   7.526
17063WAT     H151431   5.308   4.280   7.584
17063WAT     H251432   5.222   4.242   7.451
17064WAT      O51433   4.053   0.879   2.980
17064WAT     H151434   3.980   0.834   3.031
17064WAT     H251435   4.127   0.905   3.043
17065WAT      O51436   0.820   0.988   0.765
17065WAT     H151437   0.725   0.997   0.736
17065WAT     H251438   0.823   0.960   0.861
17066WAT      O51439   1.450   2.236   3.046
17066WAT     H151440   1.448   2.324   3.093
17066WAT     H251441   1.438   2.162   3.113
17067WAT      O51442   5.328   9.552   8.713
17067WAT     H151443   5.251   9.489   8.722
17067WAT     H251444   5.336   9.607   8.796
17068WAT      O51445   0.539   7.696   8.315
17068WAT     H151446   0.612   7.752   8.354
17068WAT     H251447   0.555   7.684   8.217
17069WAT      O51448   2.753   4.898   2.741
17069WAT     H151449   2.670   4.919   2.792
17069WAT     H251450   2.833   4.907   2.801
17070WAT      O51451   4.780   8.581   4.442
17070WAT     H151452   4.699   8.626   4.480
17070WAT     H251453   4.861   8.609   4.493
17071WAT      O51454   3.681   1.872   7.081
17071WAT     H151455   3.775   1.842   7.067
17071WAT     H251456   3.625   1.845   7.003
17072WAT      O51457   0.477   0.238   5.854
17072WAT     H151458   0.445   0.231   5.948
17072WAT     H251459   0.577   0.237   5.852
17073WAT      O51460   9.550   2.120   4.146
17073WAT     H151461   9.524   2.208   4.187
17073WAT     H251462   9.643   2.097   4.174
17074WAT      O51463   3.461   3.392   7.346
17074WAT     H151464   3.485   3.355   7.256
17074WAT     H251465   3.393   3.334   7.389
17075WAT      O51466   5.852   3.895   7.618
17075WAT     H151467   5.770   3.879   7.563
17075WAT     H251468   5.825   3.938   7.705
17076WAT      O51469   1.661   0.275   6.706
17076WAT     H151470   1.728   0.335   6.662
17076WAT     H251471   1.666   0.184   6.665
17077WAT      O51472   3.072   5.095   9.234
17077WAT     H151473   3.088   5.025   9.302
17077WAT     H251474   3.007   5.162   9.269
17078WAT      O51475   2.121   1.247   1.131
17078WAT     H151476   2.109   1.158   1.176
17078WAT     H251477   2.107   1.237   1.033
17079WAT      O51478   5.881   8.430   7.919
17079WAT     H151479   5.852   8.523   7.942
17079WAT     H251480   5.874   8.372   8.000
17080WAT      O51481   9.803   1.860   8.338
17080WAT     H151482   9.798   1.959   8.350
17080WAT     H251483   9.761   1.814   8.417
17081WAT      O51484   5.517   5.481   2.610
17081WAT     H151485   5.576   5.439   2.679
17081WAT     H251486   5.421   5.467   2.635
17082WAT      O51487   7.686   7.823   9.289
17082WAT     H151488   7.598   7.862   9.262
17082WAT     H251489   7.716   7.863   9.376
17083WAT      O51490   4.561   7.383   1.137
17083WAT     H151491   4.637   7.345   1.189
17083WAT     H251492   4.512   7.310   1.090
17084WAT      O51493   3.033   4.551   2.762
17084WAT     H151494   2.969   4.494   2.813
17084WAT     H251495   2.984   4.629   2.723
17085WAT      O51496   3.321   2.927   0.542
17085WAT     H151497   3.306   2.870   0.461
17085WAT     H251498   3.241   2.986   0.556
17086WAT      O51499   5.125   9.504   1.800
17086WAT     H151500   5.083   9.433   1.856
17086WAT     H251501   5.078   9.591   1.814
17087WAT      O51502   4.238   0.047   3.765
17087WAT     H151503   4.302   0.099   3.707
17087WAT     H251504   4.259   0.064   3.861
17088WAT      O51505   9.391   4.509   4.411
17088WAT     H151506   9.438   4.597   4.417
17088WAT     H251507   9.293   4.523   4.420
17089WAT      O51508   1.558   7.963   2.408
17089WAT     H151509   1.545   7.987   2.504
17089WAT     H251510   1.563   7.864   2.398
17090WAT      O51511   5.758   4.217   5.202
17090WAT     H151512   5.858   4.214   5.214
17090WAT     H251513   5.722   4.302   5.240
17091WAT      O51514   7.763   2.182   7.540
17091WAT     H151515   7.846   2.129   7.522
17091WAT     H251516   7.775   2.234   7.625
17092WAT      O51517   5.751   2.268   4.484
17092WAT     H151518   5.729   2.187   4.538
17092WAT     H251519   5.724   2.253   4.389
17093WAT      O51520   7.014   4.908   4.947
17093WAT     H151521   6.995   4.876   5.039
17093WAT     H251522   6.969   4.996   4.931
17094WAT      O51523   6.079   5.167   7.276
17094WAT     H151524   5.985   5.190   7.249
17094WAT     H251525   6.085   5.069   7.295
17095WAT      O51526   0.676   5.705   1.959
17095WAT     H151527   0.745   5.680   1.891
17095WAT     H251528   0.641   5.623   2.004
17096WAT      O51529   0.333   5.591   9.648
17096WAT     H151530   0.274   5.574   9.727
17096WAT     H251531   0.417   5.538   9.658
17097WAT      O51532   0.748   3.569   9.568
17097WAT     H151533   0.781   3.475   9.578
17097WAT     H251534   0.822   3.626   9.530
17098WAT      O51535   6.390   4.532   1.115
17098WAT     H151536   6.383   4.514   1.017
17098WAT     H251537   6.333   4.467   1.165
17099WAT      O51538   8.681   4.705   6.564
17099WAT     H151539   8.699   4.668   6.655
17099WAT     H251540   8.610   4.775   6.570
17100WAT      O51541   4.141   1.742   1.731
17100WAT     H151542   4.221   1.772   1.679
17100WAT     H251543   4.058   1.766   1.680
17101WAT      O51544   0.470   3.206   5.045
17101WAT     H151545   0.514   3.269   4.980
17101WAT     H251546   0.504   3.114   5.028
17102WAT      O51547   1.162   2.676   1.037
17102WAT     H151548   1.175   2.628   1.123
17102WAT     H251549   1.068   2.711   1.032
17103WAT      O51550   0.941   4.316   2.932
17103WAT     H151551   0.948   4.245   2.862
17103WAT     H251552   0.950   4.274   3.023
17104WAT      O51553   7.770   4.777   5.964
17104WAT     H151554   7.854   4.761   6.017
17104WAT     H251555   7.698   4.716   5.996
17105WAT      O51556   0.441   8.162   3.659
17105WAT     H151557   0.500   8.239   3.633
17105WAT     H251558   0.355   8.197   3.695
17106WAT      O51559   0.375   7.029   6.809
17106WAT     H151560   0.453   7.004   6.751
17106WAT     H251561   0.315   6.950   6.819
17107WAT      O51562   7.768   2.326   4.113
17107WAT     H151563   7.698   2.291   4.176
17107WAT     H251564   7.728   2.338   4.022
17108WAT      O51565   9.147   5.959   1.944
17108WAT     H151566   9.129   6.055   1.965
17108WAT     H251567   9.107   5.937   1.855
17109WAT      O51568   4.308   0.290   4.252
17109WAT     H151569   4.358   0.364   4.297
17109WAT     H251570   4.210   0.304   4.264
17110WAT      O51571   6.607   0.714   1.652
17110WAT     H151572   6.680   0.648   1.637
17110WAT     H251573   6.643   0.807   1.641
17111WAT      O51574   9.322   1.959   7.858
17111WAT     H151575   9.269   1.937   7.776
17111WAT     H251576   9.419   1.962   7.834
17112WAT      O51577   2.650   3.506   5.104
17112WAT     H151578   2.628   3.563   5.183
17112WAT     H251579   2.571   3.448   5.082
17113WAT      O51580   9.772   9.508   6.945
17113WAT     H151581   9.863   9.467   6.950
17113WAT     H251582   9.774   9.599   6.986
17114WAT      O51583   8.575   3.842   6.169
17114WAT     H151584   8.568   3.768   6.235
17114WAT     H251585   8.586   3.929   6.217
17115WAT      O51586   2.040   2.616   1.522
17115WAT     H151587   2.029   2.651   1.429
17115WAT     H251588   2.069   2.691   1.582
17116WAT      O51589   8.307   7.525   0.815
17116WAT     H151590   8.329   7.465   0.892
17116WAT     H251591   8.232   7.586   0.841
17117WAT      O51592   2.050   8.976   5.949
17117WAT     H151593   2.030   8.879   5.936
17117WAT     H251594   2.070   8.993   6.045
17118WAT      O51595   7.613   9.032   0.722
17118WAT     H151596   7.575   9.099   0.658
17118WAT     H251597   7.713   9.039   0.723
17119WAT      O51598   1.078   3.769   3.485
17119WAT     H151599   1.021   3.687   3.479
17119WAT     H251600   1.087   3.795   3.582
17120WAT      O51601   1.418   0.603   5.791
17120WAT     H151602   1.332   0.624   5.744
17120WAT     H251603   1.454   0.516   5.757
17121WAT      O51604   5.907   9.600   6.337
17121WAT     H151605   5.834   9.556   6.390
17121WAT     H251606   5.882   9.695   6.318
17122WAT      O51607   1.944   0.142   5.526
17122WAT     H151608   2.013   0.212   5.545
17122WAT     H251609   1.891   0.124   5.608
17123WAT      O51610   5.720   0.074   7.620
17123WAT     H151611   5.775   0.036   7.546
17123WAT     H251612   5.753   0.040   7.707
17124WAT      O51613   4.501   7.946   3.736
17124WAT     H151614   4.469   7.953   3.642
17124WAT     H251615   4.477   8.029   3.786
17125WAT      O51616   2.502   3.967   8.883
17125WAT     H151617   2.540   4.043   8.828
17125WAT     H251618   2.411   3.944   8.849
17126WAT      O51619   0.063   6.648   8.545
17126WAT     H151620   0.084   6.550   8.554
17126WAT     H251621   0.034   6.668   8.451
17127WAT      O51622   2.845   1.362   5.245
17127WAT     H151623   2.943   1.364   5.226
17127WAT     H251624   2.796   1.335   5.163
17128WAT      O51625   6.491   4.145   3.274
17128WAT     H151626   6.520   4.147   3.178
17128WAT     H251627   6.409   4.201   3.285
17129WAT      O51628   0.878   5.127   8.465
17129WAT     H151629   0.874   5.067   8.544
17129WAT     H251630   0.916   5.077   8.387
17130WAT      O51631   8.673   4.369   2.171
17130WAT     H151632   8.742   4.307   2.136
17130WAT     H251633   8.652   4.346   2.266
17131WAT      O51634   6.562   4.681   2.949
17131WAT     H151635   6.657   4.685   2.919
17131WAT     H251636   6.509   4.751   2.901
17132WAT      O51637   1.966   1.435   8.371
17132WAT     H151638   1.932   1.453   8.279
17132WAT     H251639   1.898   1.385   8.423
17133WAT      O51640   9.659   1.087   1.923
17133WAT     H151641   9.654   1.184   1.943
17133WAT     H251642   9.589   1.038   1.975
17134WAT      O51643   4.470   3.918   4.290
17134WAT     H151644   4.529   3.920   4.209
17134WAT     H251645   4.502   3.986   4.356
17135WAT      O51646   3.488   0.739   5.174
17135WAT     H151647   3.561   0.796   5.213
17135WAT     H251648   3.445   0.788   5.098
17136WAT      O51649   1.759   6.492   7.772
17136WAT     H151650   1.802   6.569   7.820
17136WAT     H251651   1.783   6.407   7.819
17137WAT      O51652   7.787   1.402   7.295
17137WAT     H151653   7.796   1.487   7.243
17137WAT     H251654   7.758   1.328   7.234
17138WAT      O51655   5.627   2.914   4.385
17138WAT     H151656   5.568   2.843   4.346
17138WAT     H251657   5.711   2.873   4.420
17139WAT      O51658   9.031   7.413   4.126
17139WAT     H151659   9.131   7.412   4.126
17139WAT     H251660   8.998   7.376   4.213
17140WAT      O51661   8.995   4.017   1.566
17140WAT     H151662   9.091   4.018   1.594
17140WAT     H251663   8.963   4.111   1.554
17141WAT      O51664   7.059   1.731   0.239
17141WAT     H151665   6.970   1.707   0.279
17141WAT     H251666   7.097   1.651   0.192
17142WAT      O51667   9.373   9.336   5.655
17142WAT     H151668   9.439   9.289   5.714
17142WAT     H251669   9.418   9.411   5.607
17143WAT      O51670   6.249   7.934   8.539
17143WAT     H151671   6.258   7.996   8.461
17143WAT     H251672   6.235   7.841   8.506
17144WAT      O51673   7.604   2.267   0.528
17144WAT     H151674   7.523   2.208   0.522
17144WAT     H251675   7.671   2.239   0.459
17145WAT      O51676   5.466   9.624   7.689
17145WAT     H151677   5.565   9.630   7.698
17145WAT     H251678   5.434   9.695   7.626
17146WAT      O51679   0.073   0.214   3.850
17146WAT     H151680   0.165   0.180   3.866
17146WAT     H251681   0.014   0.188   3.927
17147WAT      O51682   7.061   7.242   9.479
17147WAT     H151683   6.964   7.231   9.502
17147WAT     H251684   7.093   7.330   9.512
17148WAT      O51685   8.389   6.422   6.330
17148WAT     H151686   8.290   6.421   6.325
17148WAT     H251687   8.427   6.360   6.262
17149WAT      O51688   8.223   0.987   4.725
17149WAT     H151689   8.227   0.939   4.637
17149WAT     H251690   8.304   1.045   4.735
17150WAT      O51691   3.635   5.052   1.950
17150WAT     H151692   3.625   5.019   1.856
17150WAT     H251693   3.731   5.072   1.969
17151WAT      O51694   6.233   3.279   0.976
17151WAT     H151695   6.301   3.320   0.915
17151WAT     H251696   6.213   3.186   0.945
17152WAT      O51697   6.644   3.205   6.784
17152WAT     H151698   6.626   3.190   6.687
17152WAT     H251699   6.717   3.143   6.814
17153WAT      O51700   3.881   4.312   7.951
17153WAT     H151701   3.961   4.364   7.922
17153WAT     H251702   3.856   4.339   8.044
17154WAT      O51703   2.460   1.905   3.794
17154WAT     H151704   2.507   1.941   3.875
17154WAT     H251705   2.400   1.830   3.821
17155WAT      O51706   8.174   5.359   2.625
17155WAT     H151707   8.138   5.321   2.540
17155WAT     H251708   8.273   5.343   2.629
17156WAT      O51709   8.619   6.562   9.889
17156WAT     H151710   8.581   6.653   9.908
17156WAT     H251711   8.711   6.557   9.927
17157WAT      O51712   9.764   1.974   7.451
17157WAT     H151713   9.842   1.934   7.499
17157WAT     H251714   9.758   1.936   7.359
17158WAT      O51715   1.554   7.796   1.039
17158WAT     H151716   1.516   7.704   1.038
17158WAT     H251717   1.480   7.863   1.040
17159WAT      O51718   9.474   3.185   0.729
17159WAT     H151719   9.414   3.247   0.779
17159WAT     H251720   9.520   3.234   0.655
17160WAT      O51721   5.717   0.036   2.335
17160WAT     H151722   5.653   0.046   2.411
17160WAT     H251723   5.677  -0.024   2.266
17161WAT      O51724   8.942   0.120   7.110
17161WAT     H151725   8.887   0.057   7.165
17161WAT     H251726   9.038   0.113   7.136
17162WAT      O51727   5.836   3.178   6.766
17162WAT     H151728   5.904   3.244   6.735
17162WAT     H251729   5.868   3.086   6.748
17163WAT      O51730   1.654   5.684   5.436
17163WAT     H151731   1.663   5.652   5.342
17163WAT     H251732   1.746   5.702   5.474
17164WAT      O51733   7.581   2.225   4.291
17164WAT     H151734   7.558   2.130   4.267
17164WAT     H251735   7.515   2.259   4.358
17165WAT      O51736   7.692   2.941   0.105
17165WAT     H151737   7.773   2.904   0.060
17165WAT     H251738   7.713   2.957   0.202
17166WAT      O51739   6.546   1.491   1.053
17166WAT     H151740   6.503   1.563   1.107
17166WAT     H251741   6.568   1.527   0.962
17167WAT      O51742   7.732   0.930   7.419
17167WAT     H151743   7.690   0.862   7.479
17167WAT     H251744   7.790   0.885   7.352
17168WAT      O51745   9.219   1.021   7.934
17168WAT     H151746   9.244   1.079   7.857
17168WAT     H251747   9.124   1.038   7.960
17169WAT      O51748   1.209   9.080   5.215
17169WAT     H151749   1.292   9.131   5.237
17169WAT     H251750   1.234   8.993   5.171
17170WAT      O51751   9.688   5.897   6.621
17170WAT     H151752   9.758   5.869   6.687
17170WAT     H251753   9.598   5.891   6.663
17171WAT      O51754   4.422   4.752   6.924
17171WAT     H151755   4.391   4.842   6.953
17171WAT     H251756   4.474   4.760   6.839
17172WAT      O51757   0.583   4.916   4.576
17172WAT     H151758   0.591   4.995   4.515
17172WAT     H251759   0.621   4.939   4.665
17173WAT      O51760   0.186   1.552   8.680
17173WAT     H151761   0.214   1.557   8.584
17173WAT     H251762   0.091   1.523   8.686
17174WAT      O51763   4.544   9.838   3.543
17174WAT     H151764   4.605   9.882   3.610
17174WAT     H251765   4.556   9.739   3.547
17175WAT      O51766   8.994   8.229   2.027
17175WAT     H151767   8.954   8.305   1.976
17175WAT     H251768   9.094   8.233   2.020
17176WAT      O51769   8.234   5.213   2.887
17176WAT     H151770   8.144   5.183   2.856
17176WAT     H251771   8.259   5.298   2.841
17177WAT      O51772   6.970   2.348   2.927
17177WAT     H151773   7.010   2.414   2.991
17177WAT     H251774   7.008   2.361   2.836
17178WAT      O51775   7.849   3.878   6.940
17178WAT     H151776   7.766   3.844   6.895
17178WAT     H251777   7.825   3.929   7.022
17179WAT      O51778   7.157   3.884   9.266
17179WAT     H151779   7.204   3.969   9.288
17179WAT     H251780   7.088   3.901   9.196
17180WAT      O51781   5.770   2.718   2.441
17180WAT     H151782   5.751   2.621   2.421
17180WAT     H251783   5.763   2.771   2.356
17181WAT      O51784   8.214   4.829   6.642
17181WAT     H151785   8.303   4.792   6.668
17181WAT     H251786   8.219   4.863   6.548
17182WAT      O51787   4.825   9.478   8.166
17182WAT     H151788   4.741   9.468   8.113
17182WAT     H251789   4.803   9.481   8.264
17183WAT      O51790   8.597   2.860   2.750
17183WAT     H151791   8.590   2.762   2.730
17183WAT     H251792   8.507   2.897   2.770
17184WAT      O51793   1.756   4.742   4.627
17184WAT     H151794   1.711   4.828   4.601
17184WAT     H251795   1.688   4.669   4.628
17185WAT      O51796   5.547   9.311   3.156
17185WAT     H151797   5.513   9.353   3.073
17185WAT     H251798   5.647   9.305   3.152
17186WAT      O51799   6.692   1.593   2.882
17186WAT     H151800   6.703   1.606   2.783
17186WAT     H251801   6.694   1.682   2.927
17187WAT      O51802   7.666   8.045   2.159
17187WAT     H151803   7.584   8.063   2.105
17187WAT     H251804   7.664   8.101   2.241
17188WAT      O51805   8.771   8.619   9.137
17188WAT     H151806   8.803   8.562   9.061
17188WAT     H251807   8.763   8.564   9.220
17189WAT      O51808   4.105   2.324   9.097
17189WAT     H151809   4.106   2.422   9.121
17189WAT     H251810   4.163   2.274   9.161
17190WAT      O51811   4.168   4.791   9.677
17190WAT     H151812   4.141   4.799   9.581
17190WAT     H251813   4.087   4.793   9.735
17191WAT      O51814   5.861   8.531   0.348
17191WAT     H151815   5.960   8.519   0.334
17191WAT     H251816   5.816   8.442   0.353
17192WAT      O51817   6.525   6.313   5.655
17192WAT     H151818   6.556   6.380   5.588
17192WAT     H251819   6.518   6.356   5.745
17193WAT      O51820   6.460   9.601   7.041
17193WAT     H151821   6.475   9.699   7.050
17193WAT     H251822   6.437   9.579   6.946
17194WAT      O51823   4.180   8.612   2.655
17194WAT     H151824   4.252   8.591   2.588
17194WAT     H251825   4.142   8.527   2.691
17195WAT      O51826   4.020   5.028   3.662
17195WAT     H151827   4.083   5.031   3.740
17195WAT     H251828   4.069   4.998   3.581
17196WAT      O51829   8.456   4.905   1.397
17196WAT     H151830   8.430   4.813   1.429
17196WAT     H251831   8.545   4.900   1.352
17197WAT      O51832   4.067   4.684   8.205
17197WAT     H151833   4.038   4.592   8.228
17197WAT     H251834   4.130   4.681   8.128
17198WAT      O51835   3.406   2.060   7.671
17198WAT     H151836   3.436   1.980   7.618
17198WAT     H251837   3.338   2.031   7.739
17199WAT      O51838   3.802   6.197   9.139
17199WAT     H151839   3.797   6.106   9.178
17199WAT     H251840   3.884   6.244   9.173
17200WAT      O51841   5.204   4.491   7.336
17200WAT     H151842   5.209   4.447   7.246
17200WAT     H251843   5.202   4.422   7.407
17201WAT      O51844   0.013   8.378   8.112
17201WAT     H151845   0.062   8.330   8.185
17201WAT     H251846  -0.033   8.458   8.150
17202WAT      O51847   7.894   4.329   3.297
17202WAT     H151848   7.965   4.398   3.307
17202WAT     H251849   7.860   4.329   3.203
17203WAT      O51850   6.658   7.797   4.583
17203WAT     H151851   6.692   7.705   4.603
17203WAT     H251852   6.652   7.809   4.484
17204WAT      O51853   1.040   8.180   3.333
17204WAT     H151854   0.980   8.259   3.345
17204WAT     H251855   1.047   8.158   3.236
17205WAT      O51856   2.175   1.427   9.708
17205WAT     H151857   2.194   1.349   9.649
17205WAT     H251858   2.102   1.483   9.667
17206WAT      O51859   9.451   5.109   9.334
17206WAT     H151860   9.383   5.041   9.305
17206WAT     H251861   9.423   5.199   9.300
17207WAT      O51862   5.233   8.645   7.822
17207WAT     H151863   5.271   8.725   7.776
17207WAT     H251864   5.136   8.659   7.840
17208WAT      O51865   3.540   1.878   5.819
17208WAT     H151866   3.503   1.877   5.726
17208WAT     H251867   3.491   1.811   5.875
17209WAT      O51868   2.088   2.232   3.662
17209WAT     H151869   2.186   2.254   3.656
17209WAT     H251870   2.055   2.200   3.573
17210WAT      O51871   1.276   9.670   3.312
17210WAT     H151872   1.332   9.690   3.231
17210WAT     H251873   1.292   9.741   3.381
17211WAT      O51874   1.485   7.900   5.004
17211WAT     H151875   1.416   7.891   5.076
17211WAT     H251876   1.509   7.997   4.994
17212WAT      O51877   4.959   0.217   1.941
17212WAT     H151878   4.935   0.274   2.019
17212WAT     H251879   5.057   0.226   1.922
17213WAT      O51880   8.427   8.220   9.542
17213WAT     H151881   8.331   8.205   9.569
17213WAT     H251882   8.461   8.139   9.494
17214WAT      O51883   2.755   9.287   5.662
17214WAT     H151884   2.795   9.316   5.575
17214WAT     H251885   2.819   9.227   5.710
17215WAT      O51886   9.297   9.441   1.461
17215WAT     H151887   9.206   9.439   1.420
17215WAT     H251888   9.336   9.533   1.452
17216WAT      O51889   6.097   8.165   8.862
17216WAT     H151890   6.154   8.118   8.929
17216WAT     H251891   6.052   8.098   8.803
17217WAT      O51892   9.049   1.479   1.538
17217WAT     H151893   8.962   1.527   1.553
17217WAT     H251894   9.032   1.391   1.495
17218WAT      O51895   3.902   6.492   3.788
17218WAT     H151896   3.899   6.400   3.827
17218WAT     H251897   3.880   6.489   3.691
17219WAT      O51898   7.969   2.130   7.334
17219WAT     H151899   8.019   2.197   7.279
17219WAT     H251900   8.017   2.115   7.420
17220WAT      O51901   0.620   7.306   4.501
17220WAT     H151902   0.564   7.223   4.493
17220WAT     H251903   0.713   7.281   4.530
17221WAT      O51904   1.003   2.424   8.047
17221WAT     H151905   1.001   2.325   8.035
17221WAT     H251906   1.095   2.453   8.072
17222WAT      O51907   4.155   4.413   3.592
17222WAT     H151908   4.213   4.445   3.517
17222WAT     H251909   4.164   4.475   3.669
17223WAT      O51910   2.912   6.249   1.781
17223WAT     H151911   2.938   6.170   1.837
17223WAT     H251912   2.834   6.224   1.724
17224WAT      O51913   8.203   0.932   6.502
17224WAT     H151914   8.133   0.975   6.445
17224WAT     H251915   8.165   0.852   6.548
17225WAT      O51916   6.776   0.271   2.779
17225WAT     H151917   6.729   0.187   2.754
17225WAT     H251918   6.875   0.257   2.771
17226WAT      O51919   6.415   6.193   7.311
17226WAT     H151920   6.316   6.201   7.321
17226WAT     H251921   6.443   6.235   7.224
17227WAT      O51922   2.271   3.858   2.281
17227WAT     H151923   2.200   3.810   2.332
17227WAT     H251924   2.332   3.792   2.237
17228WAT      O51925   0.014   5.145   0.789
17228WAT     H151926  -0.001   5.072   0.856
17228WAT     H251927  -0.068   5.157   0.734
17229WAT      O51928   7.342   1.634   3.991
17229WAT     H151929   7.276   1.587   3.932
17229WAT     H251930   7.380   1.568   4.056
17230WAT      O51931   0.849   8.149   3.715
17230WAT     H151932   0.937   8.151   3.764
17230WAT     H251933   0.778   8.188   3.773
17231WAT      O51934   5.296   5.509   6.125
17231WAT     H151935   5.270   5.605   6.113
17231WAT     H251936   5.233   5.451   6.073
17232WAT      O51937   7.788   7.521   8.570
17232WAT     H151938   7.788   7.610   8.524
17232WAT     H251939   7.833   7.453   8.512
17233WAT      O51940   6.157   6.194   7.418
17233WAT     H151941   6.095   6.128   7.376
17233WAT     H251942   6.207   6.150   7.493
17234WAT      O51943   2.437   1.441   0.937
17234WAT     H151944   2.362   1.504   0.914
17234WAT     H251945   2.433   1.361   0.877
17235WAT      O51946   6.944   1.723   1.457
17235WAT     H151947   6.894   1.673   1.387
17235WAT     H251948   7.034   1.681   1.471
17236WAT      O51949   5.437   5.543   8.585
17236WAT     H151950   5.377   5.568   8.509
17236WAT     H251951   5.531   5.535   8.551
17237WAT      O51952   3.105   6.759   8.665
17237WAT     H151953   3.028   6.820   8.645
17237WAT     H251954   3.099   6.678   8.608
17238WAT      O51955   3.661   5.430   1.414
17238WAT     H151956   3.725   5.424   1.338
17238WAT     H251957   3.598   5.352   1.411
17239WAT      O51958   6.037   2.344   3.097
17239WAT     H151959   6.006   2.435   3.071
17239WAT     H251960   6.137   2.343   3.105
17240WAT      O51961   9.309   8.780   1.647
17240WAT     H151962   9.225   8.779   1.593
17240WAT     H251963   9.381   8.732   1.597
17241WAT      O51964   0.935   3.580   0.306
17241WAT     H151965   0.932   3.522   0.387
17241WAT     H251966   1.026   3.577   0.265
17242WAT      O51967   2.523   5.249   0.254
17242WAT     H151968   2.559   5.343   0.255
17242WAT     H251969   2.444   5.245   0.193
17243WAT      O51970   8.347   3.113   1.877
17243WAT     H151971   8.335   3.051   1.799
17243WAT     H251972   8.384   3.200   1.844
17244WAT      O51973   8.698   1.533   0.178
17244WAT     H151974   8.715   1.501   0.272
17244WAT     H251975   8.662   1.458   0.123
17245WAT      O51976   1.263   3.983   2.324
17245WAT     H151977   1.304   3.893   2.308
17245WAT     H251978   1.184   3.995   2.265
17246WAT      O51979   5.710   2.885   6.405
17246WAT     H151980   5.650   2.909   6.329
17246WAT     H251981   5.754   2.797   6.386
17247WAT      O51982   1.173   1.229   8.321
17247WAT     H151983   1.129   1.318   8.306
17247WAT     H251984   1.134   1.162   8.259
17248WAT      O51985   1.267   7.224   0.073
17248WAT     H151986   1.321   7.148   0.110
17248WAT     H251987   1.242   7.287   0.147
17249WAT      O51988   2.346   1.684   3.900
17249WAT     H151989   2.401   1.683   3.983
17249WAT     H251990   2.342   1.592   3.861
17250WAT      O51991   0.827   5.775   2.184
17250WAT     H151992   0.896   5.843   2.160
17250WAT     H251993   0.771   5.754   2.103
17251WAT      O51994   5.582   4.423   0.518
17251WAT     H151995   5.554   4.418   0.422
17251WAT     H251996   5.518   4.371   0.574
17252WAT      O51997   2.736   8.451   8.075
17252WAT     H151998   2.786   8.413   7.997
17252WAT     H251999   2.650   8.402   8.087
17253WAT      O52000   6.792   8.444   9.418
17253WAT     H152001   6.774   8.538   9.390
17253WAT     H252002   6.872   8.442   9.477
17254WAT      O52003   0.338   1.468   1.118
17254WAT     H152004   0.387   1.381   1.112
17254WAT     H252005   0.293   1.474   1.207
17255WAT      O52006   3.198   6.966   3.524
17255WAT     H152007   3.237   6.997   3.437
17255WAT     H252008   3.202   6.866   3.529
17256WAT      O52009   8.748   0.719   6.132
17256WAT     H152010   8.698   0.750   6.213
17256WAT     H252011   8.706   0.636   6.096
17257WAT      O52012   7.088   7.440   2.613
17257WAT     H152013   7.114   7.373   2.682
17257WAT     H252014   7.027   7.398   2.546
17258WAT      O52015   0.523   7.018   4.057
17258WAT     H152016   0.528   6.923   4.086
17258WAT     H252017   0.603   7.068   4.091
17259WAT      O52018   7.127   6.363   8.043
17259WAT     H152019   7.078   6.418   8.110
17259WAT     H252020   7.203   6.416   8.005
17260WAT      O52021   5.796   6.896   9.116
17260WAT     H152022   5.826   6.804   9.139
17260WAT     H252023   5.782   6.948   9.201
17261WAT      O52024   0.688   2.119   6.548
17261WAT     H152025   0.658   2.116   6.643
17261WAT     H252026   0.642   2.047   6.496
17262WAT      O52027   7.596   6.596   7.802
17262WAT     H152028   7.658   6.617   7.878
17262WAT     H252029   7.640   6.620   7.716
17263WAT      O52030   7.801   2.762   4.283
17263WAT     H152031   7.857   2.770   4.366
17263WAT     H252032   7.803   2.848   4.233
17264WAT      O52033   5.630   4.718   2.936
17264WAT     H152034   5.558   4.679   2.993
17264WAT     H252035   5.718   4.706   2.982
17265WAT      O52036   5.738   0.693   0.060
17265WAT     H152037   5.675   0.615   0.055
17265WAT     H252038   5.688   0.778   0.046
17266WAT      O52039   3.322   7.436   8.574
17266WAT     H152040   3.372   7.350   8.561
17266WAT     H252041   3.303   7.449   8.671
17267WAT      O52042   1.858   6.420   6.015
17267WAT     H152043   1.813   6.437   6.102
17267WAT     H252044   1.852   6.323   5.992
17268WAT      O52045   4.416   9.057   2.077
17268WAT     H152046   4.491   9.059   2.011
17268WAT     H252047   4.440   9.112   2.157
17269WAT      O52048   1.547   4.987   9.214
17269WAT     H152049   1.641   4.956   9.202
17269WAT     H252050   1.523   4.984   9.311
17270WAT      O52051   8.597   1.892   8.257
17270WAT     H152052   8.660   1.842   8.317
17270WAT     H252053   8.646   1.922   8.176
17271WAT      O52054   1.933   1.196   6.331
17271WAT     H152055   1.897   1.221   6.421
17271WAT     H252056   1.905   1.103   6.308
17272WAT      O52057   4.615   9.806   6.069
17272WAT     H152058   4.615   9.882   6.004
17272WAT     H252059   4.581   9.837   6.157
17273WAT      O52060   7.800   1.345   2.218
17273WAT     H152061   7.804   1.269   2.153
17273WAT     H252062   7.766   1.426   2.172
17274WAT      O52063   2.275   7.851   7.714
17274WAT     H152064   2.369   7.841   7.681
17274WAT     H252065   2.275   7.861   7.813
17275WAT      O52066   7.475   0.478   4.319
17275WAT     H152067   7.497   0.381   4.310
17275WAT     H252068   7.378   0.492   4.299
17276WAT      O52069   1.776   7.980   2.688
17276WAT     H152070   1.726   8.059   2.724
17276WAT     H252071   1.847   8.012   2.625
17277WAT      O52072   6.913   2.943   5.234
17277WAT     H152073   6.995   2.922   5.286
17277WAT     H252074   6.939   2.984   5.146
17278WAT      O52075   0.015   3.064   8.739
17278WAT     H152076   0.105   3.038   8.775
17278WAT     H252077  -0.015   2.995   8.673
17279WAT      O52078   1.209   1.700   7.113
17279WAT     H152079   1.158   1.727   7.195
17279WAT     H252080   1.147   1.653   7.050
17280WAT      O52081   6.885   9.620   7.258
17280WAT     H152082   6.837   9.687   7.315
17280WAT     H252083   6.820   9.576   7.196
17281WAT      O52084   8.469   3.144   8.306
17281WAT     H152085   8.409   3.223   8.308
17281WAT     H252086   8.478   3.111   8.212
17282WAT      O52087   5.970   8.922   7.355
17282WAT     H152088   5.875   8.914   7.325
17282WAT     H252089   5.988   9.016   7.383
17283WAT      O52090   9.312   2.429   0.517
17283WAT     H152091   9.354   2.488   0.586
17283WAT     H252092   9.287   2.342   0.559
17284WAT      O52093   1.915   5.307   8.395
17284WAT     H152094   1.837   5.335   8.340
17284WAT     H252095   1.914   5.208   8.408
17285WAT      O52096   3.528   2.811   3.449
17285WAT     H152097   3.584   2.734   3.418
17285WAT     H252098   3.587   2.881   3.490
17286WAT      O52099   8.035   2.770   9.038
17286WAT     H152100   7.992   2.706   9.102
17286WAT     H252101   8.039   2.861   9.080
17287WAT      O52102   5.161   9.693   2.419
17287WAT     H152103   5.081   9.651   2.376
17287WAT     H252104   5.193   9.634   2.493
17288WAT      O52105   5.890   1.884   0.942
17288WAT     H152106   5.982   1.863   0.911
17288WAT     H252107   5.882   1.982   0.959
17289WAT      O52108   1.848   4.304   5.878
17289WAT     H152109   1.770   4.251   5.911
17289WAT     H252110   1.926   4.288   5.938
17290WAT      O52111   7.913   7.252   6.437
17290WAT     H152112   8.003   7.290   6.461
17290WAT     H252113   7.907   7.158   6.470
17291WAT      O52114   7.506   6.659   8.694
17291WAT     H152115   7.419   6.707   8.678
17291WAT     H252116   7.488   6.562   8.706
17292WAT      O52117   4.225   2.372   0.788
17292WAT     H152118   4.127   2.393   0.793
17292WAT     H252119   4.248   2.344   0.695
17293WAT      O52120   0.380   2.825   2.518
17293WAT     H152121   0.282   2.842   2.526
17293WAT     H252122   0.431   2.898   2.563
17294WAT      O52123   9.546   6.791   9.642
17294WAT     H152124   9.553   6.869   9.580
17294WAT     H252125   9.628   6.735   9.632
17295WAT      O52126   0.575   2.039   6.795
17295WAT     H152127   0.492   2.081   6.832
17295WAT     H252128   0.592   1.952   6.841
17296WAT      O52129   5.946   0.677   7.378
17296WAT     H152130   6.020   0.611   7.378
17296WAT     H252131   5.868   0.640   7.429
17297WAT      O52132   3.028   5.190   7.670
17297WAT     H152133   3.045   5.269   7.612
17297WAT     H252134   3.086   5.194   7.751
17298WAT      O52135   4.583   0.101   1.872
17298WAT     H152136   4.606   0.060   1.960
17298WAT     H252137   4.528   0.036   1.819
17299WAT      O52138   5.772   8.652   8.404
17299WAT     H152139   5.696   8.660   8.468
17299WAT     H252140   5.745   8.596   8.326
17300WAT      O52141  -0.000   5.863   8.946
17300WAT     H152142   0.094   5.886   8.973
17300WAT     H252143  -0.001   5.825   8.854
17301WAT      O52144   5.759   0.301   8.913
17301WAT     H152145   5.748   0.266   8.820
17301WAT     H252146   5.850   0.278   8.947
17302WAT      O52147   3.915   4.946   9.300
17302WAT     H152148   3.902   4.954   9.201
17302WAT     H252149   3.904   5.036   9.342
17303WAT      O52150   3.761   9.400   1.745
17303WAT     H152151   3.668   9.432   1.766
17303WAT     H252152   3.756   9.312   1.698
17304WAT      O52153   4.594   5.909   8.718
17304WAT     H152154   4.521   5.844   8.739
17304WAT     H252155   4.559   5.979   8.655
17305WAT      O52156   3.658   4.483   7.870
17305WAT     H152157   3.718   4.416   7.913
17305WAT     H252158   3.666   4.476   7.771
17306WAT      O52159   0.501   3.479   3.142
17306WAT     H152160   0.492   3.493   3.241
17306WAT     H252161   0.576   3.416   3.124
17307WAT      O52162   4.233   6.560   1.659
17307WAT     H152163   4.255   6.524   1.568
17307WAT     H252164   4.287   6.510   1.728
17308WAT      O52165   0.704   6.022   2.917
17308WAT     H152166   0.681   5.925   2.917
17308WAT     H252167   0.797   6.034   2.882
17309WAT      O52168   3.943   0.033   7.664
17309WAT     H152169   3.994  -0.053   7.665
17309WAT     H252170   3.876   0.032   7.589
17310WAT      O52171   0.475   5.996   0.779
17310WAT     H152172   0.535   5.975   0.856
17310WAT     H252173   0.380   5.977   0.804
17311WAT      O52174   7.254   2.619   4.778
17311WAT     H152175   7.173   2.668   4.813
17311WAT     H252176   7.239   2.596   4.681
17312WAT      O52177   9.573   4.472   2.076
17312WAT     H152178   9.600   4.550   2.132
17312WAT     H252179   9.508   4.415   2.127
17313WAT      O52180   6.665   5.431   2.737
17313WAT     H152181   6.646   5.348   2.685
17313WAT     H252182   6.583   5.460   2.785
17314WAT      O52183   5.101   8.402   8.127
17314WAT     H152184   5.121   8.335   8.198
17314WAT     H252185   5.154   8.485   8.144
17315WAT      O52186   5.450   6.793   5.506
17315WAT     H152187   5.395   6.870   5.472
17315WAT     H252188   5.458   6.724   5.434
17316WAT      O52189   7.458   5.384   7.245
17316WAT     H152190   7.498   5.462   7.197
17316WAT     H252191   7.363   5.406   7.270
17317WAT      O52192   5.037   7.974   7.788
17317WAT     H152193   5.073   8.062   7.820
17317WAT     H252194   4.938   7.978   7.782
17318WAT      O52195   0.078   8.353   2.084
17318WAT     H152196   0.051   8.288   2.155
17318WAT     H252197   0.078   8.308   1.995
17319WAT      O52198   8.816   0.359   3.955
17319WAT     H152199   8.825   0.278   4.014
17319WAT     H252200   8.845   0.440   4.006
17320WAT      O52201   9.406   5.893   7.152
17320WAT     H152202   9.372   5.971   7.205
17320WAT     H252203   9.506   5.894   7.150
17321WAT      O52204   2.726   2.459   1.865
17321WAT     H152205   2.800   2.397   1.838
17321WAT     H252206   2.730   2.475   1.964
17322WAT      O52207   9.193   3.168   2.109
17322WAT     H152208   9.100   3.198   2.129
17322WAT     H252209   9.201   3.070   2.127
17323WAT      O52210   6.386   9.485   3.278
17323WAT     H152211   6.428   9.395   3.277
17323WAT     H252212   6.287   9.476   3.286
17324WAT      O52213   3.782   4.115   1.787
17324WAT     H152214   3.746   4.073   1.704
17324WAT     H252215   3.859   4.061   1.822
17325WAT      O52216   0.711   4.254   9.789
17325WAT     H152217   0.769   4.300   9.856
17325WAT     H252218   0.753   4.167   9.762
17326WAT      O52219   0.125   0.062   6.199
17326WAT     H152220   0.151   0.051   6.295
17326WAT     H252221   0.027   0.044   6.188
17327WAT      O52222   7.375   2.370   5.781
17327WAT     H152223   7.303   2.397   5.716
17327WAT     H252224   7.377   2.271   5.790
17328WAT      O52225   1.479   2.030   6.697
17328WAT     H152226   1.511   2.111   6.646
17328WAT     H252227   1.500   1.948   6.644
17329WAT      O52228   7.009   6.878   2.401
17329WAT     H152229   7.079   6.949   2.415
17329WAT     H252230   6.924   6.907   2.445
17330WAT      O52231   6.033   4.274   9.156
17330WAT     H152232   6.043   4.354   9.096
17330WAT     H252233   6.085   4.198   9.118
17331WAT      O52234   1.061   0.813   7.882
17331WAT     H152235   1.048   0.889   7.819
17331WAT     H252236   0.973   0.783   7.918
17332WAT      O52237   8.886   3.804   8.435
17332WAT     H152238   8.852   3.805   8.529
17332WAT     H252239   8.899   3.710   8.404
17333WAT      O52240   3.737   3.634   4.582
17333WAT     H152241   3.641   3.663   4.576
17333WAT     H252242   3.767   3.603   4.492
17334WAT      O52243   3.753   9.455   7.453
17334WAT     H152244   3.728   9.472   7.548
17334WAT     H252245   3.693   9.507   7.393
17335WAT      O52246   1.362   5.546   5.205
17335WAT     H152247   1.371   5.612   5.130
17335WAT     H252248   1.402   5.459   5.178
17336WAT      O52249   8.452   5.762   2.329
17336WAT     H152250   8.445   5.856   2.295
17336WAT     H252251   8.368   5.738   2.378
17337WAT      O52252   1.757   9.175   0.349
17337WAT     H152253   1.777   9.250   0.411
17337WAT     H252254   1.713   9.210   0.266
17338WAT      O52255   4.701   7.568   9.356
17338WAT     H152256   4.673   7.620   9.437
17338WAT     H252257   4.636   7.494   9.340
17339WAT      O52258   3.453   2.687   9.180
17339WAT     H152259   3.537   2.709   9.129
17339WAT     H252260   3.374   2.723   9.130
17340WAT      O52261   3.280   5.468   7.423
17340WAT     H152262   3.183   5.464   7.445
17340WAT     H252263   3.321   5.378   7.439
17341WAT      O52264   3.570   7.334   7.454
17341WAT     H152265   3.577   7.353   7.357
17341WAT     H252266   3.610   7.244   7.474
17342WAT      O52267   9.631   7.612   1.234
17342WAT     H152268   9.543   7.658   1.217
17342WAT     H252269   9.705   7.678   1.226
17343WAT      O52270   8.847   8.018   1.959
17343WAT     H152271   8.922   8.080   1.985
17343WAT     H252272   8.824   8.034   1.863
17344WAT      O52273   8.097   7.726   0.047
17344WAT     H152274   8.034   7.649   0.053
17344WAT     H252275   8.159   7.713  -0.030
17345WAT      O52276   9.735   5.333   5.132
17345WAT     H152277   9.750   5.381   5.046
17345WAT     H252278   9.640   5.302   5.137
17346WAT      O52279   3.820   2.442   7.759
17346WAT     H152280   3.811   2.538   7.782
17346WAT     H252281   3.756   2.388   7.814
17347WAT      O52282   9.816   4.316   7.268
17347WAT     H152283   9.785   4.400   7.313
17347WAT     H252284   9.737   4.265   7.236
17348WAT      O52285   3.084   7.705   1.771
17348WAT     H152286   3.019   7.634   1.743
17348WAT     H252287   3.034   7.783   1.809
17349WAT      O52288   9.471   1.373   1.704
17349WAT     H152289   9.468   1.453   1.644
17349WAT     H252290   9.380   1.357   1.742
17350WAT      O52291   9.709   1.344   2.691
17350WAT     H152292   9.727   1.427   2.743
17350WAT     H252293   9.714   1.364   2.593
17351WAT      O52294   3.885   7.028   8.508
17351WAT     H152295   3.838   6.939   8.505
17351WAT     H252296   3.976   7.019   8.469
17352WAT      O52297   8.630   2.027   7.547
17352WAT     H152298   8.631   2.117   7.503
17352WAT     H252299   8.714   1.979   7.524
17353WAT      O52300   2.541   9.074   8.749
17353WAT     H152301   2.585   9.011   8.813
17353WAT     H252302   2.493   9.021   8.678
17354WAT      O52303   0.772   1.066   3.186
17354WAT     H152304   0.739   0.994   3.247
17354WAT     H252305   0.702   1.137   3.179
17355WAT      O52306   4.448   1.585   7.489
17355WAT     H152307   4.486   1.498   7.459
17355WAT     H252308   4.375   1.613   7.427
17356WAT      O52309   6.215   6.893   5.241
17356WAT     H152310   6.237   6.870   5.336
17356WAT     H252311   6.179   6.986   5.237
17357WAT      O52312   8.244   1.592   1.466
17357WAT     H152313   8.240   1.657   1.542
17357WAT     H252314   8.337   1.558   1.456
17358WAT      O52315   4.109   2.708   5.614
17358WAT     H152316   4.045   2.747   5.680
17358WAT     H252317   4.161   2.634   5.657
17359WAT      O52318   4.299   9.272   7.604
17359WAT     H152319   4.366   9.340   7.636
17359WAT     H252320   4.272   9.294   7.510
17360WAT      O52321   6.921   4.734   4.017
17360WAT     H152322   6.992   4.663   4.018
17360WAT     H252323   6.841   4.702   4.067
17361WAT      O52324   2.026   9.493   3.458
17361WAT     H152325   1.964   9.475   3.535
17361WAT     H252326   2.042   9.408   3.408
17362WAT      O52327   9.404   3.692   7.181
17362WAT     H152328   9.399   3.598   7.146
17362WAT     H252329   9.348   3.752   7.125
17363WAT      O52330   0.346   2.411   6.604
17363WAT     H152331   0.310   2.504   6.607
17363WAT     H252332   0.386   2.387   6.692
17364WAT      O52333   3.389   8.267   4.888
17364WAT     H152334   3.354   8.181   4.924
17364WAT     H252335   3.389   8.264   4.788
17365WAT      O52336   5.723   8.661   4.007
17365WAT     H152337   5.674   8.742   4.039
17365WAT     H252338   5.665   8.580   4.017
17366WAT      O52339   2.321   6.155   3.090
17366WAT     H152340   2.246   6.220   3.080
17366WAT     H252341   2.382   6.162   3.011
17367WAT      O52342   7.447   8.884   0.908
17367WAT     H152343   7.440   8.962   0.972
17367WAT     H252344   7.527   8.896   0.850
17368WAT      O52345   1.294   8.028   2.278
17368WAT     H152346   1.390   8.030   2.307
17368WAT     H252347   1.287   8.060   2.183
17369WAT      O52348   7.687   7.641   4.940
17369WAT     H152349   7.754   7.631   4.867
17369WAT     H252350   7.730   7.687   5.018
17370WAT      O52351   0.598   8.600   1.895
17370WAT     H152352   0.669   8.654   1.939
17370WAT     H252353   0.603   8.613   1.796
17371WAT      O52354   8.706   6.841   1.992
17371WAT     H152355   8.774   6.865   2.060
17371WAT     H252356   8.721   6.895   1.909
17372WAT      O52357   7.522   0.541   1.253
17372WAT     H152358   7.600   0.583   1.298
17372WAT     H252359   7.489   0.465   1.308
17373WAT      O52360   7.639   2.117   6.801
17373WAT     H152361   7.592   2.072   6.876
17373WAT     H252362   7.620   2.215   6.804
17374WAT      O52363   8.190   0.195   6.685
17374WAT     H152364   8.155   0.215   6.776
17374WAT     H252365   8.125   0.226   6.616
17375WAT      O52366   8.413   9.133   5.396
17375WAT     H152367   8.407   9.176   5.486
17375WAT     H252368   8.380   9.039   5.401
17376WAT      O52369   0.835   9.608   0.851
17376WAT     H152370   0.923   9.615   0.899
17376WAT     H252371   0.815   9.512   0.832
17377WAT      O52372   6.745   8.510   1.433
17377WAT     H152373   6.821   8.512   1.498
17377WAT     H252374   6.762   8.440   1.364
17378WAT      O52375   3.672   7.177   2.102
17378WAT     H152376   3.668   7.255   2.164
17378WAT     H252377   3.766   7.141   2.101
17379WAT      O52378   2.236   2.439   4.682
17379WAT     H152379   2.280   2.354   4.708
17379WAT     H252380   2.139   2.435   4.706
17380WAT      O52381   8.161   9.810   3.033
17380WAT     H152382   8.085   9.873   3.018
17380WAT     H252383   8.185   9.810   3.130
17381WAT      O52384   9.820   4.217   0.985
17381WAT     H152385   9.907   4.185   0.949
17381WAT     H252386   9.824   4.218   1.085
17382WAT      O52387   2.566   5.960   0.044
17382WAT     H152388   2.615   6.041   0.013
17382WAT     H252389   2.554   5.963   0.143
17383WAT      O52390   7.096   4.753   1.021
17383WAT     H152391   7.014   4.799   0.987
17383WAT     H252392   7.103   4.767   1.120
17384WAT      O52393   8.237   3.927   2.332
17384WAT     H152394   8.200   3.949   2.241
17384WAT     H252395   8.164   3.932   2.400
17385WAT      O52396   2.805   3.852   8.377
17385WAT     H152397   2.716   3.889   8.350
17385WAT     H252398   2.807   3.754   8.358
17386WAT      O52399   6.352   1.819   6.296
17386WAT     H152400   6.402   1.905   6.291
17386WAT     H252401   6.351   1.776   6.205
17387WAT      O52402   5.409   2.742   9.785
17387WAT     H152403   5.463   2.727   9.702
17387WAT     H252404   5.442   2.825   9.831
17388WAT      O52405   2.810   2.818   5.968
17388WAT     H152406   2.823   2.785   6.062
17388WAT     H252407   2.899   2.843   5.929
17389WAT      O52408   1.086   3.527   5.058
17389WAT     H152409   1.051   3.611   5.098
17389WAT     H252410   1.082   3.533   4.958
17390WAT      O52411   9.600   9.200   1.031
17390WAT     H152412   9.561   9.111   1.009
17390WAT     H252413   9.699   9.197   1.018
17391WAT      O52414   6.224   2.724   3.902
17391WAT     H152415   6.131   2.703   3.871
17391WAT     H252416   6.259   2.804   3.853
17392WAT      O52417   7.289   6.236   3.086
17392WAT     H152418   7.291   6.323   3.037
17392WAT     H252419   7.272   6.253   3.183
17393WAT      O52420   6.337   1.296   8.631
17393WAT     H152421   6.294   1.385   8.643
17393WAT     H252422   6.270   1.223   8.647
17394WAT      O52423   5.616   6.324   8.301
17394WAT     H152424   5.629   6.405   8.244
17394WAT     H252425   5.539   6.339   8.364
17395WAT      O52426   4.552   3.508   2.419
17395WAT     H152427   4.602   3.452   2.353
17395WAT     H252428   4.456   3.514   2.392
17396WAT      O52429   8.635   4.651   0.404
17396WAT     H152430   8.633   4.572   0.343
17396WAT     H252431   8.600   4.731   0.355
17397WAT      O52432   8.486   1.973   8.698
17397WAT     H152433   8.430   1.930   8.769
17397WAT     H252434   8.570   1.921   8.685
17398WAT      O52435   2.707   8.674   4.749
17398WAT     H152436   2.663   8.591   4.784
17398WAT     H252437   2.805   8.656   4.736
17399WAT      O52438   1.838   5.703   1.978
17399WAT     H152439   1.803   5.651   1.900
17399WAT     H252440   1.934   5.682   1.993
17400WAT      O52441   4.921   1.113   1.080
17400WAT     H152442   4.980   1.040   1.115
17400WAT     H252443   4.916   1.187   1.147
17401WAT      O52444   7.733   7.777   1.620
17401WAT     H152445   7.661   7.841   1.645
17401WAT     H252446   7.771   7.803   1.531
17402WAT      O52447   3.400   2.967   1.820
17402WAT     H152448   3.473   3.016   1.771
17402WAT     H252449   3.330   2.939   1.755
17403WAT      O52450   4.160   6.734   5.990
17403WAT     H152451   4.208   6.662   5.938
17403WAT     H252452   4.223   6.775   6.056
17404WAT      O52453   7.922   1.906   8.086
17404WAT     H152454   7.893   1.843   8.158
17404WAT     H252455   7.994   1.966   8.121
17405WAT      O52456   9.267   2.549   9.788
17405WAT     H152457   9.322   2.630   9.808
17405WAT     H252458   9.201   2.535   9.862
17406WAT      O52459   0.654   0.709   3.027
17406WAT     H152460   0.696   0.702   3.117
17406WAT     H252461   0.563   0.750   3.034
17407WAT      O52462   2.797   2.456   5.924
17407WAT     H152463   2.887   2.498   5.929
17407WAT     H252464   2.761   2.463   5.831
17408WAT      O52465   9.798   2.208   3.516
17408WAT     H152466   9.886   2.241   3.483
17408WAT     H252467   9.809   2.116   3.555
17409WAT      O52468   3.853   2.753   1.364
17409WAT     H152469   3.806   2.667   1.383
17409WAT     H252470   3.916   2.740   1.288
17410WAT      O52471   3.892   0.789   4.600
17410WAT     H152472   3.914   0.796   4.503
17410WAT     H252473   3.793   0.795   4.612
17411WAT      O52474   9.664   1.937   5.409
17411WAT     H152475   9.735   2.003   5.435
17411WAT     H252476   9.698   1.879   5.335
17412WAT      O52477   8.424   9.300   8.908
17412WAT     H152478   8.394   9.261   8.820
17412WAT     H252479   8.347   9.297   8.973
17413WAT      O52480   5.641   3.038   0.592
17413WAT     H152481   5.576   3.108   0.622
17413WAT     H252482   5.691   3.004   0.671
17414WAT      O52483   9.060   2.492   1.736
17414WAT     H152484   9.146   2.468   1.781
17414WAT     H252485   9.012   2.408   1.708
17415WAT      O52486   1.340   9.588   9.202
17415WAT     H152487   1.337   9.507   9.143
17415WAT     H252488   1.434   9.623   9.205
17416WAT      O52489   4.137   7.590   4.857
17416WAT     H152490   4.141   7.608   4.758
17416WAT     H252491   4.125   7.492   4.873
17417WAT      O52492   1.038   9.102   6.936
17417WAT     H152493   1.106   9.092   6.863
17417WAT     H252494   1.073   9.164   7.006
17418WAT      O52495   1.408   3.991   2.763
17418WAT     H152496   1.505   3.977   2.741
17418WAT     H252497   1.364   4.040   2.688
17419WAT      O52498   3.519   6.264   9.295
17419WAT     H152499   3.502   6.210   9.213
17419WAT     H252500   3.456   6.235   9.367
17420WAT      O52501   6.677   2.434   5.244
17420WAT     H152502   6.620   2.513   5.263
17420WAT     H252503   6.673   2.413   5.146
17421WAT      O52504   7.316   1.595   7.928
17421WAT     H152505   7.224   1.562   7.908
17421WAT     H252506   7.337   1.579   8.025
17422WAT      O52507   2.311   0.813   6.564
17422WAT     H152508   2.375   0.737   6.561
17422WAT     H252509   2.281   0.828   6.658
17423WAT      O52510   8.947   8.808   8.376
17423WAT     H152511   8.939   8.714   8.408
17423WAT     H252512   9.042   8.838   8.381
17424WAT      O52513   4.425   4.956   9.583
17424WAT     H152514   4.363   4.993   9.514
17424WAT     H252515   4.380   4.958   9.673
17425WAT      O52516   5.185   8.555   8.509
17425WAT     H152517   5.114   8.513   8.565
17425WAT     H252518   5.263   8.493   8.500
17426WAT      O52519   2.309   1.232   7.639
17426WAT     H152520   2.220   1.277   7.637
17426WAT     H252521   2.380   1.300   7.657
17427WAT      O52522   5.071   4.432   2.571
17427WAT     H152523   5.014   4.496   2.623
17427WAT     H252524   5.110   4.479   2.492
17428WAT      O52525   0.215   3.214   5.170
17428WAT     H152526   0.307   3.245   5.147
17428WAT     H252527   0.218   3.118   5.196
17429WAT      O52528   7.593   9.002   0.228
17429WAT     H152529   7.574   9.076   0.293
17429WAT     H252530   7.529   9.008   0.151
17430WAT      O52531   8.170   9.696   1.899
17430WAT     H152532   8.246   9.757   1.923
17430WAT     H252533   8.086   9.728   1.942
17431WAT      O52534   1.731   2.868   1.639
17431WAT     H152535   1.632   2.873   1.656
17431WAT     H252536   1.766   2.959   1.618
17432WAT      O52537   1.169   3.212   2.374
17432WAT     H152538   1.242   3.159   2.418
17432WAT     H252539   1.207   3.264   2.298
17433WAT      O52540   5.989   5.597   7.851
17433WAT     H152541   5.896   5.571   7.828
17433WAT     H252542   5.998   5.606   7.950
17434WAT      O52543   0.203   6.019   8.547
17434WAT     H152544   0.105   6.031   8.530
17434WAT     H252545   0.228   6.065   8.632
17435WAT      O52546   6.948   8.891   4.443
17435WAT     H152547   6.990   8.982   4.449
17435WAT     H252548   7.009   8.823   4.484
17436WAT      O52549   0.485   1.742   8.726
17436WAT     H152550   0.512   1.685   8.804
17436WAT     H252551   0.500   1.692   8.641
17437WAT      O52552   5.939   0.364   5.784
17437WAT     H152553   5.969   0.459   5.791
17437WAT     H252554   5.876   0.343   5.858
17438WAT      O52555   9.144   4.633   4.382
17438WAT     H152556   9.110   4.684   4.461
17438WAT     H252557   9.154   4.696   4.304
17439WAT      O52558   5.178   0.227   5.398
17439WAT     H152559   5.164   0.188   5.307
17439WAT     H252560   5.132   0.316   5.404
17440WAT      O52561   4.038   7.415   5.112
17440WAT     H152562   4.083   7.491   5.157
17440WAT     H252563   3.945   7.442   5.085
17441WAT      O52564   7.822   2.606   4.854
17441WAT     H152565   7.769   2.575   4.775
17441WAT     H252566   7.907   2.553   4.860
17442WAT      O52567   5.440   4.571   9.291
17442WAT     H152568   5.356   4.620   9.265
17442WAT     H252569   5.507   4.579   9.218
17443WAT      O52570   9.736   4.197   2.840
17443WAT     H152571   9.653   4.252   2.835
17443WAT     H252572   9.816   4.257   2.838
17444WAT      O52573   3.534   8.172   6.761
17444WAT     H152574   3.461   8.231   6.725
17444WAT     H252575   3.493   8.086   6.794
17445WAT      O52576   1.055   0.476   4.842
17445WAT     H152577   1.118   0.402   4.819
17445WAT     H252578   0.963   0.439   4.855
17446WAT      O52579   0.302   0.059   3.906
17446WAT     H152580   0.366   0.042   3.831
17446WAT     H252581   0.354   0.072   3.991
17447WAT      O52582   8.522   0.869   1.335
17447WAT     H152583   8.518   0.776   1.298
17447WAT     H252584   8.446   0.923   1.299
17448WAT      O52585   0.750   6.959   4.811
17448WAT     H152586   0.753   6.860   4.804
17448WAT     H252587   0.694   6.986   4.890
17449WAT      O52588   4.700   4.049   9.321
17449WAT     H152589   4.759   4.074   9.245
17449WAT     H252590   4.605   4.048   9.291
17450WAT      O52591   3.375   6.843   7.873
17450WAT     H152592   3.376   6.744   7.862
17450WAT     H252593   3.367   6.886   7.783
17451WAT      O52594   4.838   7.693   2.885
17451WAT     H152595   4.755   7.681   2.939
17451WAT     H252596   4.835   7.634   2.804
17452WAT      O52597   2.772   0.627   9.017
17452WAT     H152598   2.800   0.537   8.985
17452WAT     H252599   2.678   0.623   9.050
17453WAT      O52600   2.009   3.572   6.198
17453WAT     H152601   1.955   3.537   6.274
17453WAT     H252602   1.989   3.520   6.115
17454WAT      O52603   8.831   3.851   6.788
17454WAT     H152604   8.776   3.935   6.780
17454WAT     H252605   8.801   3.800   6.869
17455WAT      O52606   5.593   9.551   9.718
17455WAT     H152607   5.505   9.584   9.687
17455WAT     H252608   5.645   9.513   9.641
17456WAT      O52609   8.351   0.073   7.439
17456WAT     H152610   8.274   0.017   7.470
17456WAT     H252611   8.437   0.024   7.459
17457WAT      O52612   7.978   5.544   7.814
17457WAT     H152613   7.879   5.542   7.794
17457WAT     H252614   7.999   5.624   7.869
17458WAT      O52615   4.756   0.876   7.367
17458WAT     H152616   4.742   0.956   7.308
17458WAT     H252617   4.700   0.800   7.334
17459WAT      O52618   0.514   6.744   3.670
17459WAT     H152619   0.485   6.684   3.595
17459WAT     H252620   0.552   6.828   3.633
17460WAT      O52621   9.811   4.164   4.445
17460WAT     H152622   9.886   4.120   4.495
17460WAT     H252623   9.844   4.193   4.355
17461WAT      O52624   3.979   7.230   6.945
17461WAT     H152625   3.964   7.328   6.941
17461WAT     H252626   3.891   7.182   6.948
17462WAT      O52627   2.428   0.610   2.293
17462WAT     H152628   2.391   0.682   2.234
17462WAT     H252629   2.497   0.558   2.242
17463WAT      O52630   2.968   4.760   7.318
17463WAT     H152631   2.904   4.754   7.394
17463WAT     H252632   3.022   4.675   7.313
17464WAT      O52633   5.214   7.708   5.305
17464WAT     H152634   5.152   7.784   5.287
17464WAT     H252635   5.162   7.623   5.314
17465WAT      O52636   7.776   1.041   2.702
17465WAT     H152637   7.684   1.009   2.724
17465WAT     H252638   7.793   1.028   2.604
17466WAT      O52639   8.543   8.243   7.407
17466WAT     H152640   8.477   8.233   7.333
17466WAT     H252641   8.497   8.276   7.489
17467WAT      O52642   4.794   3.417   0.961
17467WAT     H152643   4.727   3.417   0.887
17467WAT     H252644   4.877   3.465   0.932
17468WAT      O52645   0.405   5.660   5.819
17468WAT     H152646   0.382   5.565   5.802
17468WAT     H252647   0.496   5.665   5.861
17469WAT      O52648   0.504   2.499   9.860
17469WAT     H152649   0.456   2.415   9.833
17469WAT     H252650   0.576   2.519   9.794
17470WAT      O52651   0.053   3.122   0.769
17470WAT     H152652  -0.045   3.121   0.791
17470WAT     H252653   0.081   3.216   0.750
17471WAT      O52654   4.780   0.668   4.617
17471WAT     H152655   4.783   0.682   4.518
17471WAT     H252656   4.844   0.731   4.661
17472WAT      O52657   6.005   4.149   4.905
17472WAT     H152658   5.956   4.132   4.819
17472WAT     H252659   6.012   4.063   4.956
17473WAT      O52660   1.803   3.054   5.407
17473WAT     H152661   1.877   2.995   5.376
17473WAT     H252662   1.766   3.105   5.329
17474WAT      O52663   0.599   6.462   1.948
17474WAT     H152664   0.559   6.530   1.886
17474WAT     H252665   0.528   6.428   2.010
17475WAT      O52666   3.197   8.487   5.136
17475WAT     H152667   3.143   8.503   5.218
17475WAT     H252668   3.161   8.541   5.061
17476WAT      O52669   1.065   1.425   1.148
17476WAT     H152670   1.103   1.509   1.186
17476WAT     H252671   0.982   1.400   1.199
17477WAT      O52672   7.773   6.937   6.088
17477WAT     H152673   7.753   6.839   6.100
17477WAT     H252674   7.717   6.974   6.014
17478WAT      O52675   8.829   6.493   1.044
17478WAT     H152676   8.837   6.577   0.990
17478WAT     H252677   8.833   6.515   1.141
17479WAT      O52678   1.814   6.413   7.520
17479WAT     H152679   1.784   6.450   7.608
17479WAT     H252680   1.898   6.360   7.532
17480WAT      O52681   1.218   2.999   9.703
17480WAT     H152682   1.318   3.012   9.701
17480WAT     H252683   1.189   2.949   9.622
17481WAT      O52684   5.677   3.966   9.885
17481WAT     H152685   5.616   4.044   9.879
17481WAT     H252686   5.736   3.963   9.804
17482WAT      O52687   8.363   0.638   2.606
17482WAT     H152688   8.290   0.697   2.571
17482WAT     H252689   8.337   0.542   2.594
17483WAT      O52690   1.234   7.425   1.585
17483WAT     H152691   1.312   7.437   1.523
17483WAT     H252692   1.231   7.500   1.650
17484WAT      O52693   7.050   1.933   2.716
17484WAT     H152694   7.041   1.985   2.801
17484WAT     H252695   6.962   1.934   2.667
17485WAT      O52696   4.962   3.091   7.300
17485WAT     H152697   4.937   3.042   7.384
17485WAT     H252698   5.062   3.090   7.290
17486WAT      O52699   6.387   8.269   7.266
17486WAT     H152700   6.390   8.171   7.288
17486WAT     H252701   6.472   8.312   7.294
17487WAT      O52702   8.955   8.583   5.192
17487WAT     H152703   9.044   8.609   5.228
17487WAT     H252704   8.938   8.630   5.106
17488WAT      O52705   8.033   0.962   6.292
17488WAT     H152706   8.023   0.884   6.230
17488WAT     H252707   8.123   1.005   6.277
17489WAT      O52708   7.848   5.137   1.635
17489WAT     H152709   7.752   5.142   1.665
17489WAT     H252710   7.860   5.194   1.553
17490WAT      O52711   9.314   0.350   0.024
17490WAT     H152712   9.399   0.395  -0.003
17490WAT     H252713   9.324   0.251   0.013
17491WAT      O52714   2.658   4.126   6.481
17491WAT     H152715   2.603   4.100   6.402
17491WAT     H252716   2.599   4.134   6.561
17492WAT      O52717   6.882   5.204   6.796
17492WAT     H152718   6.935   5.216   6.713
17492WAT     H252719   6.821   5.125   6.786
17493WAT      O52720   3.696   8.251   6.962
17493WAT     H152721   3.667   8.203   6.879
17493WAT     H252722   3.631   8.323   6.983
17494WAT      O52723   8.883   1.981   3.045
17494WAT     H152724   8.951   2.043   3.084
17494WAT     H252725   8.929   1.909   2.994
17495WAT      O52726   8.305   5.767   0.150
17495WAT     H152727   8.320   5.820   0.234
17495WAT     H252728   8.383   5.781   0.089
17496WAT      O52729   4.166   0.671   1.546
17496WAT     H152730   4.135   0.622   1.464
17496WAT     H252731   4.160   0.769   1.530
17497WAT      O52732   1.698   8.079   2.218
17497WAT     H152733   1.658   8.051   2.305
17497WAT     H252734   1.798   8.074   2.225
17498WAT      O52735   2.776   9.696   0.522
17498WAT     H152736   2.739   9.694   0.430
17498WAT     H252737   2.701   9.700   0.588
17499WAT      O52738   4.143   4.066   4.941
17499WAT     H152739   4.074   4.032   5.004
17499WAT     H252740   4.223   4.096   4.993
17500WAT      O52741   6.075   2.724   3.308
17500WAT     H152742   6.042   2.817   3.293
17500WAT     H252743   6.148   2.725   3.376
17501WAT      O52744   8.171   2.250   2.488
17501WAT     H152745   8.212   2.321   2.432
17501WAT     H252746   8.071   2.253   2.478
17502WAT      O52747   5.661   9.031   5.780
17502WAT     H152748   5.712   8.979   5.711
17502WAT     H252749   5.650   9.125   5.749
17503WAT      O52750   3.044   7.915   1.186
17503WAT     H152751   2.982   7.991   1.204
17503WAT     H252752   2.991   7.831   1.172
17504WAT      O52753   0.599   0.338   2.861
17504WAT     H152754   0.513   0.358   2.907
17504WAT     H252755   0.665   0.411   2.880
17505WAT      O52756   8.437   6.721   3.480
17505WAT     H152757   8.535   6.740   3.490
17505WAT     H252758   8.407   6.749   3.389
17506WAT      O52759   1.228   9.139   3.472
17506WAT     H152760   1.256   9.069   3.537
17506WAT     H252761   1.262   9.228   3.502
17507WAT      O52762   2.856   2.279   4.498
17507WAT     H152763   2.924   2.215   4.461
17507WAT     H252764   2.891   2.319   4.583
17508WAT      O52765   4.210   8.340   6.906
17508WAT     H152766   4.205   8.307   7.000
17508WAT     H252767   4.267   8.421   6.902
17509WAT      O52768   0.379   3.686   2.506
17509WAT     H152769   0.430   3.765   2.540
17509WAT     H252770   0.393   3.679   2.407
17510WAT      O52771   9.433   0.741   4.113
17510WAT     H152772   9.483   0.827   4.124
17510WAT     H252773   9.393   0.714   4.200
17511WAT      O52774   6.772   5.578   0.196
17511WAT     H152775   6.819   5.656   0.154
17511WAT     H252776   6.706   5.611   0.264
17512WAT      O52777   5.262   5.555   9.092
17512WAT     H152778   5.319   5.604   9.025
17512WAT     H252779   5.319   5.491   9.143
17513WAT      O52780   2.186   8.729   3.022
17513WAT     H152781   2.109   8.711   3.084
17513WAT     H252782   2.272   8.723   3.072
17514WAT      O52783   4.697   0.161   8.954
17514WAT     H152784   4.658   0.161   9.047
17514WAT     H252785   4.713   0.255   8.925
17515WAT      O52786   0.079   3.884   6.386
17515WAT     H152787   0.039   3.918   6.471
17515WAT     H252788   0.179   3.888   6.391
17516WAT      O52789   7.292   2.632   9.582
17516WAT     H152790   7.390   2.641   9.563
17516WAT     H252791   7.274   2.545   9.629
17517WAT      O52792   4.367   4.293   6.929
17517WAT     H152793   4.326   4.372   6.975
17517WAT     H252794   4.299   4.251   6.868
17518WAT      O52795   8.385   7.250   6.609
17518WAT     H152796   8.348   7.207   6.527
17518WAT     H252797   8.461   7.195   6.644
17519WAT      O52798   8.042   7.104   3.879
17519WAT     H152799   8.135   7.068   3.888
17519WAT     H252800   8.042   7.181   3.816
17520WAT      O52801   9.312   1.049   3.858
17520WAT     H152802   9.397   1.101   3.852
17520WAT     H252803   9.331   0.952   3.844
17521WAT      O52804   5.463   0.672   2.974
17521WAT     H152805   5.512   0.754   3.003
17521WAT     H252806   5.367   0.693   2.959
17522WAT      O52807   1.555   6.580   3.115
17522WAT     H152808   1.502   6.622   3.042
17522WAT     H252809   1.650   6.610   3.109
17523WAT      O52810   7.701   1.566   5.058
17523WAT     H152811   7.723   1.476   5.097
17523WAT     H252812   7.641   1.553   4.979
17524WAT      O52813   1.208   3.351   4.019
17524WAT     H152814   1.186   3.335   4.116
17524WAT     H252815   1.236   3.265   3.976
17525WAT      O52816   8.958   5.008   9.796
17525WAT     H152817   9.049   5.042   9.823
17525WAT     H252818   8.957   4.991   9.698
17526WAT      O52819   0.504   7.379   0.017
17526WAT     H152820   0.415   7.414   0.048
17526WAT     H252821   0.497   7.353  -0.079
17527WAT      O52822   0.445   8.021   7.414
17527WAT     H152823   0.456   8.066   7.502
17527WAT     H252824   0.366   7.960   7.417
17528WAT      O52825   5.247   1.077   1.034
17528WAT     H152826   5.205   1.032   0.956
17528WAT     H252827   5.345   1.087   1.019
17529WAT      O52828   7.365   6.800   6.700
17529WAT     H152829   7.380   6.843   6.611
17529WAT     H252830   7.280   6.835   6.740
17530WAT      O52831   3.816   1.109   2.065
17530WAT     H152832   3.814   1.151   2.156
17530WAT     H252833   3.789   1.176   1.997
17531WAT      O52834   7.187   8.267   1.025
17531WAT     H152835   7.098   8.221   1.031
17531WAT     H252836   7.196   8.332   1.100
17532WAT      O52837   7.944   4.709   4.411
17532WAT     H152838   7.967   4.675   4.502
17532WAT     H252839   7.845   4.711   4.400
17533WAT      O52840   6.657   4.560   8.332
17533WAT     H152841   6.601   4.559   8.249
17533WAT     H252842   6.733   4.624   8.321
17534WAT      O52843   8.358   6.169   6.130
17534WAT     H152844   8.277   6.205   6.083
17534WAT     H252845   8.407   6.108   6.068
17535WAT      O52846   6.963   3.212   7.819
17535WAT     H152847   7.030   3.180   7.886
17535WAT     H252848   7.003   3.285   7.764
17536WAT      O52849   2.932   2.455   3.964
17536WAT     H152850   2.951   2.512   4.044
17536WAT     H252851   3.015   2.444   3.910
17537WAT      O52852   4.045   7.135   5.147
17537WAT     H152853   4.059   7.233   5.140
17537WAT     H252854   4.088   7.100   5.230
17538WAT      O52855   9.780   0.296   6.237
17538WAT     H152856   9.855   0.312   6.173
17538WAT     H252857   9.696   0.278   6.186
17539WAT      O52858   8.380   6.693   6.375
17539WAT     H152859   8.405   6.597   6.361
17539WAT     H252860   8.322   6.724   6.300
17540WAT      O52861   6.977   8.924   5.047
17540WAT     H152862   7.066   8.945   5.006
17540WAT     H252863   6.992   8.873   5.132
17541WAT      O52864   3.390   6.771   5.728
17541WAT     H152865   3.446   6.848   5.758
17541WAT     H252866   3.417   6.689   5.779
17542WAT      O52867   0.121   8.298   8.627
17542WAT     H152868   0.163   8.238   8.694
17542WAT     H252869   0.088   8.381   8.672
17543WAT      O52870   9.610   8.583   5.819
17543WAT     H152871   9.552   8.659   5.790
17543WAT     H252872   9.591   8.561   5.915
17544WAT      O52873   5.348   0.594   8.209
17544WAT     H152874   5.295   0.653   8.270
17544WAT     H252875   5.378   0.647   8.130
17545WAT      O52876   8.035   4.991   0.476
17545WAT     H152877   7.972   4.924   0.514
17545WAT     H252878   8.083   4.951   0.398
17546WAT      O52879   4.406   8.871   0.722
17546WAT     H152880   4.323   8.898   0.771
17546WAT     H252881   4.445   8.790   0.765
17547WAT      O52882   1.434   5.510   2.023
17547WAT     H152883   1.376   5.466   2.091
17547WAT     H252884   1.488   5.582   2.067
17548WAT      O52885   1.029   3.879   6.201
17548WAT     H152886   1.026   3.780   6.207
17548WAT     H252887   1.037   3.919   6.293
17549WAT      O52888   5.818   5.738   5.831
17549WAT     H152889   5.892   5.677   5.858
17549WAT     H252890   5.749   5.742   5.904
17550WAT      O52891   5.683   0.035   1.295
17550WAT     H152892   5.698   0.080   1.384
17550WAT     H252893   5.757   0.061   1.232
17551WAT      O52894   9.331   5.115   1.068
17551WAT     H152895   9.390   5.099   1.147
17551WAT     H252896   9.382   5.163   0.997
17552WAT      O52897   9.447   3.855   8.014
17552WAT     H152898   9.433   3.889   8.106
17552WAT     H252899   9.376   3.788   7.991
17553WAT      O52900   6.557   4.176   9.429
17553WAT     H152901   6.604   4.237   9.366
17553WAT     H252902   6.583   4.081   9.409
17554WAT      O52903   5.077   7.052   3.853
17554WAT     H152904   4.994   6.998   3.866
17554WAT     H252905   5.157   6.993   3.855
17555WAT      O52906   7.391   6.112   1.955
17555WAT     H152907   7.297   6.097   1.926
17555WAT     H252908   7.397   6.102   2.055
17556WAT      O52909   0.162   4.742   6.102
17556WAT     H152910   0.118   4.763   6.015
17556WAT     H252911   0.215   4.821   6.133
17557WAT      O52912   4.682   3.751   0.435
17557WAT     H152913   4.675   3.851   0.428
17557WAT     H252914   4.593   3.714   0.464
17558WAT      O52915   1.680   5.871   9.401
17558WAT     H152916   1.605   5.890   9.464
17558WAT     H252917   1.767   5.871   9.451
17559WAT      O52918   0.841   8.154   7.980
17559WAT     H152919   0.839   8.132   8.078
17559WAT     H252920   0.766   8.218   7.959
17560WAT      O52921   9.414   1.603   8.626
17560WAT     H152922   9.316   1.588   8.610
17560WAT     H252923   9.466   1.571   8.547
17561WAT      O52924   2.473   7.005   3.303
17561WAT     H152925   2.466   6.952   3.387
17561WAT     H252926   2.536   7.081   3.316
17562WAT      O52927   4.890   9.215   8.170
17562WAT     H152928   4.797   9.190   8.146
17562WAT     H252929   4.896   9.314   8.182
17563WAT      O52930   8.495   0.174   6.990
17563WAT     H152931   8.549   0.115   6.930
17563WAT     H252932   8.419   0.122   7.029
17564WAT      O52933   9.363   0.586   3.434
17564WAT     H152934   9.303   0.507   3.420
17564WAT     H252935   9.356   0.647   3.355
17565WAT      O52936   4.681   3.455   2.973
17565WAT     H152937   4.656   3.519   2.900
17565WAT     H252938   4.625   3.473   3.054
17566WAT      O52939   4.918   7.204   0.339
17566WAT     H152940   5.013   7.183   0.361
17566WAT     H252941   4.914   7.285   0.280
17567WAT      O52942   6.972   2.085   2.914
17567WAT     H152943   6.960   2.184   2.919
17567WAT     H252944   7.048   2.058   2.973
17568WAT      O52945   8.578   1.031   8.159
17568WAT     H152946   8.570   0.932   8.169
17568WAT     H252947   8.487   1.072   8.164
17569WAT      O52948   0.074   8.388   1.650
17569WAT     H152949   0.032   8.327   1.717
17569WAT     H252950   0.161   8.422   1.685
17570WAT      O52951   6.032   9.055   5.883
17570WAT     H152952   5.944   9.045   5.930
17570WAT     H252953   6.067   8.965   5.858
17571WAT      O52954   9.636   7.565   4.501
17571WAT     H152955   9.736   7.574   4.509
17571WAT     H252956   9.594   7.655   4.504
17572WAT      O52957   1.672   9.295   3.629
17572WAT     H152958   1.695   9.201   3.603
17572WAT     H252959   1.748   9.333   3.682
17573WAT      O52960   0.661   3.094   8.242
17573WAT     H152961   0.631   3.000   8.259
17573WAT     H252962   0.659   3.146   8.328
17574WAT      O52963   4.856   8.542   8.199
17574WAT     H152964   4.809   8.507   8.118
17574WAT     H252965   4.954   8.531   8.189
17575WAT      O52966   5.836   2.293   9.642
17575WAT     H152967   5.742   2.296   9.609
17575WAT     H252968   5.838   2.249   9.732
17576WAT      O52969   1.764   8.303   4.457
17576WAT     H152970   1.856   8.310   4.419
17576WAT     H252971   1.703   8.364   4.408
17577WAT      O52972   7.254   4.395   2.426
17577WAT     H152973   7.213   4.358   2.342
17577WAT     H252974   7.353   4.405   2.413
17578WAT      O52975   7.882   5.279   1.409
17578WAT     H152976   7.867   5.377   1.394
17578WAT     H252977   7.969   5.252   1.367
17579WAT      O52978   2.354   3.627   4.875
17579WAT     H152979   2.296   3.694   4.829
17579WAT     H252980   2.350   3.641   4.974
17580WAT      O52981   6.348   2.951   9.707
17580WAT     H152982   6.434   2.986   9.668
17580WAT     H252983   6.331   2.994   9.795
17581WAT      O52984   2.850   2.105   8.254
17581WAT     H152985   2.860   2.054   8.169
17581WAT     H252986   2.842   2.203   8.233
17582WAT      O52987   6.003   6.175   3.467
17582WAT     H152988   6.016   6.213   3.559
17582WAT     H252989   5.978   6.248   3.404
17583WAT      O52990   5.824   8.243   8.108
17583WAT     H152991   5.755   8.174   8.133
17583WAT     H252992   5.908   8.227   8.160
17584WAT      O52993   1.224   4.092   3.259
17584WAT     H152994   1.163   4.046   3.195
17584WAT     H252995   1.247   4.183   3.224
17585WAT      O52996   1.971   0.166   0.351
17585WAT     H152997   2.057   0.210   0.376
17585WAT     H252998   1.972   0.070   0.381
17586WAT      O52999   3.527   5.270   0.116
17586WAT     H153000   3.580   5.219   0.183
17586WAT     H253001   3.568   5.361   0.104
17587WAT      O53002   0.818   5.862   5.476
17587WAT     H153003   0.738   5.829   5.526
17587WAT     H253004   0.883   5.902   5.540
17588WAT      O53005   2.183   8.358   2.721
17588WAT     H153006   2.268   8.362   2.670
17588WAT     H253007   2.203   8.349   2.819
17589WAT      O53008   0.277   7.992   9.686
17589WAT     H153009   0.316   7.901   9.675
17589WAT     H253010   0.311   8.053   9.614
17590WAT      O53011   0.681   3.331   5.959
17590WAT     H153012   0.598   3.353   5.908
17590WAT     H253013   0.761   3.348   5.900
17591WAT      O53014   0.410   5.124   7.245
17591WAT     H153015   0.413   5.127   7.345
17591WAT     H253016   0.405   5.029   7.214
17592WAT      O53017   4.907   3.311   4.626
17592WAT     H153018   4.904   3.409   4.605
17592WAT     H253019   5.002   3.279   4.622
17593WAT      O53020   5.439   0.238   2.411
17593WAT     H153021   5.472   0.178   2.484
17593WAT     H253022   5.507   0.308   2.392
17594WAT      O53023   6.639   4.570   6.163
17594WAT     H153024   6.656   4.546   6.259
17594WAT     H253025   6.578   4.501   6.123
17595WAT      O53026   4.558   1.310   4.656
17595WAT     H153027   4.619   1.243   4.699
17595WAT     H253028   4.470   1.267   4.637
17596WAT      O53029   4.607   0.644   9.465
17596WAT     H153030   4.669   0.566   9.461
17596WAT     H253031   4.591   0.669   9.560
17597WAT      O53032   9.380   9.480   3.867
17597WAT     H153033   9.316   9.474   3.943
17597WAT     H253034   9.355   9.557   3.808
17598WAT      O53035   4.028   7.688   1.818
17598WAT     H153036   4.055   7.687   1.914
17598WAT     H253037   3.965   7.764   1.802
17599WAT      O53038   8.792   2.802   9.069
17599WAT     H153039   8.887   2.773   9.078
17599WAT     H253040   8.759   2.835   9.158
17600WAT      O53041   5.063   1.599   3.057
17600WAT     H153042   5.037   1.503   3.059
17600WAT     H253043   5.162   1.607   3.070
17601WAT      O53044   5.215   3.361   7.207
17601WAT     H153045   5.187   3.395   7.297
17601WAT     H253046   5.181   3.423   7.136
17602WAT      O53047   0.893   7.219   5.869
17602WAT     H153048   0.924   7.157   5.796
17602WAT     H253049   0.902   7.173   5.957
17603WAT      O53050   1.936   0.426   3.214
17603WAT     H153051   1.942   0.345   3.155
17603WAT     H253052   1.851   0.423   3.266
17604WAT      O53053   9.101   4.349   5.911
17604WAT     H153054   9.060   4.282   5.974
17604WAT     H253055   9.197   4.326   5.894
17605WAT      O53056   6.487   7.192   8.164
17605WAT     H153057   6.416   7.257   8.191
17605WAT     H253058   6.467   7.103   8.206
17606WAT      O53059   4.831   2.500   3.624
17606WAT     H153060   4.733   2.513   3.612
17606WAT     H253061   4.850   2.477   3.720
17607WAT      O53062   1.638   5.847   2.389
17607WAT     H153063   1.629   5.938   2.430
17607WAT     H253064   1.729   5.810   2.408
17608WAT      O53065   1.990   9.672   9.889
17608WAT     H153066   1.892   9.665   9.871
17608WAT     H253067   2.041   9.615   9.825
17609WAT      O53068   7.097   8.142   5.182
17609WAT     H153069   7.182   8.145   5.234
17609WAT     H253070   7.118   8.143   5.084
17610WAT      O53071   9.295   8.481   5.837
17610WAT     H153072   9.269   8.563   5.786
17610WAT     H253073   9.323   8.409   5.773
17611WAT      O53074   3.393   9.426   6.622
17611WAT     H153075   3.460   9.492   6.588
17611WAT     H253076   3.309   9.473   6.646
17612WAT      O53077   7.843   5.763   5.095
17612WAT     H153078   7.916   5.819   5.136
17612WAT     H253079   7.875   5.669   5.087
17613WAT      O53080   3.106   8.089   0.793
17613WAT     H153081   3.172   8.083   0.719
17613WAT     H253082   3.034   8.154   0.769
17614WAT      O53083   9.321   7.123   4.644
17614WAT     H153084   9.380   7.170   4.579
17614WAT     H253085   9.267   7.190   4.694
17615WAT      O53086   7.839   1.609   0.029
17615WAT     H153087   7.810   1.607  -0.067
17615WAT     H253088   7.939   1.603   0.034
17616WAT      O53089   3.461   0.766   0.396
17616WAT     H153090   3.505   0.746   0.484
17616WAT     H253091   3.364   0.785   0.410
17617WAT      O53092   0.672   6.872   0.564
17617WAT     H153093   0.604   6.911   0.626
17617WAT     H253094   0.738   6.942   0.538
17618WAT      O53095   1.218   4.459   2.676
17618WAT     H153096   1.267   4.381   2.716
17618WAT     H253097   1.276   4.503   2.608
17619WAT      O53098   2.235   3.251   0.631
17619WAT     H153099   2.197   3.231   0.722
17619WAT     H253100   2.237   3.166   0.577
17620WAT      O53101   8.153   3.753   5.001
17620WAT     H153102   8.140   3.692   4.922
17620WAT     H253103   8.066   3.764   5.049
17621WAT      O53104   1.553   1.695   3.074
17621WAT     H153105   1.627   1.646   3.120
17621WAT     H253106   1.468   1.685   3.126
17622WAT      O53107   1.380   8.003   4.043
17622WAT     H153108   1.426   8.038   3.961
17622WAT     H253109   1.338   8.080   4.092
17623WAT      O53110   2.153   1.939   2.378
17623WAT     H153111   2.054   1.946   2.383
17623WAT     H253112   2.187   2.002   2.308
17624WAT      O53113   4.211   6.001   1.674
17624WAT     H153114   4.215   5.902   1.660
17624WAT     H253115   4.274   6.026   1.747
17625WAT      O53116   8.921   5.024   3.259
17625WAT     H153117   8.947   4.929   3.275
17625WAT     H253118   8.831   5.042   3.298
17626WAT      O53119   3.925   6.245   3.939
17626WAT     H153120   3.983   6.179   3.892
17626WAT     H253121   3.971   6.278   4.022
17627WAT      O53122   0.594   2.681   5.115
17627WAT     H153123   0.599   2.591   5.159
17627WAT     H253124   0.639   2.677   5.026
17628WAT      O53125   4.110   6.026   8.753
17628WAT     H153126   4.021   6.070   8.760
17628WAT     H253127   4.099   5.927   8.748
17629WAT      O53128   0.397   9.577   6.734
17629WAT     H153129   0.491   9.608   6.747
17629WAT     H253130   0.396   9.486   6.691
17630WAT      O53131   4.808   2.704   6.581
17630WAT     H153132   4.898   2.719   6.541
17630WAT     H253133   4.778   2.611   6.563
17631WAT      O53134   1.433   0.877   2.794
17631WAT     H153135   1.479   0.789   2.802
17631WAT     H253136   1.335   0.862   2.781
17632WAT      O53137   1.726   0.428   5.159
17632WAT     H153138   1.774   0.384   5.083
17632WAT     H253139   1.634   0.391   5.166
17633WAT      O53140   4.490   0.927   4.277
17633WAT     H153141   4.583   0.939   4.313
17633WAT     H253142   4.425   0.929   4.353
17634WAT      O53143   4.803   1.351   2.981
17634WAT     H153144   4.772   1.446   2.980
17634WAT     H253145   4.881   1.342   3.043
17635WAT      O53146   2.163   5.122   8.168
17635WAT     H153147   2.212   5.112   8.255
17635WAT     H253148   2.142   5.219   8.153
17636WAT      O53149   7.227   8.060   6.894
17636WAT     H153150   7.221   8.142   6.837
17636WAT     H253151   7.136   8.018   6.901
17637WAT      O53152   2.666   8.425   5.992
17637WAT     H153153   2.592   8.423   5.924
17637WAT     H253154   2.681   8.519   6.022
17638WAT      O53155   0.184   1.303   0.087
17638WAT     H153156   0.165   1.314  -0.011
17638WAT     H253157   0.246   1.376   0.117
17639WAT      O53158   2.836   5.375   0.425
17639WAT     H153159   2.787   5.422   0.352
17639WAT     H253160   2.892   5.302   0.386
17640WAT      O53161   0.312   6.187   2.294
17640WAT     H153162   0.402   6.193   2.337
17640WAT     H253163   0.319   6.214   2.198
17641WAT      O53164   1.833   9.165   8.746
17641WAT     H153165   1.752   9.117   8.713
17641WAT     H253166   1.816   9.263   8.747
17642WAT      O53167   0.260   7.707   0.012
17642WAT     H153168   0.219   7.759   0.087
17642WAT     H253169   0.269   7.611   0.040
17643WAT      O53170   1.940   4.566   2.728
17643WAT     H153171   1.844   4.540   2.717
17643WAT     H253172   1.955   4.599   2.821
17644WAT      O53173   3.266   3.292   7.485
17644WAT     H153174   3.252   3.194   7.495
17644WAT     H253175   3.181   3.340   7.505
17645WAT      O53176   0.655   4.798   7.865
17645WAT     H153177   0.611   4.709   7.876
17645WAT     H253178   0.632   4.857   7.943
17646WAT      O53179   5.849   9.377   8.606
17646WAT     H153180   5.867   9.279   8.598
17646WAT     H253181   5.751   9.392   8.610
17647WAT      O53182   4.272   3.398   2.424
17647WAT     H153183   4.200   3.333   2.402
17647WAT     H253184   4.284   3.402   2.523
17648WAT      O53185   7.354   4.059   6.479
17648WAT     H153186   7.270   4.060   6.423
17648WAT     H253187   7.344   3.991   6.552
17649WAT      O53188   7.595   4.394   4.498
17649WAT     H153189   7.521   4.380   4.432
17649WAT     H253190   7.585   4.484   4.541
17650WAT      O53191   7.501   0.453   3.596
17650WAT     H153192   7.509   0.356   3.574
17650WAT     H253193   7.554   0.472   3.679
17651WAT      O53194   6.847   1.924   0.307
17651WAT     H153195   6.843   1.978   0.391
17651WAT     H253196   6.770   1.948   0.248
17652WAT      O53197   5.113   1.290   6.747
17652WAT     H153198   5.079   1.216   6.689
17652WAT     H253199   5.213   1.291   6.745
17653WAT      O53200   5.907   5.917   3.434
17653WAT     H153201   5.891   5.886   3.528
17653WAT     H253202   5.891   6.015   3.429
17654WAT      O53203   0.901   7.243   8.939
17654WAT     H153204   0.820   7.295   8.965
17654WAT     H253205   0.952   7.217   9.022
17655WAT      O53206   7.240   3.176   6.795
17655WAT     H153207   7.186   3.227   6.727
17655WAT     H253208   7.210   3.081   6.796
17656WAT      O53209   9.638   2.801   8.036
17656WAT     H153210   9.540   2.799   8.053
17656WAT     H253211   9.668   2.712   8.003
17657WAT      O53212   8.102   3.664   7.507
17657WAT     H153213   8.115   3.582   7.451
17657WAT     H253214   8.064   3.638   7.596
17658WAT      O53215   5.507   8.607   9.367
17658WAT     H153216   5.547   8.666   9.437
17658WAT     H253217   5.417   8.643   9.342
17659WAT      O53218   0.090   1.149   0.974
17659WAT     H153219   0.125   1.171   0.883
17659WAT     H253220   0.046   1.230   1.013
17660WAT      O53221   3.315   5.576   1.828
17660WAT     H153222   3.388   5.508   1.816
17660WAT     H253223   3.269   5.591   1.741
17661WAT      O53224   3.959   0.622   8.956
17661WAT     H153225   4.013   0.647   9.036
17661WAT     H253226   4.004   0.656   8.873
17662WAT      O53227   8.493   3.339   3.718
17662WAT     H153228   8.424   3.268   3.731
17662WAT     H253229   8.465   3.422   3.767
17663WAT      O53230   1.133   0.998   5.189
17663WAT     H153231   1.161   1.058   5.263
17663WAT     H253232   1.212   0.972   5.134
17664WAT      O53233   4.016   5.270   8.136
17664WAT     H153234   4.076   5.194   8.109
17664WAT     H253235   4.012   5.338   8.063
17665WAT      O53236   0.783   5.612   8.874
17665WAT     H153237   0.825   5.657   8.954
17665WAT     H253238   0.687   5.639   8.868
17666WAT      O53239   7.252   3.025   2.201
17666WAT     H153240   7.222   2.960   2.132
17666WAT     H253241   7.193   3.106   2.199
17667WAT      O53242   9.338   6.832   3.796
17667WAT     H153243   9.370   6.786   3.878
17667WAT     H253244   9.289   6.767   3.738
17668WAT      O53245   3.897   7.026   3.357
17668WAT     H153246   3.805   6.994   3.382
17668WAT     H253247   3.957   7.018   3.437
17669WAT      O53248   6.960   9.234   3.116
17669WAT     H153249   6.912   9.147   3.124
17669WAT     H253250   7.057   9.221   3.136
17670WAT      O53251   5.379   5.214   6.525
17670WAT     H153252   5.378   5.120   6.492
17670WAT     H253253   5.310   5.268   6.475
17671WAT      O53254   7.827   8.825   9.192
17671WAT     H153255   7.843   8.889   9.117
17671WAT     H253256   7.732   8.832   9.222
17672WAT      O53257   5.081   7.835   6.944
17672WAT     H153258   5.105   7.916   6.890
17672WAT     H253259   5.163   7.794   6.982
17673WAT      O53260   1.274   7.704   4.890
17673WAT     H153261   1.201   7.692   4.957
17673WAT     H253262   1.335   7.777   4.921
17674WAT      O53263   1.921   7.584   5.864
17674WAT     H153264   1.973   7.499   5.865
17674WAT     H253265   1.973   7.655   5.816
17675WAT      O53266   3.906   5.787   5.003
17675WAT     H153267   3.862   5.703   4.970
17675WAT     H253268   3.837   5.859   5.014
17676WAT      O53269   6.581   6.291   0.889
17676WAT     H153270   6.611   6.211   0.837
17676WAT     H253271   6.591   6.373   0.833
17677WAT      O53272   5.692   6.985   9.375
17677WAT     H153273   5.737   6.896   9.379
17677WAT     H253274   5.736   7.048   9.439
17678WAT      O53275   5.656   6.302   3.379
17678WAT     H153276   5.710   6.367   3.326
17678WAT     H253277   5.618   6.232   3.318
17679WAT      O53278   5.752   5.052   5.901
17679WAT     H153279   5.713   5.106   5.976
17679WAT     H253280   5.691   4.975   5.881
17680WAT      O53281   6.405   5.913   3.688
17680WAT     H153282   6.372   5.991   3.740
17680WAT     H253283   6.463   5.855   3.745
17681WAT      O53284   2.933   6.943   4.930
17681WAT     H153285   2.972   6.938   5.022
17681WAT     H253286   2.858   7.010   4.929
17682WAT      O53287   8.089   0.242   7.173
17682WAT     H153288   8.044   0.157   7.201
17682WAT     H253289   8.146   0.276   7.248
17683WAT      O53290   1.971   6.982   6.229
17683WAT     H153291   2.015   6.896   6.255
17683WAT     H253292   1.898   6.962   6.163
17684WAT      O53293   9.705   2.544   7.885
17684WAT     H153294   9.797   2.532   7.922
17684WAT     H253295   9.701   2.506   7.793
17685WAT      O53296   5.864   0.655   5.925
17685WAT     H153297   5.839   0.701   6.010
17685WAT     H253298   5.963   0.663   5.911
17686WAT      O53299   1.342   1.155   7.812
17686WAT     H153300   1.387   1.141   7.724
17686WAT     H253301   1.262   1.095   7.818
17687WAT      O53302   0.887   2.636   1.708
17687WAT     H153303   0.967   2.616   1.763
17687WAT     H253304   0.824   2.693   1.760
17688WAT      O53305   4.219   6.725   9.056
17688WAT     H153306   4.268   6.638   9.043
17688WAT     H253307   4.123   6.706   9.073
17689WAT      O53308   1.841   1.244   4.403
17689WAT     H153309   1.785   1.323   4.377
17689WAT     H253310   1.875   1.198   4.321
17690WAT      O53311   6.123   4.834   1.648
17690WAT     H153312   6.130   4.817   1.746
17690WAT     H253313   6.103   4.931   1.633
17691WAT      O53314   7.252   3.010   8.862
17691WAT     H153315   7.179   2.943   8.848
17691WAT     H253316   7.259   3.030   8.960
17692WAT      O53317   5.414   8.579   4.689
17692WAT     H153318   5.353   8.658   4.683
17692WAT     H253319   5.363   8.496   4.662
17693WAT      O53320   2.775   3.562   7.567
17693WAT     H153321   2.761   3.541   7.663
17693WAT     H253322   2.820   3.652   7.558
17694WAT      O53323   7.609   5.442   1.166
17694WAT     H153324   7.615   5.345   1.187
17694WAT     H253325   7.576   5.492   1.247
17695WAT      O53326   4.813   6.012   2.012
17695WAT     H153327   4.877   5.979   2.081
17695WAT     H253328   4.804   6.111   2.019
17696WAT      O53329   0.626   2.984   5.079
17696WAT     H153330   0.674   3.023   5.158
17696WAT     H253331   0.601   2.889   5.099
17697WAT      O53332   2.667   6.069   9.542
17697WAT     H153333   2.696   6.084   9.636
17697WAT     H253334   2.584   6.012   9.541
17698WAT      O53335   1.540   8.139   3.844
17698WAT     H153336   1.615   8.163   3.782
17698WAT     H253337   1.549   8.192   3.928
17699WAT      O53338   5.187   9.370   7.411
17699WAT     H153339   5.100   9.333   7.443
17699WAT     H253340   5.239   9.404   7.489
17700WAT      O53341   8.818   3.594   0.749
17700WAT     H153342   8.867   3.540   0.818
17700WAT     H253343   8.737   3.544   0.720
17701WAT      O53344   8.148   8.282   2.456
17701WAT     H153345   8.095   8.335   2.522
17701WAT     H253346   8.205   8.343   2.402
17702WAT      O53347   1.876   5.491   4.489
17702WAT     H153348   1.925   5.573   4.458
17702WAT     H253349   1.795   5.477   4.431
17703WAT      O53350   0.427   6.577   4.665
17703WAT     H153351   0.485   6.514   4.717
17703WAT     H253352   0.461   6.583   4.571
17704WAT      O53353   4.553   4.844   6.714
17704WAT     H153354   4.651   4.837   6.733
17704WAT     H253355   4.539   4.855   6.616
17705WAT      O53356   7.261   0.997   7.054
17705WAT     H153357   7.227   1.082   7.094
17705WAT     H253358   7.326   1.018   6.981
17706WAT      O53359   1.900   0.178   3.103
17706WAT     H153360   1.918   0.147   3.010
17706WAT     H253361   1.820   0.130   3.139
17707WAT      O53362   9.054   0.929   1.921
17707WAT     H153363   9.144   0.973   1.914
17707WAT     H253364   8.984   0.992   1.888
17708WAT      O53365   5.593   0.941   7.079
17708WAT     H153366   5.684   0.902   7.061
17708WAT     H253367   5.603   1.022   7.136
17709WAT      O53368   6.867   5.154   0.940
17709WAT     H153369   6.897   5.202   1.022
17709WAT     H253370   6.869   5.217   0.862
17710WAT      O53371   1.028   6.921   2.643
17710WAT     H153372   1.122   6.893   2.667
17710WAT     H253373   0.988   6.852   2.583
17711WAT      O53374   2.369   4.411   0.032
17711WAT     H153375   2.325   4.322   0.046
17711WAT     H253376   2.329   4.477   0.096
17712WAT      O53377   8.167   2.032   7.112
17712WAT     H153378   8.234   1.986   7.170
17712WAT     H253379   8.198   2.028   7.016
17713WAT      O53380   6.464   8.784   2.998
17713WAT     H153381   6.481   8.880   3.019
17713WAT     H253382   6.369   8.772   2.971
17714WAT      O53383   2.941   4.573   2.419
17714WAT     H153384   2.953   4.643   2.348
17714WAT     H253385   2.843   4.559   2.436
17715WAT      O53386   3.780   6.018   1.686
17715WAT     H153387   3.814   6.036   1.779
17715WAT     H253388   3.685   6.050   1.679
17716WAT      O53389   6.460   5.334   1.421
17716WAT     H153390   6.508   5.400   1.480
17716WAT     H253391   6.475   5.357   1.325
17717WAT      O53392   3.190   7.008   4.456
17717WAT     H153393   3.147   7.031   4.544
17717WAT     H253394   3.271   6.951   4.473
17718WAT      O53395   6.356   7.855   3.718
17718WAT     H153396   6.256   7.857   3.715
17718WAT     H253397   6.388   7.927   3.780
17719WAT      O53398   1.901   7.707   4.507
17719WAT     H153399   1.865   7.781   4.450
17719WAT     H253400   1.828   7.641   4.526
17720WAT      O53401   0.543   7.328   3.718
17720WAT     H153402   0.543   7.230   3.737
17720WAT     H253403   0.459   7.369   3.755
17721WAT      O53404   2.862   3.996   9.162
17721WAT     H153405   2.917   4.034   9.237
17721WAT     H253406   2.870   3.896   9.163
17722WAT      O53407   4.851   2.976   9.743
17722WAT     H153408   4.821   2.963   9.837
17722WAT     H253409   4.886   2.890   9.706
17723WAT      O53410   2.643   8.760   4.491
17723WAT     H153411   2.664   8.714   4.577
17723WAT     H253412   2.552   8.802   4.496
17724WAT      O53413   5.206   4.781   6.571
17724WAT     H153414   5.134   4.743   6.514
17724WAT     H253415   5.185   4.765   6.667
17725WAT      O53416   0.007   9.062   0.500
17725WAT     H153417  -0.072   9.090   0.554
17725WAT     H253418   0.084   9.122   0.521
17726WAT      O53419   1.188   6.838   5.578
17726WAT     H153420   1.219   6.834   5.673
17726WAT     H253421   1.101   6.790   5.569
17727WAT      O53422   8.919   5.492   6.282
17727WAT     H153423   8.835   5.450   6.248
17727WAT     H253424   8.921   5.588   6.254
17728WAT      O53425   8.805   5.116   0.173
17728WAT     H153426   8.705   5.108   0.167
17728WAT     H253427   8.846   5.025   0.175
17729WAT      O53428   3.034   4.098   1.621
17729WAT     H153429   3.095   4.055   1.688
17729WAT     H253430   3.080   4.105   1.533
17730WAT      O53431   8.039   4.666   2.377
17730WAT     H153432   7.992   4.754   2.369
17730WAT     H253433   7.994   4.610   2.446
17731WAT      O53434   3.523   2.585   4.561
17731WAT     H153435   3.500   2.548   4.471
17731WAT     H253436   3.585   2.663   4.551
17732WAT      O53437   5.897   2.902   3.845
17732WAT     H153438   5.810   2.870   3.881
17732WAT     H253439   5.959   2.921   3.921
17733WAT      O53440   6.349   1.286   6.471
17733WAT     H153441   6.322   1.302   6.566
17733WAT     H253442   6.347   1.373   6.421
17734WAT      O53443   8.339   6.765   5.408
17734WAT     H153444   8.320   6.735   5.315
17734WAT     H253445   8.430   6.807   5.411
17735WAT      O53446   2.150   9.324   6.484
17735WAT     H153447   2.197   9.405   6.518
17735WAT     H253448   2.194   9.242   6.522
17736WAT      O53449   6.536   7.442   3.292
17736WAT     H153450   6.636   7.448   3.285
17736WAT     H253451   6.503   7.507   3.360
17737WAT      O53452   2.671   9.833   5.325
17737WAT     H153453   2.690   9.912   5.384
17737WAT     H253454   2.575   9.835   5.297
17738WAT      O53455   1.247   0.332   5.069
17738WAT     H153456   1.236   0.282   4.983
17738WAT     H253457   1.340   0.321   5.102
17739WAT      O53458   0.396   7.693   7.003
17739WAT     H153459   0.475   7.752   6.991
17739WAT     H253460   0.417   7.602   6.966
17740WAT      O53461   6.569   1.251   8.808
17740WAT     H153462   6.554   1.336   8.860
17740WAT     H253463   6.488   1.230   8.754
17741WAT      O53464   4.826   3.199   3.960
17741WAT     H153465   4.887   3.264   3.915
17741WAT     H253466   4.741   3.191   3.908
17742WAT      O53467   2.158   8.600   8.087
17742WAT     H153468   2.134   8.692   8.055
17742WAT     H253469   2.243   8.605   8.140
17743WAT      O53470   0.348   9.317   1.131
17743WAT     H153471   0.405   9.393   1.161
17743WAT     H253472   0.257   9.351   1.105
17744WAT      O53473   4.375   5.553   6.888
17744WAT     H153474   4.455   5.535   6.832
17744WAT     H253475   4.386   5.641   6.935
17745WAT      O53476   0.242   2.942   8.288
17745WAT     H153477   0.230   2.897   8.376
17745WAT     H253478   0.154   2.947   8.240
17746WAT      O53479   5.389   4.042   0.564
17746WAT     H153480   5.485   4.042   0.536
17746WAT     H253481   5.372   4.118   0.626
17747WAT      O53482   4.268   9.107   8.256
17747WAT     H153483   4.296   9.175   8.324
17747WAT     H253484   4.271   9.147   8.165
17748WAT      O53485   4.099   4.676   3.038
17748WAT     H153486   4.150   4.600   3.079
17748WAT     H253487   4.137   4.695   2.947
17749WAT      O53488   7.104   3.668   0.811
17749WAT     H153489   7.065   3.626   0.892
17749WAT     H253490   7.045   3.741   0.779
17750WAT      O53491   9.779   5.200   3.428
17750WAT     H153492   9.729   5.149   3.498
17750WAT     H253493   9.839   5.138   3.377
17751WAT      O53494   1.253   8.614   9.512
17751WAT     H153495   1.337   8.619   9.459
17751WAT     H253496   1.273   8.576   9.603
17752WAT      O53497   1.243   2.786   4.619
17752WAT     H153498   1.270   2.832   4.704
17752WAT     H253499   1.320   2.732   4.586
17753WAT      O53500   1.658   9.684   7.381
17753WAT     H153501   1.714   9.633   7.446
17753WAT     H253502   1.712   9.709   7.301
17754WAT      O53503   6.261   5.841   4.281
17754WAT     H153504   6.227   5.751   4.255
17754WAT     H253505   6.231   5.863   4.374
17755WAT      O53506   2.314   3.487   5.376
17755WAT     H153507   2.397   3.434   5.389
17755WAT     H253508   2.313   3.565   5.439
17756WAT      O53509   8.925   5.865   0.481
17756WAT     H153510   8.908   5.787   0.540
17756WAT     H253511   8.951   5.944   0.537
17757WAT      O53512   4.677   0.968   9.062
17757WAT     H153513   4.620   0.930   9.135
17757WAT     H253514   4.620   1.024   9.001
17758WAT      O53515   1.228   0.095   2.895
17758WAT     H153516   1.288   0.147   2.956
17758WAT     H253517   1.241   0.125   2.801
17759WAT      O53518   4.845   6.857   0.492
17759WAT     H153519   4.898   6.803   0.427
17759WAT     H253520   4.883   6.846   0.584
17760WAT      O53521   4.828   8.686   0.087
17760WAT     H153522   4.781   8.758   0.138
17760WAT     H253523   4.771   8.659   0.009
17761WAT      O53524   6.457   0.769   1.872
17761WAT     H153525   6.507   0.727   1.797
17761WAT     H253526   6.363   0.787   1.844
17762WAT      O53527   4.976   1.312   8.973
17762WAT     H153528   4.944   1.225   8.936
17762WAT     H253529   5.010   1.298   9.066
17763WAT      O53530   5.030   3.202   1.385
17763WAT     H153531   4.975   3.285   1.394
17763WAT     H253532   5.124   3.227   1.360
17764WAT      O53533   1.542   7.105   1.467
17764WAT     H153534   1.479   7.027   1.460
17764WAT     H253535   1.513   7.165   1.541
17765WAT      O53536   3.043   6.627   5.511
17765WAT     H153537   3.070   6.723   5.517
17765WAT     H253538   3.006   6.609   5.420
17766WAT      O53539   7.789   6.227   6.611
17766WAT     H153540   7.724   6.173   6.664
17766WAT     H253541   7.740   6.298   6.560
17767WAT      O53542   1.408   0.440   6.588
17767WAT     H153543   1.499   0.401   6.573
17767WAT     H253544   1.342   0.367   6.600
17768WAT      O53545   1.969   8.520   4.306
17768WAT     H153546   1.999   8.611   4.277
17768WAT     H253547   2.035   8.482   4.371
17769WAT      O53548   0.426   0.964   9.403
17769WAT     H153549   0.445   1.018   9.321
17769WAT     H253550   0.503   0.903   9.422
17770WAT      O53551   2.305   2.988   1.108
17770WAT     H153552   2.271   2.931   1.182
17770WAT     H253553   2.338   3.076   1.144
17771WAT      O53554   7.288   5.003   7.053
17771WAT     H153555   7.333   5.091   7.068
17771WAT     H253556   7.346   4.929   7.088
17772WAT      O53557   2.688   4.192   4.081
17772WAT     H153558   2.680   4.107   4.030
17772WAT     H253559   2.755   4.180   4.155
17773WAT      O53560   8.188   8.999   7.850
17773WAT     H153561   8.218   8.907   7.827
17773WAT     H253562   8.113   9.026   7.790
17774WAT      O53563   0.853   5.592   2.747
17774WAT     H153564   0.901   5.557   2.667
17774WAT     H253565   0.765   5.630   2.719
17775WAT      O53566   8.092   3.352   3.113
17775WAT     H153567   8.075   3.376   3.017
17775WAT     H253568   8.004   3.339   3.160
17776WAT      O53569   5.817   7.977   8.486
17776WAT     H153570   5.747   8.046   8.472
17776WAT     H253571   5.822   7.918   8.405
17777WAT      O53572   1.850   2.586   6.515
17777WAT     H153573   1.836   2.614   6.610
17777WAT     H253574   1.846   2.486   6.508
17778WAT      O53575   8.446   8.456   0.850
17778WAT     H153576   8.495   8.421   0.770
17778WAT     H253577   8.398   8.381   0.895
17779WAT      O53578   3.330   9.382   7.137
17779WAT     H153579   3.253   9.403   7.197
17779WAT     H253580   3.320   9.289   7.103
17780WAT      O53581   2.403   6.399   7.765
17780WAT     H153582   2.473   6.471   7.772
17780WAT     H253583   2.316   6.435   7.798
17781WAT      O53584   9.306   9.806   3.321
17781WAT     H153585   9.398   9.786   3.289
17781WAT     H253586   9.310   9.876   3.393
17782WAT      O53587   2.896   6.729   0.452
17782WAT     H153588   2.923   6.736   0.356
17782WAT     H253589   2.942   6.650   0.493
17783WAT      O53590   4.956   0.544   7.433
17783WAT     H153591   4.922   0.623   7.485
17783WAT     H253592   5.030   0.574   7.373
17784WAT      O53593   6.315   3.364   2.464
17784WAT     H153594   6.337   3.389   2.558
17784WAT     H253595   6.358   3.276   2.443
17785WAT      O53596   3.067   0.169   7.844
17785WAT     H153597   3.089   0.266   7.837
17785WAT     H253598   3.120   0.128   7.918
17786WAT      O53599   0.333   5.230   1.476
17786WAT     H153600   0.405   5.200   1.539
17786WAT     H253601   0.318   5.328   1.487
17787WAT      O53602   0.647   5.878   3.289
17787WAT     H153603   0.641   5.779   3.279
17787WAT     H253604   0.730   5.911   3.245
17788WAT      O53605   6.944   9.033   5.599
17788WAT     H153606   6.923   8.977   5.518
17788WAT     H253607   6.875   9.015   5.670
17789WAT      O53608   6.567   8.330   4.804
17789WAT     H153609   6.471   8.358   4.803
17789WAT     H253610   6.625   8.410   4.791
17790WAT      O53611   4.294   8.718   5.814
17790WAT     H153612   4.242   8.796   5.778
17790WAT     H253613   4.240   8.634   5.805
17791WAT      O53614   4.770   1.146   1.417
17791WAT     H153615   4.832   1.209   1.371
17791WAT     H253616   4.680   1.150   1.374
17792WAT      O53617   0.702   6.919   3.147
17792WAT     H153618   0.665   6.870   3.068
17792WAT     H253619   0.730   7.011   3.119
17793WAT      O53620   5.405   5.518   2.117
17793WAT     H153621   5.450   5.549   2.034
17793WAT     H253622   5.474   5.493   2.185
17794WAT      O53623   9.446   4.184   3.212
17794WAT     H153624   9.435   4.253   3.283
17794WAT     H253625   9.357   4.163   3.172
17795WAT      O53626   5.083   8.055   9.556
17795WAT     H153627   5.014   8.028   9.624
17795WAT     H253628   5.037   8.077   9.470
17796WAT      O53629   7.520   1.993   8.022
17796WAT     H153630   7.455   2.070   8.022
17796WAT     H253631   7.498   1.932   7.946
17797WAT      O53632   6.110   3.074   5.942
17797WAT     H153633   6.112   3.031   5.852
17797WAT     H253634   6.162   3.159   5.940
17798WAT      O53635   2.384   7.258   9.320
17798WAT     H153636   2.301   7.308   9.296
17798WAT     H253637   2.372   7.215   9.410
17799WAT      O53638   9.869   8.732   0.077
17799WAT     H153639   9.779   8.703   0.108
17799WAT     H253640   9.870   8.830   0.062
17800WAT      O53641   0.853   0.914   0.118
17800WAT     H153642   0.777   0.924   0.182
17800WAT     H253643   0.818   0.884   0.029
17801WAT      O53644   7.037   6.621   8.178
17801WAT     H153645   6.939   6.617   8.159
17801WAT     H253646   7.075   6.704   8.137
17802WAT      O53647   3.939   3.437   0.340
17802WAT     H153648   3.983   3.450   0.251
17802WAT     H253649   3.843   3.416   0.328
17803WAT      O53650   5.608   9.806   6.811
17803WAT     H153651   5.512   9.829   6.824
17803WAT     H253652   5.664   9.859   6.875
17804WAT      O53653   1.534   6.441   8.536
17804WAT     H153654   1.541   6.351   8.578
17804WAT     H253655   1.609   6.499   8.567
17805WAT      O53656   3.008   7.951   1.883
17805WAT     H153657   2.934   8.014   1.859
17805WAT     H253658   3.092   7.981   1.837
17806WAT      O53659   0.094   7.836   5.403
17806WAT     H153660   0.158   7.784   5.347
17806WAT     H253661   0.118   7.824   5.500
17807WAT      O53662   8.816   7.429   2.928
17807WAT     H153663   8.820   7.476   3.016
17807WAT     H253664   8.761   7.483   2.864
17808WAT      O53665   3.765   1.699   0.712
17808WAT     H153666   3.706   1.667   0.638
17808WAT     H253667   3.810   1.621   0.755
17809WAT      O53668   4.012   6.063   5.659
17809WAT     H153669   3.999   6.062   5.758
17809WAT     H253670   4.105   6.094   5.638
17810WAT      O53671   7.461   1.976   0.847
17810WAT     H153672   7.470   1.963   0.945
17810WAT     H253673   7.419   2.065   0.829
17811WAT      O53674   2.611   9.446   1.336
17811WAT     H153675   2.702   9.486   1.335
17811WAT     H253676   2.609   9.369   1.400
17812WAT      O53677   8.927   0.609   4.980
17812WAT     H153678   8.991   0.611   5.057
17812WAT     H253679   8.979   0.603   4.894
17813WAT      O53680   2.951   3.880   4.360
17813WAT     H153681   2.880   3.867   4.429
17813WAT     H253682   3.033   3.828   4.386
17814WAT      O53683   7.259   7.613   4.601
17814WAT     H153684   7.170   7.643   4.566
17814WAT     H253685   7.271   7.516   4.582
17815WAT      O53686   8.133   7.266   2.811
17815WAT     H153687   8.108   7.358   2.839
17815WAT     H253688   8.051   7.213   2.792
17816WAT      O53689   0.921   6.509   3.565
17816WAT     H153690   0.915   6.553   3.655
17816WAT     H253691   0.998   6.547   3.514
17817WAT      O53692   2.240   0.855   4.662
17817WAT     H153693   2.153   0.902   4.648
17817WAT     H253694   2.314   0.911   4.623
17818WAT      O53695   1.239   5.068   2.206
17818WAT     H153696   1.143   5.041   2.211
17818WAT     H253697   1.282   5.022   2.128
17819WAT      O53698   3.760   7.227   2.668
17819WAT     H153699   3.811   7.302   2.711
17819WAT     H253700   3.782   7.223   2.571
17820WAT      O53701   7.092   0.784   1.690
17820WAT     H153702   7.155   0.846   1.645
17820WAT     H253703   7.105   0.789   1.789
17821WAT      O53704   5.830   0.308   8.293
17821WAT     H153705   5.740   0.339   8.324
17821WAT     H253706   5.828   0.291   8.195
17822WAT      O53707   7.396   6.252   2.620
17822WAT     H153708   7.435   6.245   2.528
17822WAT     H253709   7.447   6.320   2.673
17823WAT      O53710   7.388   5.194   5.484
17823WAT     H153711   7.454   5.130   5.443
17823WAT     H253712   7.366   5.164   5.577
17824WAT      O53713   3.265   0.221   4.591
17824WAT     H153714   3.338   0.208   4.523
17824WAT     H253715   3.198   0.147   4.582
17825WAT      O53716   8.188   8.038   4.165
17825WAT     H153717   8.114   8.075   4.109
17825WAT     H253718   8.230   7.960   4.119
17826WAT      O53719   6.790   0.654   0.088
17826WAT     H153720   6.809   0.648  -0.010
17826WAT     H253721   6.745   0.570   0.118
17827WAT      O53722   0.757   2.192   0.275
17827WAT     H153723   0.702   2.204   0.357
17827WAT     H253724   0.701   2.209   0.194
17828WAT      O53725   9.528   8.951   8.973
17828WAT     H153726   9.606   8.911   8.923
17828WAT     H253727   9.471   8.877   9.009
17829WAT      O53728   1.577   3.895   6.253
17829WAT     H153729   1.548   3.971   6.311
17829WAT     H253730   1.658   3.922   6.201
17830WAT      O53731   1.299   1.999   6.326
17830WAT     H153732   1.287   1.938   6.404
17830WAT     H253733   1.338   2.086   6.356
17831WAT      O53734   8.474   4.952   2.325
17831WAT     H153735   8.536   4.945   2.247
17831WAT     H253736   8.528   4.952   2.409
17832WAT      O53737   9.366   4.849   1.341
17832WAT     H153738   9.425   4.857   1.261
17832WAT     H253739   9.412   4.793   1.410
17833WAT      O53740   2.702   6.214   4.826
17833WAT     H153741   2.698   6.236   4.923
17833WAT     H253742   2.620   6.249   4.780
17834WAT      O53743   7.331   6.495   6.954
17834WAT     H153744   7.311   6.414   7.009
17834WAT     H253745   7.337   6.471   6.858
17835WAT      O53746   1.770   3.932   1.071
17835WAT     H153747   1.858   3.955   1.111
17835WAT     H253748   1.700   3.930   1.142
17836WAT      O53749   4.632   0.652   0.785
17836WAT     H153750   4.716   0.635   0.836
17836WAT     H253751   4.553   0.625   0.840
17837WAT      O53752   3.262   8.866   6.164
17837WAT     H153753   3.209   8.924   6.103
17837WAT     H253754   3.352   8.907   6.180
17838WAT      O53755   1.821   0.186   7.734
17838WAT     H153756   1.841   0.256   7.802
17838WAT     H253757   1.882   0.198   7.655
17839WAT      O53758   8.437   5.291   4.697
17839WAT     H153759   8.513   5.324   4.643
17839WAT     H253760   8.404   5.364   4.757
17840WAT      O53761   4.638   4.057   0.840
17840WAT     H153762   4.556   4.048   0.897
17840WAT     H253763   4.612   4.089   0.749
17841WAT      O53764   2.730   9.303   5.336
17841WAT     H153765   2.820   9.284   5.297
17841WAT     H253766   2.735   9.383   5.395
17842WAT      O53767   5.551   9.374   2.446
17842WAT     H153768   5.583   9.279   2.443
17842WAT     H253769   5.618   9.430   2.494
17843WAT      O53770   8.990   3.528   1.769
17843WAT     H153771   8.988   3.622   1.734
17843WAT     H253772   8.901   3.485   1.754
17844WAT      O53773   2.293   3.382   8.950
17844WAT     H153774   2.299   3.476   8.916
17844WAT     H253775   2.202   3.345   8.930
17845WAT      O53776   5.919   9.794   4.332
17845WAT     H153777   5.850   9.839   4.275
17845WAT     H253778   5.895   9.805   4.429
17846WAT      O53779   3.596   1.883   6.427
17846WAT     H153780   3.520   1.822   6.406
17846WAT     H253781   3.561   1.976   6.440
17847WAT      O53782   4.536   3.801   3.239
17847WAT     H153783   4.462   3.868   3.229
17847WAT     H253784   4.586   3.819   3.323
17848WAT      O53785   5.474   9.592   6.957
17848WAT     H153786   5.529   9.601   7.040
17848WAT     H253787   5.420   9.675   6.945
17849WAT      O53788   2.266   7.702   1.371
17849WAT     H153789   2.314   7.787   1.391
17849WAT     H253790   2.192   7.721   1.306
17850WAT      O53791   9.481   0.637   8.302
17850WAT     H153792   9.578   0.650   8.282
17850WAT     H253793   9.427   0.699   8.245
17851WAT      O53794   2.097   1.312   5.353
17851WAT     H153795   2.127   1.407   5.360
17851WAT     H253796   2.175   1.253   5.334
17852WAT      O53797   6.484   9.336   8.381
17852WAT     H153798   6.442   9.279   8.310
17852WAT     H253799   6.448   9.429   8.375
17853WAT      O53800   5.056   0.783   8.980
17853WAT     H153801   4.989   0.739   9.040
17853WAT     H253802   5.087   0.716   8.912
17854WAT      O53803   6.736   5.154   3.311
17854WAT     H153804   6.814   5.199   3.355
17854WAT     H253805   6.656   5.213   3.315
17855WAT      O53806   8.445   1.049   9.623
17855WAT     H153807   8.383   1.036   9.700
17855WAT     H253808   8.532   1.003   9.642
17856WAT      O53809   6.301   1.039   4.176
17856WAT     H153810   6.217   1.090   4.161
17856WAT     H253811   6.379   1.100   4.165
17857WAT      O53812   1.053   2.055   6.833
17857WAT     H153813   1.032   1.965   6.796
17857WAT     H253814   1.033   2.057   6.931
17858WAT      O53815   8.150   0.930   5.388
17858WAT     H153816   8.107   0.956   5.302
17858WAT     H253817   8.249   0.927   5.377
17859WAT      O53818   0.905   5.045   5.725
17859WAT     H153819   0.859   5.113   5.668
17859WAT     H253820   0.999   5.034   5.695
17860WAT      O53821   5.366   9.114   8.440
17860WAT     H153822   5.444   9.132   8.499
17860WAT     H253823   5.317   9.199   8.422
17861WAT      O53824   2.342   5.047   1.190
17861WAT     H153825   2.252   5.084   1.214
17861WAT     H253826   2.337   4.947   1.189
17862WAT      O53827   5.451   2.422   2.122
17862WAT     H153828   5.470   2.520   2.133
17862WAT     H253829   5.511   2.385   2.051
17863WAT      O53830   8.555   5.334   8.580
17863WAT     H153831   8.640   5.291   8.610
17863WAT     H253832   8.533   5.302   8.487
17864WAT      O53833   0.383   2.168   4.931
17864WAT     H153834   0.406   2.104   5.004
17864WAT     H253835   0.343   2.117   4.854
17865WAT      O53836   8.878   6.952   2.541
17865WAT     H153837   8.969   6.936   2.501
17865WAT     H253838   8.841   7.038   2.507
17866WAT      O53839   6.953   4.515   0.831
17866WAT     H153840   6.864   4.520   0.874
17866WAT     H253841   7.023   4.551   0.892
17867WAT      O53842   7.856   0.998   4.155
17867WAT     H153843   7.942   0.999   4.103
17867WAT     H253844   7.829   1.092   4.177
17868WAT      O53845   4.513   1.634   1.260
17868WAT     H153846   4.533   1.587   1.346
17868WAT     H253847   4.583   1.703   1.243
17869WAT      O53848   5.063   7.517   0.596
17869WAT     H153849   4.975   7.540   0.554
17869WAT     H253850   5.137   7.534   0.530
17870WAT      O53851   3.329   2.407   1.251
17870WAT     H153852   3.339   2.385   1.348
17870WAT     H253853   3.298   2.325   1.201
17871WAT      O53854   9.443   3.526   9.361
17871WAT     H153855   9.389   3.609   9.347
17871WAT     H253856   9.500   3.509   9.281
17872WAT      O53857   4.142   3.187   1.096
17872WAT     H153858   4.132   3.150   1.004
17872WAT     H253859   4.064   3.159   1.152
17873WAT      O53860   8.349   7.197   3.829
17873WAT     H153861   8.327   7.208   3.732
17873WAT     H253862   8.329   7.282   3.878
17874WAT      O53863   8.739   0.672   4.740
17874WAT     H153864   8.679   0.751   4.732
17874WAT     H253865   8.814   0.693   4.802
17875WAT      O53866   0.668   0.679   7.834
17875WAT     H153867   0.625   0.762   7.797
17875WAT     H253868   0.689   0.616   7.760
17876WAT      O53869   9.150   3.627   4.805
17876WAT     H153870   9.157   3.552   4.740
17876WAT     H253871   9.240   3.669   4.818
17877WAT      O53872   9.548   7.510   8.571
17877WAT     H153873   9.633   7.482   8.615
17877WAT     H253874   9.470   7.483   8.628
17878WAT      O53875   0.722   1.079   8.177
17878WAT     H153876   0.737   1.175   8.202
17878WAT     H253877   0.775   1.020   8.238
17879WAT      O53878   6.079   3.045   2.010
17879WAT     H153879   6.012   3.068   2.081
17879WAT     H253880   6.033   2.995   1.936
17880WAT      O53881   0.500   0.859   3.368
17880WAT     H153882   0.509   0.953   3.402
17880WAT     H253883   0.492   0.861   3.268
17881WAT      O53884   0.523   0.352   0.719
17881WAT     H153885   0.505   0.346   0.620
17881WAT     H253886   0.543   0.261   0.755
17882WAT      O53887   6.337   7.838   1.999
17882WAT     H153888   6.287   7.925   2.000
17882WAT     H253889   6.392   7.830   2.082
17883WAT      O53890   4.052   6.482   5.656
17883WAT     H153891   4.146   6.455   5.637
17883WAT     H253892   3.989   6.432   5.596
17884WAT      O53893   2.625   4.989   8.511
17884WAT     H153894   2.612   4.943   8.424
17884WAT     H253895   2.566   5.069   8.516
17885WAT      O53896   2.261   2.056   9.031
17885WAT     H153897   2.360   2.044   9.042
17885WAT     H253898   2.236   2.148   9.062
17886WAT      O53899   1.853   4.204   8.271
17886WAT     H153900   1.821   4.174   8.181
17886WAT     H253901   1.783   4.183   8.340
17887WAT      O53902   2.484   4.605   9.284
17887WAT     H153903   2.562   4.623   9.345
17887WAT     H253904   2.509   4.628   9.190
17888WAT      O53905   7.217   8.951   3.866
17888WAT     H153906   7.259   8.860   3.866
17888WAT     H253907   7.135   8.949   3.923
17889WAT      O53908   5.565   8.044   0.954
17889WAT     H153909   5.657   8.078   0.976
17889WAT     H253910   5.525   8.002   1.036
17890WAT      O53911   4.761   6.706   4.652
17890WAT     H153912   4.708   6.791   4.645
17890WAT     H253913   4.699   6.631   4.677
17891WAT      O53914   5.183   3.798   2.980
17891WAT     H153915   5.083   3.806   2.980
17891WAT     H253916   5.211   3.726   3.043
17892WAT      O53917   6.668   6.092   1.976
17892WAT     H153918   6.594   6.122   1.915
17892WAT     H253919   6.634   6.088   2.070
17893WAT      O53920   5.868   9.451   3.839
17893WAT     H153921   5.892   9.513   3.764
17893WAT     H253922   5.786   9.400   3.814
17894WAT      O53923   6.927   2.635   8.042
17894WAT     H153924   6.902   2.568   7.972
17894WAT     H253925   6.950   2.722   7.999
17895WAT      O53926   2.742   5.073   2.285
17895WAT     H153927   2.779   5.125   2.362
17895WAT     H253928   2.808   5.003   2.257
17896WAT      O53929   4.254   4.995   7.254
17896WAT     H153930   4.319   4.937   7.303
17896WAT     H253931   4.263   4.980   7.156
17897WAT      O53932   1.866   9.686   8.999
17897WAT     H153933   1.903   9.593   8.992
17897WAT     H253934   1.913   9.735   9.072
17898WAT      O53935   0.847   9.128   1.999
17898WAT     H153936   0.927   9.138   2.058
17898WAT     H253937   0.788   9.208   2.009
17899WAT      O53938   3.349   1.290   4.742
17899WAT     H153939   3.300   1.360   4.793
17899WAT     H253940   3.287   1.213   4.724
17900WAT      O53941   0.882   2.953   6.806
17900WAT     H153942   0.784   2.969   6.802
17900WAT     H253943   0.926   3.024   6.862
17901WAT      O53944   4.940   0.681   0.855
17901WAT     H153945   4.891   0.676   0.942
17901WAT     H253946   4.934   0.593   0.808
17902WAT      O53947   1.540   2.089   5.446
17902WAT     H153948   1.506   2.162   5.505
17902WAT     H253949   1.469   2.019   5.435
17903WAT      O53950   4.703   6.404   2.585
17903WAT     H153951   4.667   6.311   2.572
17903WAT     H253952   4.780   6.417   2.523
17904WAT      O53953   1.538   1.768   0.728
17904WAT     H153954   1.531   1.857   0.773
17904WAT     H253955   1.576   1.779   0.636
17905WAT      O53956   2.992   8.104   6.880
17905WAT     H153957   2.932   8.027   6.902
17905WAT     H253958   2.937   8.185   6.862
17906WAT      O53959   9.804   1.880   6.275
17906WAT     H153960   9.760   1.968   6.259
17906WAT     H253961   9.749   1.827   6.340
17907WAT      O53962   0.012   3.982   0.131
17907WAT     H153963  -0.049   4.057   0.157
17907WAT     H253964  -0.032   3.925   0.062
17908WAT      O53965   0.025   2.262   2.148
17908WAT     H153966   0.101   2.287   2.087
17908WAT     H253967   0.045   2.174   2.190
17909WAT      O53968   3.911   2.772   8.535
17909WAT     H153969   3.921   2.703   8.608
17909WAT     H253970   3.862   2.732   8.458
17910WAT      O53971   9.839   3.196   1.893
17910WAT     H153972   9.917   3.209   1.954
17910WAT     H253973   9.871   3.185   1.799
17911WAT      O53974   8.862   3.743   7.610
17911WAT     H153975   8.846   3.826   7.557
17911WAT     H253976   8.779   3.718   7.660
17912WAT      O53977   3.451   9.196   6.164
17912WAT     H153978   3.514   9.235   6.097
17912WAT     H253979   3.386   9.266   6.194
17913WAT      O53980   3.158   1.116   3.031
17913WAT     H153981   3.257   1.107   3.020
17913WAT     H253982   3.137   1.200   3.080
17914WAT      O53983   9.593   6.903   8.911
17914WAT     H153984   9.669   6.869   8.856
17914WAT     H253985   9.627   6.928   9.002
17915WAT      O53986   6.323   8.513   4.742
17915WAT     H153987   6.336   8.613   4.745
17915WAT     H253988   6.271   8.489   4.660
17916WAT      O53989   0.692   1.314   7.725
17916WAT     H153990   0.643   1.259   7.658
17916WAT     H253991   0.791   1.302   7.712
17917WAT      O53992   9.378   1.762   0.334
17917WAT     H153993   9.319   1.685   0.356
17917WAT     H253994   9.368   1.833   0.403
17918WAT      O53995   4.301   3.042   8.647
17918WAT     H153996   4.259   2.975   8.586
17918WAT     H253997   4.270   3.026   8.741
17919WAT      O53998   2.681   1.606   5.103
17919WAT     H153999   2.698   1.555   5.188
17919WAT     H254000   2.589   1.646   5.107
17920WAT      O54001   2.100   6.404   9.547
17920WAT     H154002   2.068   6.325   9.494
17920WAT     H254003   2.026   6.437   9.606
17921WAT      O54004   6.934   0.291   7.306
17921WAT     H154005   6.969   0.316   7.215
17921WAT     H254006   6.988   0.216   7.343
17922WAT      O54007   9.792   2.652   4.931
17922WAT     H154008   9.778   2.745   4.964
17922WAT     H254009   9.888   2.628   4.937
17923WAT      O54010   4.438   2.189   1.399
17923WAT     H154011   4.385   2.201   1.483
17923WAT     H254012   4.396   2.241   1.325
17924WAT      O54013   6.192   7.104   8.480
17924WAT     H154014   6.271   7.057   8.441
17924WAT     H254015   6.125   7.122   8.408
17925WAT      O54016   2.430   2.251   4.713
17925WAT     H154017   2.502   2.229   4.778
17925WAT     H254018   2.462   2.233   4.620
17926WAT      O54019   8.773   9.808   2.272
17926WAT     H154020   8.726   9.874   2.329
17926WAT     H254021   8.863   9.843   2.248
17927WAT      O54022   9.333   7.163   3.295
17927WAT     H154023   9.269   7.089   3.316
17927WAT     H254024   9.336   7.226   3.373
17928WAT      O54025   6.324   1.282   0.480
17928WAT     H154026   6.354   1.278   0.385
17928WAT     H254027   6.403   1.283   0.540
17929WAT      O54028   8.665   1.969   2.441
17929WAT     H154029   8.590   2.031   2.464
17929WAT     H254030   8.640   1.913   2.362
17930WAT      O54031   9.182   8.185   0.193
17930WAT     H154032   9.180   8.244   0.112
17930WAT     H254033   9.273   8.188   0.234
17931WAT      O54034   5.521   4.831   4.559
17931WAT     H154035   5.523   4.799   4.654
17931WAT     H254036   5.474   4.919   4.555
17932WAT      O54037   6.720   3.772   7.181
17932WAT     H154038   6.818   3.788   7.171
17932WAT     H254039   6.684   3.830   7.254
17933WAT      O54040   8.837   8.383   5.300
17933WAT     H154041   8.895   8.455   5.261
17933WAT     H254042   8.870   8.294   5.270
17934WAT      O54043   2.490   0.224   4.541
17934WAT     H154044   2.478   0.126   4.559
17934WAT     H254045   2.550   0.264   4.610
17935WAT      O54046   0.457   2.948   5.565
17935WAT     H154047   0.515   3.028   5.580
17935WAT     H254048   0.420   2.917   5.653
17936WAT      O54049   8.869   3.832   4.086
17936WAT     H154050   8.913   3.772   4.153
17936WAT     H254051   8.869   3.787   3.997
17937WAT      O54052   3.010   3.576   2.887
17937WAT     H154053   3.021   3.500   2.823
17937WAT     H254054   2.951   3.549   2.963
17938WAT      O54055   2.136   0.712   3.627
17938WAT     H154056   2.052   0.663   3.607
17938WAT     H254057   2.157   0.774   3.551
17939WAT      O54058   4.074   8.423   2.850
17939WAT     H154059   4.051   8.494   2.917
17939WAT     H254060   4.164   8.384   2.873
17940WAT      O54061   0.987   6.704   8.220
17940WAT     H154062   0.925   6.646   8.275
17940WAT     H254063   1.080   6.695   8.256
17941WAT      O54064   7.990   2.013   1.454
17941WAT     H154065   8.041   2.098   1.465
17941WAT     H254066   7.968   1.976   1.545
17942WAT      O54067   7.720   4.006   7.639
17942WAT     H154068   7.739   4.102   7.660
17942WAT     H254069   7.744   3.949   7.717
17943WAT      O54070   2.745   0.962   0.048
17943WAT     H154071   2.808   0.901   0.097
17943WAT     H254072   2.657   0.916   0.036
17944WAT      O54073   7.843   2.262   4.982
17944WAT     H154074   7.764   2.301   5.029
17944WAT     H254075   7.815   2.181   4.931
17945WAT      O54076   1.675   8.519   9.255
17945WAT     H154077   1.769   8.535   9.224
17945WAT     H254078   1.663   8.422   9.277
17946WAT      O54079   4.315   8.157   2.499
17946WAT     H154080   4.235   8.098   2.495
17946WAT     H254081   4.374   8.128   2.574
17947WAT      O54082   6.602   1.814   9.809
17947WAT     H154083   6.654   1.895   9.834
17947WAT     H254084   6.588   1.757   9.889
17948WAT      O54085   3.646   4.958   4.239
17948WAT     H154086   3.569   4.983   4.181
17948WAT     H254087   3.613   4.931   4.330
17949WAT      O54088   2.026   8.352   9.626
17949WAT     H154089   2.074   8.374   9.541
17949WAT     H254090   1.940   8.403   9.630
17950WAT      O54091   1.733   7.519   7.116
17950WAT     H154092   1.673   7.455   7.164
17950WAT     H254093   1.747   7.488   7.022
17951WAT      O54094   8.576   3.257   9.362
17951WAT     H154095   8.613   3.232   9.451
17951WAT     H254096   8.606   3.350   9.339
17952WAT      O54097   8.361   5.690   5.054
17952WAT     H154098   8.297   5.630   5.006
17952WAT     H254099   8.375   5.656   5.147
17953WAT      O54100   4.190   2.941   1.669
17953WAT     H154101   4.225   3.017   1.613
17953WAT     H254102   4.091   2.931   1.653
17954WAT      O54103   9.594   6.714   0.495
17954WAT     H154104   9.618   6.774   0.571
17954WAT     H254105   9.677   6.685   0.447
17955WAT      O54106   7.050   8.740   0.568
17955WAT     H154107   7.061   8.712   0.472
17955WAT     H254108   7.025   8.661   0.623
17956WAT      O54109   4.099   5.832   6.016
17956WAT     H154110   4.082   5.888   6.096
17956WAT     H254111   4.141   5.887   5.944
17957WAT      O54112   9.806   8.198   3.811
17957WAT     H154113   9.717   8.235   3.782
17957WAT     H254114   9.811   8.101   3.787
17958WAT      O54115   9.578   9.379   3.511
17958WAT     H154116   9.639   9.436   3.566
17958WAT     H254117   9.489   9.372   3.556
17959WAT      O54118   4.791   8.214   4.419
17959WAT     H154119   4.779   8.248   4.512
17959WAT     H254120   4.812   8.290   4.357
17960WAT      O54121   4.326   5.306   4.756
17960WAT     H154122   4.236   5.343   4.735
17960WAT     H254123   4.389   5.326   4.681
17961WAT      O54124   1.771   3.820   3.583
17961WAT     H154125   1.860   3.858   3.610
17961WAT     H254126   1.774   3.796   3.486
17962WAT      O54127   7.949   1.093   4.924
17962WAT     H154128   7.850   1.107   4.921
17962WAT     H254129   7.971   1.005   4.882
17963WAT      O54130   5.192   5.638   0.180
17963WAT     H154131   5.189   5.632   0.280
17963WAT     H254132   5.233   5.725   0.153
17964WAT      O54133   0.823   8.289   5.988
17964WAT     H154134   0.825   8.194   6.021
17964WAT     H254135   0.733   8.328   6.005
17965WAT      O54136   8.539   6.027   1.280
17965WAT     H154137   8.628   6.012   1.238
17965WAT     H254138   8.550   6.076   1.367
17966WAT      O54139   6.595   2.855   3.152
17966WAT     H154140   6.514   2.871   3.208
17966WAT     H254141   6.660   2.930   3.165
17967WAT      O54142   6.130   6.700   7.581
17967WAT     H154143   6.047   6.661   7.621
17967WAT     H254144   6.123   6.800   7.581
17968WAT      O54145   7.025   3.737   3.510
17968WAT     H154146   6.995   3.644   3.531
17968WAT     H254147   6.973   3.771   3.432
17969WAT      O54148   8.723   3.537   7.416
17969WAT     H154149   8.631   3.541   7.377
17969WAT     H254150   8.738   3.616   7.476
17970WAT      O54151   2.423   4.927   6.370
17970WAT     H154152   2.410   4.860   6.443
17970WAT     H254153   2.402   5.018   6.404
17971WAT      O54154   4.658   6.559   2.019
17971WAT     H154155   4.645   6.563   1.920
17971WAT     H254156   4.644   6.650   2.058
17972WAT      O54157   3.137   0.627   0.740
17972WAT     H154158   3.103   0.631   0.646
17972WAT     H254159   3.211   0.693   0.752
17973WAT      O54160   1.264   4.276   5.499
17973WAT     H154161   1.215   4.251   5.415
17973WAT     H254162   1.363   4.263   5.484
17974WAT      O54163   4.791   9.071   0.516
17974WAT     H154164   4.736   9.113   0.587
17974WAT     H254165   4.758   8.978   0.499
17975WAT      O54166   6.352   8.889   7.635
17975WAT     H154167   6.393   8.959   7.577
17975WAT     H254168   6.257   8.914   7.656
17976WAT      O54169   2.377   8.428   7.022
17976WAT     H154170   2.436   8.488   6.968
17976WAT     H254171   2.433   8.360   7.070
17977WAT      O54172   0.831   1.948   9.360
17977WAT     H154173   0.744   1.909   9.389
17977WAT     H254174   0.894   1.951   9.437
17978WAT      O54175   6.840   9.497   1.221
17978WAT     H154176   6.788   9.552   1.287
17978WAT     H254177   6.795   9.500   1.132
17979WAT      O54178   0.954   8.902   6.248
17979WAT     H154179   0.866   8.937   6.215
17979WAT     H254180   0.939   8.845   6.328
17980WAT      O54181   4.557   0.895   1.853
17980WAT     H154182   4.490   0.874   1.925
17980WAT     H254183   4.578   0.811   1.803
17981WAT      O54184   1.533   9.762   2.668
17981WAT     H154185   1.588   9.824   2.723
17981WAT     H254186   1.492   9.692   2.727
17982WAT      O54187   8.873   3.094   8.566
17982WAT     H154188   8.966   3.130   8.571
17982WAT     H254189   8.826   3.134   8.487
17983WAT      O54190   9.039   2.365   6.591
17983WAT     H154191   9.118   2.415   6.554
17983WAT     H254192   9.056   2.267   6.587
17984WAT      O54193   0.969   4.374   6.224
17984WAT     H154194   0.888   4.365   6.166
17984WAT     H254195   0.956   4.322   6.308
17985WAT      O54196   0.792   1.329   5.485
17985WAT     H154197   0.876   1.359   5.438
17985WAT     H254198   0.797   1.231   5.503
17986WAT      O54199   8.713   1.077   3.793
17986WAT     H154200   8.715   0.989   3.746
17986WAT     H254201   8.756   1.146   3.734
17987WAT      O54202   5.805   2.981   9.679
17987WAT     H154203   5.902   3.004   9.689
17987WAT     H254204   5.792   2.927   9.596
17988WAT      O54205   8.663   6.768   4.126
17988WAT     H154206   8.679   6.792   4.221
17988WAT     H254207   8.565   6.755   4.110
17989WAT      O54208   0.700   2.779   1.868
17989WAT     H154209   0.711   2.725   1.952
17989WAT     H254210   0.609   2.819   1.865
17990WAT      O54211   6.685   7.489   6.917
17990WAT     H154212   6.782   7.513   6.910
17990WAT     H254213   6.657   7.439   6.835
17991WAT      O54214   8.297   8.480   2.317
17991WAT     H154215   8.276   8.578   2.316
17991WAT     H254216   8.375   8.463   2.377
17992WAT      O54217   2.518   5.165   1.759
17992WAT     H154218   2.490   5.092   1.821
17992WAT     H254219   2.510   5.133   1.664
17993WAT      O54220   7.252   8.845   7.717
17993WAT     H154221   7.266   8.901   7.799
17993WAT     H254222   7.174   8.784   7.732
17994WAT      O54223   4.383   1.757   0.572
17994WAT     H154224   4.370   1.788   0.666
17994WAT     H254225   4.298   1.767   0.522
17995WAT      O54226   9.211   7.130   2.566
17995WAT     H154227   9.172   7.058   2.508
17995WAT     H254228   9.297   7.097   2.606
17996WAT      O54229   1.616   7.911   4.607
17996WAT     H154230   1.683   7.920   4.533
17996WAT     H254231   1.527   7.941   4.575
17997WAT      O54232   0.275   8.102   7.876
17997WAT     H154233   0.291   8.160   7.796
17997WAT     H254234   0.246   8.011   7.845
17998WAT      O54235   0.827   1.537   7.094
17998WAT     H154236   0.874   1.530   7.006
17998WAT     H254237   0.789   1.629   7.104
17999WAT      O54238   3.024   0.274   8.233
17999WAT     H154239   2.979   0.325   8.307
17999WAT     H254240   3.087   0.207   8.272
18000WAT      O54241   9.414   3.380   4.785
18000WAT     H154242   9.463   3.295   4.805
18000WAT     H254243   9.475   3.458   4.798
18001WAT      O54244   1.931   4.625   8.417
18001WAT     H154245   1.855   4.687   8.399
18001WAT     H254246   1.975   4.650   8.504
18002WAT      O54247   6.584   5.779   3.874
18002WAT     H154248   6.524   5.782   3.953
18002WAT     H254249   6.663   5.838   3.889
18003WAT      O54250   3.491   0.196   5.633
18003WAT     H154251   3.499   0.243   5.721
18003WAT     H254252   3.541   0.247   5.563
18004WAT      O54253   9.276   9.660   2.211
18004WAT     H154254   9.294   9.567   2.240
18004WAT     H254255   9.292   9.723   2.287
18005WAT      O54256   4.648   6.278   3.614
18005WAT     H154257   4.731   6.283   3.669
18005WAT     H254258   4.591   6.358   3.633
18006WAT      O54259   6.868   2.747   8.433
18006WAT     H154260   6.967   2.759   8.442
18006WAT     H254261   6.825   2.752   8.523
18007WAT      O54262   6.543   1.617   8.620
18007WAT     H154263   6.521   1.699   8.672
18007WAT     H254264   6.526   1.536   8.677
18008WAT      O54265   4.293   9.772   6.394
18008WAT     H154266   4.214   9.832   6.379
18008WAT     H254267   4.263   9.687   6.438
18009WAT      O54268   9.527   3.946   6.903
18009WAT     H154269   9.550   4.025   6.845
18009WAT     H254270   9.433   3.918   6.885
18010WAT      O54271   3.064   3.519   6.489
18010WAT     H154272   3.046   3.526   6.587
18010WAT     H254273   2.996   3.573   6.439
18011WAT      O54274   0.958   8.530   3.875
18011WAT     H154275   0.968   8.453   3.937
18011WAT     H254276   0.888   8.593   3.911
18012WAT      O54277   5.657   3.639   9.144
18012WAT     H154278   5.620   3.726   9.177
18012WAT     H254279   5.659   3.573   9.219
18013WAT      O54280   8.268   5.596   1.340
18013WAT     H154281   8.284   5.541   1.422
18013WAT     H254282   8.254   5.692   1.367
18014WAT      O54283   1.245   4.057   6.976
18014WAT     H154284   1.153   4.080   7.007
18014WAT     H254285   1.311   4.110   7.029
18015WAT      O54286   6.319   6.195   9.157
18015WAT     H154287   6.262   6.120   9.191
18015WAT     H254288   6.261   6.264   9.114
18016WAT      O54289   8.917   6.353   7.154
18016WAT     H154290   8.831   6.322   7.194
18016WAT     H254291   8.917   6.453   7.149
18017WAT      O54292   7.340   5.757   7.340
18017WAT     H154293   7.413   5.791   7.398
18017WAT     H254294   7.300   5.832   7.288
18018WAT      O54295   7.692   8.700   4.185
18018WAT     H154296   7.653   8.781   4.229
18018WAT     H254297   7.786   8.688   4.214
18019WAT      O54298   9.407   2.166   6.584
18019WAT     H154299   9.362   2.251   6.556
18019WAT     H254300   9.504   2.169   6.560
18020WAT      O54301   6.308   1.850   2.360
18020WAT     H154302   6.292   1.762   2.316
18020WAT     H254303   6.235   1.914   2.335
18021WAT      O54304   3.938   3.233   6.377
18021WAT     H154305   3.980   3.162   6.321
18021WAT     H254306   3.890   3.299   6.319
18022WAT      O54307   4.492   3.733   3.877
18022WAT     H154308   4.561   3.707   3.810
18022WAT     H254309   4.533   3.795   3.945
18023WAT      O54310   1.778   5.781   6.772
18023WAT     H154311   1.830   5.792   6.857
18023WAT     H254312   1.760   5.870   6.731
18024WAT      O54313   1.938   3.714   8.322
18024WAT     H154314   1.916   3.700   8.225
18024WAT     H254315   1.864   3.764   8.365
18025WAT      O54316   8.037   9.529   1.373
18025WAT     H154317   7.981   9.610   1.356
18025WAT     H254318   8.118   9.532   1.314
18026WAT      O54319   1.178   2.377   3.284
18026WAT     H154320   1.195   2.281   3.306
18026WAT     H254321   1.128   2.383   3.198
18027WAT      O54322   5.414   6.928   7.344
18027WAT     H154323   5.423   7.005   7.281
18027WAT     H254324   5.322   6.929   7.384
18028WAT      O54325   0.935   7.749   3.018
18028WAT     H154326   0.897   7.784   2.933
18028WAT     H254327   0.910   7.811   3.093
18029WAT      O54328   4.750   0.406   9.498
18029WAT     H154329   4.709   0.354   9.573
18029WAT     H254330   4.816   0.348   9.450
18030WAT      O54331   2.160   7.721   4.448
18030WAT     H154332   2.203   7.679   4.367
18030WAT     H254333   2.065   7.692   4.454
18031WAT      O54334   2.741   2.204   4.224
18031WAT     H154335   2.793   2.226   4.306
18031WAT     H254336   2.803   2.190   4.147
18032WAT      O54337   3.755   2.430   6.299
18032WAT     H154338   3.732   2.382   6.214
18032WAT     H254339   3.742   2.528   6.287
18033WAT      O54340   4.498   4.419   3.078
18033WAT     H154341   4.526   4.329   3.044
18033WAT     H254342   4.421   4.452   3.024
18034WAT      O54343   0.500   2.613   9.110
18034WAT     H154344   0.484   2.514   9.113
18034WAT     H254345   0.416   2.660   9.084
18035WAT      O54346   0.811   6.659   7.197
18035WAT     H154347   0.879   6.623   7.133
18035WAT     H254348   0.856   6.680   7.284
18036WAT      O54349   3.264   7.594   1.434
18036WAT     H154350   3.303   7.599   1.526
18036WAT     H254351   3.203   7.515   1.427
18037WAT      O54352   5.931   6.409   6.320
18037WAT     H154353   5.844   6.361   6.305
18037WAT     H254354   5.957   6.401   6.416
18038WAT      O54355   3.744   1.127   3.580
18038WAT     H154356   3.749   1.191   3.657
18038WAT     H254357   3.651   1.090   3.573
18039WAT      O54358   6.539   7.805   8.623
18039WAT     H154359   6.519   7.903   8.619
18039WAT     H254360   6.576   7.783   8.713
18040WAT      O54361   6.042   4.636   1.224
18040WAT     H154362   5.962   4.691   1.247
18040WAT     H254363   6.119   4.697   1.205
18041WAT      O54364   9.574   7.435   1.802
18041WAT     H154365   9.480   7.429   1.767
18041WAT     H254366   9.591   7.357   1.863
18042WAT      O54367   4.159   6.610   2.906
18042WAT     H154368   4.096   6.561   2.846
18042WAT     H254369   4.162   6.565   2.995
18043WAT      O54370   5.931   4.729   7.778
18043WAT     H154371   6.012   4.679   7.810
18043WAT     H254372   5.855   4.664   7.766
18044WAT      O54373   5.456   8.637   0.554
18044WAT     H154374   5.476   8.711   0.490
18044WAT     H254375   5.476   8.666   0.647
18045WAT      O54376   2.218   2.768   9.018
18045WAT     H154377   2.231   2.755   9.116
18045WAT     H254378   2.140   2.830   9.003
18046WAT      O54379   4.802   4.958   1.964
18046WAT     H154380   4.759   5.035   2.011
18046WAT     H254381   4.749   4.875   1.982
18047WAT      O54382   1.019   6.283   3.438
18047WAT     H154383   0.959   6.253   3.364
18047WAT     H254384   0.979   6.363   3.484
18048WAT      O54385   8.764   4.772   1.863
18048WAT     H154386   8.858   4.805   1.851
18048WAT     H254387   8.766   4.690   1.921
18049WAT      O54388   8.358   1.002   2.451
18049WAT     H154389   8.433   0.937   2.442
18049WAT     H254390   8.365   1.071   2.378
18050WAT      O54391   2.103   1.218   7.912
18050WAT     H154392   2.114   1.209   7.813
18050WAT     H254393   2.193   1.228   7.955
18051WAT      O54394   5.812   1.465   8.345
18051WAT     H154395   5.777   1.481   8.252
18051WAT     H254396   5.886   1.398   8.341
18052WAT      O54397   9.038   1.198   2.158
18052WAT     H154398   9.043   1.264   2.233
18052WAT     H254399   9.091   1.231   2.081
18053WAT      O54400   9.033   5.699   6.735
18053WAT     H154401   9.014   5.603   6.715
18053WAT     H254402   9.076   5.707   6.824
18054WAT      O54403   6.646   2.308   1.923
18054WAT     H154404   6.657   2.380   1.853
18054WAT     H254405   6.567   2.251   1.899
18055WAT      O54406   1.042   7.084   5.467
18055WAT     H154407   0.975   7.050   5.400
18055WAT     H254408   1.134   7.061   5.436
18056WAT      O54409   4.658   6.399   2.230
18056WAT     H154410   4.717   6.445   2.297
18056WAT     H254411   4.647   6.458   2.150
18057WAT      O54412   9.466   6.345   2.277
18057WAT     H154413   9.447   6.390   2.190
18057WAT     H254414   9.503   6.412   2.342
18058WAT      O54415   7.639   8.595   7.892
18058WAT     H154416   7.614   8.588   7.795
18058WAT     H254417   7.648   8.503   7.930
18059WAT      O54418   3.608   2.883   4.457
18059WAT     H154419   3.511   2.897   4.437
18059WAT     H254420   3.624   2.899   4.555
18060WAT      O54421   0.615   2.035   0.666
18060WAT     H154422   0.546   2.087   0.715
18060WAT     H254423   0.700   2.032   0.719
18061WAT      O54424   6.582   4.864   8.768
18061WAT     H154425   6.582   4.768   8.796
18061WAT     H254426   6.502   4.910   8.807
18062WAT      O54427   4.810   2.666   0.783
18062WAT     H154428   4.740   2.685   0.715
18062WAT     H254429   4.770   2.619   0.862
18063WAT      O54430   1.232   8.452   9.749
18063WAT     H154431   1.313   8.394   9.762
18063WAT     H254432   1.175   8.448   9.831
18064WAT      O54433   6.772   6.093   8.663
18064WAT     H154434   6.848   6.101   8.727
18064WAT     H254435   6.754   5.997   8.643
18065WAT      O54436   0.465   8.542   5.339
18065WAT     H154437   0.509   8.545   5.430
18065WAT     H254438   0.527   8.499   5.274
18066WAT      O54439   8.655   2.170   8.622
18066WAT     H154440   8.618   2.257   8.589
18066WAT     H254441   8.580   2.108   8.644
18067WAT      O54442   9.015   0.204   9.669
18067WAT     H154443   8.923   0.175   9.643
18067WAT     H254444   9.063   0.128   9.713
18068WAT      O54445   5.748   8.347   4.906
18068WAT     H154446   5.675   8.297   4.953
18068WAT     H254447   5.713   8.432   4.868
18069WAT      O54448   9.292   5.763   2.099
18069WAT     H154449   9.232   5.715   2.163
18069WAT     H254450   9.248   5.847   2.068
18070WAT      O54451   4.670   8.667   4.988
18070WAT     H154452   4.616   8.750   5.005
18070WAT     H254453   4.729   8.683   4.909
18071WAT      O54454   3.212   2.648   2.097
18071WAT     H154455   3.303   2.682   2.073
18071WAT     H254456   3.220   2.563   2.148
18072WAT      O54457   5.739   9.408   9.510
18072WAT     H154458   5.640   9.409   9.491
18072WAT     H254459   5.789   9.414   9.423
18073WAT      O54460   1.504   8.241   5.649
18073WAT     H154461   1.419   8.290   5.669
18073WAT     H254462   1.577   8.307   5.634
18074WAT      O54463   6.975   5.040   9.653
18074WAT     H154464   6.887   5.013   9.694
18074WAT     H254465   7.037   5.071   9.725
18075WAT      O54466   8.555   7.518   8.328
18075WAT     H154467   8.577   7.609   8.294
18075WAT     H254468   8.461   7.494   8.303
18076WAT      O54469   8.210   0.796   7.627
18076WAT     H154470   8.162   0.726   7.681
18076WAT     H254471   8.296   0.758   7.592
18077WAT      O54472   2.529   3.590   3.163
18077WAT     H154473   2.604   3.581   3.229
18077WAT     H254474   2.561   3.563   3.073
18078WAT      O54475   7.192   6.707   9.836
18078WAT     H154476   7.178   6.728   9.933
18078WAT     H254477   7.245   6.781   9.794
18079WAT      O54478   2.208   6.883   6.617
18079WAT     H154479   2.201   6.852   6.712
18079WAT     H254480   2.152   6.964   6.604
18080WAT      O54481   5.569   7.216   3.316
18080WAT     H154482   5.630   7.251   3.387
18080WAT     H254483   5.537   7.125   3.341
18081WAT      O54484   3.252   6.124   3.347
18081WAT     H154485   3.174   6.153   3.403
18081WAT     H254486   3.224   6.117   3.251
18082WAT      O54487   1.171   2.497   9.767
18082WAT     H154488   1.205   2.474   9.858
18082WAT     H254489   1.156   2.596   9.761
18083WAT      O54490   8.451   7.908   3.996
18083WAT     H154491   8.465   7.864   3.907
18083WAT     H254492   8.531   7.893   4.054
18084WAT      O54493   0.771   9.173   2.446
18084WAT     H154494   0.775   9.217   2.536
18084WAT     H254495   0.863   9.166   2.408
18085WAT      O54496   7.138   4.703   8.508
18085WAT     H154497   7.182   4.782   8.551
18085WAT     H254498   7.177   4.619   8.546
18086WAT      O54499   4.067   0.279   7.664
18086WAT     H154500   4.005   0.201   7.674
18086WAT     H254501   4.020   0.353   7.616
18087WAT      O54502   1.410   8.226   2.591
18087WAT     H154503   1.383   8.250   2.683
18087WAT     H254504   1.330   8.222   2.531
18088WAT      O54505   6.929   3.552   2.588
18088WAT     H154506   6.926   3.462   2.545
18088WAT     H254507   7.023   3.576   2.609
18089WAT      O54508   3.265   1.237   8.709
18089WAT     H154509   3.291   1.327   8.671
18089WAT     H254510   3.343   1.199   8.759
18090WAT      O54511   2.739   3.412   5.880
18090WAT     H154512   2.651   3.367   5.895
18090WAT     H254513   2.724   3.499   5.833
18091WAT      O54514   6.063   9.686   7.385
18091WAT     H154515   6.072   9.782   7.408
18091WAT     H254516   6.131   9.661   7.317
18092WAT      O54517   8.001   3.338   0.891
18092WAT     H154518   8.031   3.413   0.832
18092WAT     H254519   8.008   3.251   0.841
18093WAT      O54520   8.053   4.071   9.595
18093WAT     H154521   8.126   4.090   9.661
18093WAT     H254522   8.094   4.056   9.505
18094WAT      O54523   2.411   9.558   8.090
18094WAT     H154524   2.384   9.466   8.121
18094WAT     H254525   2.505   9.556   8.058
18095WAT      O54526   0.091   1.122   6.584
18095WAT     H154527   0.059   1.164   6.499
18095WAT     H254528   0.108   1.193   6.652
18096WAT      O54529   2.077   3.201   2.694
18096WAT     H154530   2.103   3.210   2.790
18096WAT     H254531   2.120   3.274   2.641
18097WAT      O54532   1.755   9.029   5.893
18097WAT     H154533   1.723   8.982   5.811
18097WAT     H254534   1.855   9.039   5.889
18098WAT      O54535   7.510   5.139   7.157
18098WAT     H154536   7.603   5.151   7.122
18098WAT     H254537   7.470   5.228   7.177
18099WAT      O54538   2.662   8.563   7.079
18099WAT     H154539   2.669   8.465   7.099
18099WAT     H254540   2.626   8.611   7.158
18100WAT      O54541   3.468   6.980   0.008
18100WAT     H154542   3.413   7.009   0.086
18100WAT     H254543   3.461   7.048  -0.065
18101WAT      O54544   0.056   0.567   5.819
18101WAT     H154545   0.140   0.620   5.821
18101WAT     H254546   0.063   0.494   5.752
18102WAT      O54547   7.660   4.374   2.766
18102WAT     H154548   7.684   4.468   2.791
18102WAT     H254549   7.742   4.328   2.731
18103WAT      O54550   5.109   2.012   8.213
18103WAT     H154551   5.014   2.010   8.244
18103WAT     H254552   5.163   2.069   8.275
18104WAT      O54553   8.378   5.514   3.602
18104WAT     H154554   8.404   5.429   3.557
18104WAT     H254555   8.440   5.533   3.678
18105WAT      O54556   4.198   6.721   6.389
18105WAT     H154557   4.218   6.627   6.418
18105WAT     H254558   4.270   6.752   6.327
18106WAT      O54559   8.088   6.020   1.810
18106WAT     H154560   8.039   5.949   1.759
18106WAT     H254561   8.080   6.107   1.762
18107WAT      O54562   5.371   9.358   7.680
18107WAT     H154563   5.441   9.324   7.618
18107WAT     H254564   5.392   9.452   7.706
18108WAT      O54565   0.744   8.766   7.573
18108WAT     H154566   0.690   8.850   7.572
18108WAT     H254567   0.793   8.758   7.660
18109WAT      O54568   1.779   6.876   3.724
18109WAT     H154569   1.713   6.813   3.764
18109WAT     H254570   1.791   6.854   3.627
18110WAT      O54571   4.036   5.013   2.739
18110WAT     H154572   4.117   5.051   2.693
18110WAT     H254573   4.050   5.018   2.838
18111WAT      O54574   9.547   6.504   2.700
18111WAT     H154575   9.510   6.542   2.615
18111WAT     H254576   9.486   6.434   2.735
18112WAT      O54577   5.395   4.336   1.129
18112WAT     H154578   5.454   4.264   1.093
18112WAT     H254579   5.425   4.425   1.092
18113WAT      O54580   2.049   3.150   6.453
18113WAT     H154581   1.959   3.118   6.482
18113WAT     H254582   2.120   3.088   6.487
18114WAT      O54583   1.487   6.618   2.425
18114WAT     H154584   1.513   6.599   2.330
18114WAT     H254585   1.531   6.703   2.454
18115WAT      O54586   6.229   7.493   3.723
18115WAT     H154587   6.153   7.537   3.770
18115WAT     H254588   6.281   7.438   3.788
18116WAT      O54589   0.701   5.903   1.436
18116WAT     H154590   0.721   5.973   1.368
18116WAT     H254591   0.604   5.881   1.434
18117WAT      O54592   0.091   2.385   6.942
18117WAT     H154593   0.130   2.473   6.971
18117WAT     H254594   0.066   2.332   7.023
18118WAT      O54595   8.721   2.421   1.604
18118WAT     H154596   8.777   2.444   1.524
18118WAT     H254597   8.738   2.488   1.676
18119WAT      O54598   4.650   0.622   5.078
18119WAT     H154599   4.720   0.562   5.040
18119WAT     H254600   4.690   0.679   5.150
18120WAT      O54601   7.385   6.961   8.898
18120WAT     H154602   7.402   6.975   8.800
18120WAT     H254603   7.362   7.049   8.940
18121WAT      O54604   2.533   4.520   8.003
18121WAT     H154605   2.556   4.616   7.984
18121WAT     H254606   2.460   4.516   8.071
18122WAT      O54607   1.075   8.904   1.159
18122WAT     H154608   1.083   8.810   1.192
18122WAT     H254609   1.057   8.903   1.060
18123WAT      O54610   1.303   6.085   0.036
18123WAT     H154611   1.367   6.060   0.108
18123WAT     H254612   1.223   6.129   0.076
18124WAT      O54613   7.419   4.483   9.797
18124WAT     H154614   7.401   4.575   9.763
18124WAT     H254615   7.506   4.451   9.761
18125WAT      O54616   5.093   3.941   9.764
18125WAT     H154617   5.065   4.036   9.751
18125WAT     H254618   5.145   3.933   9.849
18126WAT      O54619   5.011   7.597   2.674
18126WAT     H154620   5.079   7.608   2.602
18126WAT     H254621   4.988   7.500   2.683
18127WAT      O54622   3.512   4.226   2.505
18127WAT     H154623   3.551   4.134   2.510
18127WAT     H254624   3.582   4.294   2.528
18128WAT      O54625   3.118   0.627   6.418
18128WAT     H154626   3.097   0.620   6.321
18128WAT     H254627   3.205   0.675   6.430
18129WAT      O54628   7.708   2.118   9.264
18129WAT     H154629   7.655   2.181   9.209
18129WAT     H254630   7.788   2.087   9.213
18130WAT      O54631   4.885   4.555   8.922
18130WAT     H154632   4.979   4.588   8.917
18130WAT     H254633   4.825   4.630   8.951
18131WAT      O54634   4.607   5.951   2.678
18131WAT     H154635   4.631   5.900   2.760
18131WAT     H254636   4.649   5.908   2.598
18132WAT      O54637   6.131   1.803   5.727
18132WAT     H154638   6.140   1.846   5.637
18132WAT     H254639   6.114   1.872   5.796
18133WAT      O54640   8.156   2.200   3.225
18133WAT     H154641   8.127   2.202   3.321
18133WAT     H254642   8.254   2.181   3.221
18134WAT      O54643   0.453   9.068   0.635
18134WAT     H154644   0.499   9.120   0.707
18134WAT     H254645   0.413   8.985   0.674
18135WAT      O54646   8.674   3.180   0.479
18135WAT     H154647   8.587   3.136   0.459
18135WAT     H254648   8.718   3.208   0.394
18136WAT      O54649   5.681   1.167   2.020
18136WAT     H154650   5.745   1.155   1.945
18136WAT     H254651   5.676   1.264   2.046
18137WAT      O54652   0.729   9.659   3.378
18137WAT     H154653   0.751   9.751   3.412
18137WAT     H254654   0.811   9.617   3.339
18138WAT      O54655   1.344   5.087   0.574
18138WAT     H154656   1.264   5.029   0.557
18138WAT     H254657   1.321   5.155   0.645
18139WAT      O54658   1.362   9.417   3.131
18139WAT     H154659   1.315   9.493   3.177
18139WAT     H254660   1.447   9.396   3.179
18140WAT      O54661   7.300   4.967   1.597
18140WAT     H154662   7.311   5.024   1.515
18140WAT     H254663   7.203   4.948   1.611
18141WAT      O54664   9.133   4.949   0.661
18141WAT     H154665   9.104   4.993   0.575
18141WAT     H254666   9.055   4.903   0.703
18142WAT      O54667   0.975   2.808   4.839
18142WAT     H154668   1.020   2.883   4.789
18142WAT     H254669   0.937   2.743   4.773
18143WAT      O54670   5.022   0.809   9.406
18143WAT     H154671   4.977   0.764   9.484
18143WAT     H254672   5.004   0.907   9.410
18144WAT      O54673   6.746   8.267   0.343
18144WAT     H154674   6.763   8.343   0.405
18144WAT     H254675   6.766   8.295   0.249
18145WAT      O54676   0.784   0.092   9.426
18145WAT     H154677   0.725   0.166   9.395
18145WAT     H254678   0.748   0.055   9.512
18146WAT      O54679   8.454   7.981   6.615
18146WAT     H154680   8.425   7.976   6.711
18146WAT     H254681   8.375   8.005   6.558
18147WAT      O54682   3.115   2.682   0.875
18147WAT     H154683   3.099   2.778   0.895
18147WAT     H254684   3.048   2.649   0.809
18148WAT      O54685   9.335   8.246   5.111
18148WAT     H154686   9.246   8.260   5.067
18148WAT     H254687   9.405   8.297   5.061
18149WAT      O54688   3.899   3.440   9.255
18149WAT     H154689   3.827   3.381   9.290
18149WAT     H254690   3.901   3.435   9.155
18150WAT      O54691   9.622   0.574   3.924
18150WAT     H154692   9.648   0.647   3.862
18150WAT     H254693   9.522   0.568   3.930
18151WAT      O54694   3.942   1.889   5.904
18151WAT     H154695   3.880   1.847   5.970
18151WAT     H254696   4.030   1.907   5.948
18152WAT      O54697   4.507   2.410   5.663
18152WAT     H154698   4.470   2.435   5.574
18152WAT     H254699   4.486   2.314   5.683
18153WAT      O54700   6.614   2.416   1.057
18153WAT     H154701   6.671   2.344   1.098
18153WAT     H254702   6.561   2.377   0.981
18154WAT      O54703   9.489   7.157   0.976
18154WAT     H154704   9.394   7.127   0.971
18154WAT     H254705   9.549   7.079   0.965
18155WAT      O54706   9.131   2.824   8.716
18155WAT     H154707   9.167   2.875   8.794
18155WAT     H254708   9.185   2.846   8.635
18156WAT      O54709   8.279   2.967   5.946
18156WAT     H154710   8.199   2.908   5.957
18156WAT     H254711   8.295   2.983   5.848
18157WAT      O54712   6.289   9.682   1.963
18157WAT     H154713   6.326   9.717   2.049
18157WAT     H254714   6.320   9.588   1.950
18158WAT      O54715   4.813   9.165   5.514
18158WAT     H154716   4.800   9.141   5.610
18158WAT     H254717   4.908   9.192   5.499
18159WAT      O54718   4.903   0.059   2.553
18159WAT     H154719   4.936   0.054   2.459
18159WAT     H254720   4.973   0.103   2.610
18160WAT      O54721   5.207   6.269   3.286
18160WAT     H154722   5.121   6.319   3.296
18160WAT     H254723   5.241   6.280   3.193
18161WAT      O54724   6.401   2.405   2.153
18161WAT     H154725   6.489   2.361   2.134
18161WAT     H254726   6.403   2.445   2.245
18162WAT      O54727   6.443   5.882   5.889
18162WAT     H154728   6.467   5.947   5.817
18162WAT     H254729   6.375   5.923   5.950
18163WAT      O54730   6.323   0.688   7.769
18163WAT     H154731   6.236   0.683   7.820
18163WAT     H254732   6.387   0.620   7.805
18164WAT      O54733   7.870   6.995   3.419
18164WAT     H154734   7.797   6.926   3.420
18164WAT     H254735   7.929   6.982   3.499
18165WAT      O54736   0.167   4.108   0.807
18165WAT     H154737   0.194   4.191   0.758
18165WAT     H254738   0.122   4.045   0.743
18166WAT      O54739   0.784   8.706   9.737
18166WAT     H154740   0.840   8.649   9.676
18166WAT     H254741   0.729   8.768   9.682
18167WAT      O54742   2.279   6.206   8.027
18167WAT     H154743   2.295   6.283   8.088
18167WAT     H254744   2.221   6.234   7.950
18168WAT      O54745   5.956   4.308   7.074
18168WAT     H154746   5.929   4.364   7.152
18168WAT     H254747   5.925   4.352   6.989
18169WAT      O54748   3.807   8.155   7.206
18169WAT     H154749   3.770   8.206   7.128
18169WAT     H254750   3.747   8.078   7.227
18170WAT      O54751   7.799   8.589   6.725
18170WAT     H154752   7.730   8.655   6.697
18170WAT     H254753   7.799   8.580   6.825
18171WAT      O54754   9.867   1.700   7.299
18171WAT     H154755   9.767   1.707   7.302
18171WAT     H254756   9.893   1.625   7.239
18172WAT      O54757   4.804   8.766   4.764
18172WAT     H154758   4.750   8.822   4.702
18172WAT     H254759   4.870   8.712   4.713
18173WAT      O54760   8.207   4.021   4.119
18173WAT     H154761   8.135   4.067   4.171
18173WAT     H254762   8.284   3.999   4.179
18174WAT      O54763   8.036   1.669   0.620
18174WAT     H154764   8.050   1.727   0.540
18174WAT     H254765   7.939   1.672   0.646
18175WAT      O54766   7.625   0.941   9.466
18175WAT     H154767   7.590   1.032   9.486
18175WAT     H254768   7.700   0.948   9.400
18176WAT      O54769   7.083   3.502   2.300
18176WAT     H154770   7.049   3.429   2.358
18176WAT     H254771   7.013   3.527   2.233
18177WAT      O54772   6.509   6.249   8.376
18177WAT     H154773   6.476   6.266   8.283
18177WAT     H254774   6.600   6.207   8.373
18178WAT      O54775   8.167   2.813   8.253
18178WAT     H154776   8.196   2.883   8.187
18178WAT     H254777   8.218   2.824   8.338
18179WAT      O54778   5.766   8.816   2.061
18179WAT     H154779   5.814   8.731   2.083
18179WAT     H254780   5.687   8.796   2.004
18180WAT      O54781   7.998   0.889   7.088
18180WAT     H154782   7.942   0.971   7.072
18180WAT     H254783   7.966   0.843   7.171
18181WAT      O54784   2.703   7.063   0.386
18181WAT     H154785   2.761   7.050   0.467
18181WAT     H254786   2.761   7.076   0.306
18182WAT      O54787   0.748   8.698   0.534
18182WAT     H154788   0.714   8.790   0.515
18182WAT     H254789   0.843   8.691   0.503
18183WAT      O54790   4.700   7.181   8.959
18183WAT     H154791   4.623   7.149   9.013
18183WAT     H254792   4.668   7.210   8.868
18184WAT      O54793   6.084   0.798   6.805
18184WAT     H154794   6.151   0.869   6.825
18184WAT     H254795   6.060   0.750   6.890
18185WAT      O54796   6.283   5.519   8.792
18185WAT     H154797   6.264   5.527   8.890
18185WAT     H254798   6.201   5.486   8.745
18186WAT      O54799   4.011   7.559   4.362
18186WAT     H154800   3.967   7.471   4.348
18186WAT     H254801   4.033   7.600   4.274
18187WAT      O54802   4.717   7.571   8.982
18187WAT     H154803   4.773   7.498   9.021
18187WAT     H254804   4.684   7.630   9.055
18188WAT      O54805   7.326   4.423   6.318
18188WAT     H154806   7.341   4.361   6.240
18188WAT     H254807   7.403   4.415   6.381
18189WAT      O54808   8.429   8.503   3.964
18189WAT     H154809   8.426   8.416   3.914
18189WAT     H254810   8.486   8.568   3.913
18190WAT      O54811   8.395   5.919   7.950
18190WAT     H154812   8.420   6.012   7.923
18190WAT     H254813   8.391   5.914   8.050
18191WAT      O54814   2.488   2.261   7.123
18191WAT     H154815   2.432   2.181   7.101
18191WAT     H254816   2.442   2.343   7.089
18192WAT      O54817   5.377   4.580   7.701
18192WAT     H154818   5.452   4.624   7.651
18192WAT     H254819   5.293   4.584   7.646
18193WAT      O54820   1.857   0.571   3.913
18193WAT     H154821   1.928   0.507   3.942
18193WAT     H254822   1.827   0.625   3.992
18194WAT      O54823   8.875   0.035   5.214
18194WAT     H154824   8.891  -0.055   5.175
18194WAT     H254825   8.785   0.068   5.183
18195WAT      O54826   8.745   9.800   5.837
18195WAT     H154827   8.783   9.815   5.928
18195WAT     H254828   8.708   9.707   5.831
18196WAT      O54829   4.027   8.619   8.603
18196WAT     H154830   3.971   8.604   8.522
18196WAT     H254831   4.058   8.530   8.639
18197WAT      O54832   4.143   6.494   5.133
18197WAT     H154833   4.128   6.395   5.134
18197WAT     H254834   4.059   6.541   5.162
18198WAT      O54835   5.254   6.817   6.521
18198WAT     H154836   5.207   6.778   6.442
18198WAT     H254837   5.234   6.915   6.525
18199WAT      O54838   6.239   4.830   4.459
18199WAT     H154839   6.281   4.744   4.485
18199WAT     H254840   6.153   4.812   4.410
18200WAT      O54841   5.981   4.372   9.801
18200WAT     H154842   5.994   4.282   9.841
18200WAT     H254843   5.994   4.442   9.871
18201WAT      O54844   1.694   3.053   4.214
18201WAT     H154845   1.642   3.075   4.296
18201WAT     H254846   1.778   3.107   4.213
18202WAT      O54847   4.384   7.251   6.586
18202WAT     H154848   4.398   7.200   6.671
18202WAT     H254849   4.286   7.256   6.566
18203WAT      O54850   1.594   0.310   7.609
18203WAT     H154851   1.678   0.277   7.652
18203WAT     H254852   1.538   0.232   7.582
18204WAT      O54853   5.927   0.390   6.155
18204WAT     H154854   5.985   0.309   6.152
18204WAT     H254855   5.950   0.445   6.236
18205WAT      O54856   6.351   4.696   4.704
18205WAT     H154857   6.328   4.623   4.639
18205WAT     H254858   6.278   4.764   4.705
18206WAT      O54859   7.834   6.900   0.424
18206WAT     H154860   7.772   6.835   0.468
18206WAT     H254861   7.857   6.867   0.332
18207WAT      O54862   2.577   3.261   4.211
18207WAT     H154863   2.563   3.292   4.305
18207WAT     H254864   2.644   3.187   4.211
18208WAT      O54865   1.323   9.783   5.701
18208WAT     H154866   1.256   9.751   5.768
18208WAT     H254867   1.289   9.764   5.609
18209WAT      O54868   6.166   4.222   6.943
18209WAT     H154869   6.102   4.276   6.998
18209WAT     H254870   6.176   4.131   6.983
18210WAT      O54871   0.813   0.872   1.009
18210WAT     H154872   0.719   0.847   0.983
18210WAT     H254873   0.875   0.797   0.987
18211WAT      O54874   8.426   8.252   1.539
18211WAT     H154875   8.423   8.213   1.631
18211WAT     H254876   8.341   8.231   1.491
18212WAT      O54877   9.275   4.744   0.028
18212WAT     H154878   9.373   4.761   0.018
18212WAT     H254879   9.260   4.649   0.056
18213WAT      O54880   2.657   4.735   5.780
18213WAT     H154881   2.679   4.822   5.737
18213WAT     H254882   2.560   4.716   5.769
18214WAT      O54883   0.242   5.877   1.617
18214WAT     H154884   0.182   5.856   1.695
18214WAT     H254885   0.321   5.816   1.619
18215WAT      O54886   2.409   2.207   6.624
18215WAT     H154887   2.341   2.156   6.678
18215WAT     H254888   2.474   2.251   6.686
18216WAT      O54889   4.985   6.352   7.783
18216WAT     H154890   4.965   6.404   7.866
18216WAT     H254891   4.937   6.264   7.786
18217WAT      O54892   3.466   0.032   9.489
18217WAT     H154893   3.481  -0.009   9.399
18217WAT     H254894   3.450  -0.040   9.556
18218WAT      O54895   6.826   4.315   9.652
18218WAT     H154896   6.880   4.382   9.601
18218WAT     H254897   6.884   4.268   9.718
18219WAT      O54898   6.745   3.344   4.188
18219WAT     H154899   6.716   3.385   4.102
18219WAT     H254900   6.796   3.412   4.241
18220WAT      O54901   9.129   7.433   2.822
18220WAT     H154902   9.113   7.448   2.920
18220WAT     H254903   9.202   7.493   2.791
18221WAT      O54904   1.901   5.420   2.634
18221WAT     H154905   1.903   5.371   2.546
18221WAT     H254906   1.905   5.353   2.708
18222WAT      O54907   3.704   7.169   3.987
18222WAT     H154908   3.774   7.161   3.916
18222WAT     H254909   3.621   7.120   3.958
18223WAT      O54910   3.879   4.277   4.506
18223WAT     H154911   3.922   4.188   4.513
18223WAT     H254912   3.876   4.306   4.410
18224WAT      O54913   3.368   1.091   7.881
18224WAT     H154914   3.322   1.139   7.955
18224WAT     H254915   3.415   1.157   7.822
18225WAT      O54916   7.768   0.177   7.104
18225WAT     H154917   7.770   0.277   7.110
18225WAT     H254918   7.843   0.145   7.046
18226WAT      O54919   4.676   8.210   1.356
18226WAT     H154920   4.699   8.174   1.266
18226WAT     H254921   4.691   8.309   1.357
18227WAT      O54922   5.463   3.723   5.735
18227WAT     H154923   5.364   3.735   5.726
18227WAT     H254924   5.509   3.772   5.661
18228WAT      O54925   6.543   8.812   8.146
18228WAT     H154926   6.543   8.724   8.192
18228WAT     H254927   6.567   8.800   8.050
18229WAT      O54928   3.201   3.879   8.404
18229WAT     H154929   3.123   3.937   8.382
18229WAT     H254930   3.243   3.845   8.320
18230WAT      O54931   5.429   6.805   3.004
18230WAT     H154932   5.372   6.888   2.999
18230WAT     H254933   5.391   6.742   3.071
18231WAT      O54934   0.330   8.010   0.953
18231WAT     H154935   0.272   7.968   0.883
18231WAT     H254936   0.307   8.106   0.963
18232WAT      O54937   8.230   0.647   2.870
18232WAT     H154938   8.282   0.626   2.787
18232WAT     H254939   8.249   0.577   2.939
18233WAT      O54940   4.156   5.199   6.474
18233WAT     H154941   4.187   5.140   6.548
18233WAT     H254942   4.223   5.271   6.459
18234WAT      O54943   3.897   4.804   5.779
18234WAT     H154944   3.828   4.872   5.754
18234WAT     H254945   3.906   4.800   5.878
18235WAT      O54946   5.743   3.231   2.053
18235WAT     H154947   5.786   3.203   1.967
18235WAT     H254948   5.645   3.212   2.049
18236WAT      O54949   5.662   0.270   6.719
18236WAT     H154950   5.756   0.245   6.696
18236WAT     H254951   5.654   0.281   6.818
18237WAT      O54952   2.881   7.150   8.381
18237WAT     H154953   2.933   7.168   8.464
18237WAT     H254954   2.942   7.154   8.302
18238WAT      O54955   1.390   5.765   8.337
18238WAT     H154956   1.347   5.741   8.249
18238WAT     H254957   1.319   5.796   8.400
18239WAT      O54958   5.162   8.946   4.931
18239WAT     H154959   5.086   8.931   4.994
18239WAT     H254960   5.181   9.044   4.924
18240WAT      O54961   9.108   2.829   0.677
18240WAT     H154962   9.122   2.741   0.631
18240WAT     H254963   9.109   2.902   0.608
18241WAT      O54964   0.988   0.787   9.594
18241WAT     H154965   0.936   0.702   9.595
18241WAT     H254966   1.074   0.775   9.644
18242WAT      O54967   2.919   8.854   6.804
18242WAT     H154968   2.887   8.820   6.892
18242WAT     H254969   2.845   8.846   6.737
18243WAT      O54970   8.614   0.766   8.183
18243WAT     H154971   8.602   0.678   8.229
18243WAT     H254972   8.702   0.806   8.211
18244WAT      O54973   5.319   2.393   4.781
18244WAT     H154974   5.263   2.475   4.769
18244WAT     H254975   5.406   2.418   4.823
18245WAT      O54976   6.800   7.025   6.698
18245WAT     H154977   6.719   6.985   6.655
18245WAT     H254978   6.861   7.062   6.627
18246WAT      O54979   0.281   0.761   4.242
18246WAT     H154980   0.247   0.667   4.238
18246WAT     H254981   0.321   0.777   4.332
18247WAT      O54982   3.674   8.731   9.234
18247WAT     H154983   3.712   8.747   9.325
18247WAT     H254984   3.639   8.817   9.197
18248WAT      O54985   2.135   2.323   7.455
18248WAT     H154986   2.047   2.367   7.438
18248WAT     H254987   2.145   2.244   7.396
18249WAT      O54988   7.668   6.691   6.149
18249WAT     H154989   7.600   6.684   6.222
18249WAT     H254990   7.726   6.610   6.150
18250WAT      O54991   8.122   9.780   7.514
18250WAT     H154992   8.172   9.693   7.518
18250WAT     H254993   8.083   9.800   7.604
18251WAT      O54994   5.516   0.546   8.556
18251WAT     H154995   5.544   0.634   8.519
18251WAT     H254996   5.479   0.559   8.648
18252WAT      O54997   5.176   8.286   5.126
18252WAT     H154998   5.213   8.310   5.216
18252WAT     H254999   5.179   8.366   5.066
18253WAT      O55000   4.794   0.390   7.292
18253WAT     H155001   4.767   0.304   7.336
18253WAT     H255002   4.846   0.445   7.357
18254WAT      O55003   0.311   9.340   2.536
18254WAT     H155004   0.225   9.389   2.549
18254WAT     H255005   0.339   9.298   2.623
18255WAT      O55006   7.998   1.485   1.439
18255WAT     H155007   8.094   1.513   1.429
18255WAT     H255008   7.956   1.476   1.349
18256WAT      O55009   2.694   4.980   6.019
18256WAT     H155010   2.780   4.941   5.985
18256WAT     H255011   2.705   5.078   6.033
18257WAT      O55012   4.165   6.464   8.649
18257WAT     H155013   4.165   6.518   8.565
18257WAT     H255014   4.090   6.494   8.708
18258WAT      O55015   3.248   7.567   9.316
18258WAT     H155016   3.202   7.519   9.242
18258WAT     H255017   3.252   7.665   9.296
18259WAT      O55018   2.174   1.757   1.704
18259WAT     H155019   2.085   1.773   1.746
18259WAT     H255020   2.161   1.723   1.611
18260WAT      O55021   0.268   3.247   9.437
18260WAT     H155022   0.285   3.198   9.522
18260WAT     H255023   0.210   3.191   9.377
18261WAT      O55024   8.332   1.546   3.639
18261WAT     H155025   8.289   1.501   3.561
18261WAT     H255026   8.263   1.597   3.691
18262WAT      O55027   1.926   2.530   7.893
18262WAT     H155028   1.883   2.574   7.814
18262WAT     H255029   1.979   2.451   7.862
18263WAT      O55030   7.870   5.359   3.686
18263WAT     H155031   7.857   5.358   3.785
18263WAT     H255032   7.968   5.358   3.665
18264WAT      O55033   2.458   4.096   6.256
18264WAT     H155034   2.419   4.004   6.262
18264WAT     H255035   2.396   4.155   6.206
18265WAT      O55036   9.495   0.306   9.170
18265WAT     H155037   9.471   0.392   9.215
18265WAT     H255038   9.561   0.257   9.226
18266WAT      O55039   9.473   4.254   9.004
18266WAT     H155040   9.557   4.296   9.039
18266WAT     H255041   9.394   4.292   9.053
18267WAT      O55042   3.889   6.820   2.854
18267WAT     H155043   3.939   6.817   2.941
18267WAT     H255044   3.932   6.758   2.789
18268WAT      O55045   0.311   8.523   6.164
18268WAT     H155046   0.237   8.546   6.101
18268WAT     H255047   0.289   8.439   6.213
18269WAT      O55048   8.194   8.626   3.955
18269WAT     H155049   8.287   8.595   3.974
18269WAT     H255050   8.172   8.704   4.013
18270WAT      O55051   5.569   5.334   7.299
18270WAT     H155052   5.502   5.378   7.239
18270WAT     H255053   5.542   5.240   7.316
18271WAT      O55054   6.375   1.516   6.327
18271WAT     H155055   6.473   1.517   6.310
18271WAT     H255056   6.343   1.608   6.346
18272WAT      O55057   1.944   8.292   0.967
18272WAT     H155058   1.928   8.261   0.873
18272WAT     H255059   1.867   8.265   1.024
18273WAT      O55060   1.409   8.948   5.805
18273WAT     H155061   1.384   9.026   5.748
18273WAT     H255062   1.401   8.973   5.902
18274WAT      O55063   2.613   6.742   1.058
18274WAT     H155064   2.591   6.649   1.029
18274WAT     H255065   2.707   6.764   1.030
18275WAT      O55066   2.542   1.563   5.512
18275WAT     H155067   2.588   1.530   5.594
18275WAT     H255068   2.477   1.494   5.479
18276WAT      O55069   2.917   6.497   8.017
18276WAT     H155070   2.939   6.436   7.941
18276WAT     H255071   2.958   6.587   8.000
18277WAT      O55072   3.362   0.455   9.587
18277WAT     H155073   3.351   0.502   9.675
18277WAT     H255074   3.452   0.411   9.583
18278WAT      O55075   8.506   2.711   6.604
18278WAT     H155076   8.584   2.700   6.543
18278WAT     H255077   8.529   2.672   6.694
18279WAT      O55078   5.285   0.023   4.567
18279WAT     H155079   5.261   0.042   4.471
18279WAT     H255080   5.328   0.103   4.607
18280WAT      O55081   7.311   8.868   7.463
18280WAT     H155082   7.293   8.849   7.559
18280WAT     H255083   7.225   8.891   7.416
18281WAT      O55084   3.669   4.677   0.687
18281WAT     H155085   3.744   4.611   0.680
18281WAT     H255086   3.591   4.643   0.634
18282WAT      O55087   5.382   9.054   8.175
18282WAT     H155088   5.309   8.991   8.148
18282WAT     H255089   5.368   9.084   8.269
18283WAT      O55090   1.145   1.656   2.423
18283WAT     H155091   1.133   1.756   2.423
18283WAT     H255092   1.211   1.630   2.353
18284WAT      O55093   0.001   7.642   2.791
18284WAT     H155094   0.088   7.637   2.840
18284WAT     H255095  -0.035   7.550   2.776
18285WAT      O55096   5.903   8.470   6.084
18285WAT     H155097   5.964   8.532   6.036
18285WAT     H255098   5.809   8.503   6.075
18286WAT      O55099   5.745   1.931   3.757
18286WAT     H155100   5.663   1.904   3.706
18286WAT     H255101   5.814   1.858   3.750
18287WAT      O55102   6.397   5.489   2.816
18287WAT     H155103   6.338   5.453   2.744
18287WAT     H255104   6.371   5.448   2.904
18288WAT      O55105   4.689   5.585   8.672
18288WAT     H155106   4.741   5.640   8.607
18288WAT     H255107   4.735   5.585   8.760
18289WAT      O55108   1.373   5.092   7.635
18289WAT     H155109   1.368   4.993   7.624
18289WAT     H255110   1.443   5.130   7.575
18290WAT      O55111   1.835   2.694   7.689
18290WAT     H155112   1.890   2.758   7.635
18290WAT     H255113   1.759   2.743   7.732
18291WAT      O55114   8.810   0.664   4.497
18291WAT     H155115   8.765   0.593   4.443
18291WAT     H255116   8.770   0.667   4.589
18292WAT      O55117   9.780   5.987   1.123
18292WAT     H155118   9.774   6.072   1.072
18292WAT     H255119   9.809   6.007   1.217
18293WAT      O55120   6.361   0.698   7.343
18293WAT     H155121   6.309   0.767   7.293
18293WAT     H255122   6.389   0.734   7.432
18294WAT      O55123   2.904   5.209   0.906
18294WAT     H155124   2.939   5.279   0.843
18294WAT     H255125   2.809   5.190   0.885
18295WAT      O55126   8.256   7.434   1.709
18295WAT     H155127   8.334   7.491   1.735
18295WAT     H255128   8.287   7.360   1.650
18296WAT      O55129   3.606   5.407   6.061
18296WAT     H155130   3.626   5.318   6.020
18296WAT     H255131   3.526   5.447   6.016
18297WAT      O55132   2.029   9.067   6.895
18297WAT     H155133   2.107   9.022   6.937
18297WAT     H255134   1.945   9.019   6.921
18298WAT      O55135   2.037   8.042   0.593
18298WAT     H155136   2.062   8.040   0.497
18298WAT     H255137   2.111   8.004   0.648
18299WAT      O55138   1.987   9.332   7.910
18299WAT     H155139   1.952   9.258   7.968
18299WAT     H255140   2.023   9.294   7.825
18300WAT      O55141   1.753   6.220   1.864
18300WAT     H155142   1.801   6.135   1.842
18300WAT     H255143   1.790   6.294   1.809
18301WAT      O55144   7.641   3.559   0.094
18301WAT     H155145   7.634   3.625   0.169
18301WAT     H255146   7.612   3.602   0.008
18302WAT      O55147   6.554   5.391   6.866
18302WAT     H155148   6.519   5.302   6.894
18302WAT     H255149   6.564   5.450   6.946
18303WAT      O55150   8.698   8.277   5.747
18303WAT     H155151   8.701   8.181   5.719
18303WAT     H255152   8.748   8.333   5.681
18304WAT      O55153   0.414   1.434   7.051
18304WAT     H155154   0.415   1.499   7.128
18304WAT     H255155   0.344   1.463   6.985
18305WAT      O55156   7.602   6.931   5.163
18305WAT     H155157   7.587   6.938   5.262
18305WAT     H255158   7.675   6.993   5.136
18306WAT      O55159   9.721   6.959   5.291
18306WAT     H155160   9.624   6.986   5.291
18306WAT     H255161   9.767   7.000   5.370
18307WAT      O55162   9.631   7.708   3.275
18307WAT     H155163   9.632   7.609   3.286
18307WAT     H255164   9.560   7.748   3.333
18308WAT      O55165   1.574   4.995   6.309
18308WAT     H155166   1.582   4.900   6.279
18308WAT     H255167   1.509   5.043   6.249
18309WAT      O55168   1.855   9.596   1.304
18309WAT     H155169   1.902   9.515   1.269
18309WAT     H255170   1.905   9.633   1.383
18310WAT      O55171   8.972   1.153   9.078
18310WAT     H155172   8.897   1.088   9.088
18310WAT     H255173   9.027   1.155   9.162
18311WAT      O55174   9.007   7.097   7.139
18311WAT     H155175   8.974   7.059   7.053
18311WAT     H255176   8.988   7.195   7.142
18312WAT      O55177   3.842   8.617   3.519
18312WAT     H155178   3.823   8.702   3.469
18312WAT     H255179   3.800   8.540   3.471
18313WAT      O55180   7.434   5.732   3.318
18313WAT     H155181   7.408   5.660   3.254
18313WAT     H255182   7.441   5.693   3.410
18314WAT      O55183   9.731   6.111   7.891
18314WAT     H155184   9.814   6.078   7.846
18314WAT     H255185   9.652   6.058   7.860
18315WAT      O55186   8.507   1.017   4.471
18315WAT     H155187   8.566   1.089   4.508
18315WAT     H255188   8.418   1.055   4.449
18316WAT      O55189   3.849   1.676   8.671
18316WAT     H155190   3.793   1.683   8.754
18316WAT     H255191   3.946   1.674   8.695
18317WAT      O55192   0.620   0.238   1.595
18317WAT     H155193   0.577   0.257   1.507
18317WAT     H255194   0.668   0.319   1.627
18318WAT      O55195   1.058   3.239   6.505
18318WAT     H155196   1.060   3.162   6.442
18318WAT     H255197   1.135   3.232   6.569
18319WAT      O55198   9.102   2.935   9.792
18319WAT     H155199   9.100   2.913   9.695
18319WAT     H255200   9.086   2.852   9.845
18320WAT      O55201   7.964   7.338   9.748
18320WAT     H155202   7.947   7.301   9.656
18320WAT     H255203   7.890   7.400   9.773
18321WAT      O55204   8.567   8.999   1.022
18321WAT     H155205   8.531   8.985   1.114
18321WAT     H255206   8.554   8.917   0.968
18322WAT      O55207   1.930   6.742   2.563
18322WAT     H155208   1.895   6.785   2.479
18322WAT     H255209   2.026   6.719   2.550
18323WAT      O55210   2.291   8.186   2.293
18323WAT     H155211   2.289   8.095   2.334
18323WAT     H255212   2.241   8.184   2.206
18324WAT      O55213   3.544   8.779   2.676
18324WAT     H155214   3.578   8.785   2.770
18324WAT     H255215   3.563   8.864   2.629
18325WAT      O55216   2.552   7.698   1.171
18325WAT     H155217   2.474   7.635   1.167
18325WAT     H255218   2.528   7.783   1.124
18326WAT      O55219   4.464   2.443   6.061
18326WAT     H155220   4.467   2.527   6.007
18326WAT     H255221   4.384   2.445   6.122
18327WAT      O55222   3.936   5.932   3.940
18327WAT     H155223   3.950   5.958   3.845
18327WAT     H255224   3.994   5.987   4.000
18328WAT      O55225   8.434   1.606   9.847
18328WAT     H155226   8.490   1.689   9.857
18328WAT     H255227   8.477   1.546   9.779
18329WAT      O55228   7.034   9.107   2.089
18329WAT     H155229   7.035   9.045   2.011
18329WAT     H255230   7.028   9.055   2.174
18330WAT      O55231   1.435   4.147   4.954
18330WAT     H155232   1.403   4.063   4.998
18330WAT     H255233   1.400   4.226   5.005
18331WAT      O55234   5.875   7.693   1.778
18331WAT     H155235   5.794   7.751   1.788
18331WAT     H255236   5.939   7.735   1.713
18332WAT      O55237   3.560   6.621   9.517
18332WAT     H155238   3.486   6.578   9.569
18332WAT     H255239   3.564   6.718   9.539
18333WAT      O55240   6.139   6.798   2.445
18333WAT     H155241   6.109   6.808   2.350
18333WAT     H255242   6.060   6.776   2.503
18334WAT      O55243   1.711   3.959   2.669
18334WAT     H155244   1.810   3.967   2.662
18334WAT     H255245   1.668   4.036   2.622
18335WAT      O55246   2.752   7.587   1.332
18335WAT     H155247   2.670   7.617   1.284
18335WAT     H255248   2.783   7.500   1.295
18336WAT      O55249   7.648   6.429   0.726
18336WAT     H155250   7.650   6.529   0.735
18336WAT     H255251   7.741   6.394   0.719
18337WAT      O55252   9.343   3.827   4.581
18337WAT     H155253   9.305   3.878   4.658
18337WAT     H255254   9.420   3.878   4.543
18338WAT      O55255   0.341   8.243   4.055
18338WAT     H155256   0.248   8.225   4.024
18338WAT     H255257   0.388   8.156   4.071
18339WAT      O55258   6.531   9.244   8.079
18339WAT     H155259   6.535   9.341   8.103
18339WAT     H255260   6.562   9.233   7.984
18340WAT      O55261   3.999   6.930   3.594
18340WAT     H155262   3.955   6.855   3.543
18340WAT     H255263   4.090   6.900   3.624
18341WAT      O55264   2.842   3.487   4.764
18341WAT     H155265   2.747   3.515   4.781
18341WAT     H255266   2.891   3.560   4.716
18342WAT      O55267   7.456   1.084   6.897
18342WAT     H155268   7.534   1.113   6.952
18342WAT     H255269   7.487   1.067   6.803
18343WAT      O55270   2.580   3.242   8.900
18343WAT     H155271   2.547   3.316   8.959
18343WAT     H255272   2.515   3.166   8.901
18344WAT      O55273   3.531   9.548   2.949
18344WAT     H155274   3.506   9.559   3.045
18344WAT     H255275   3.580   9.629   2.918
18345WAT      O55276   7.640   0.370   2.862
18345WAT     H155277   7.663   0.323   2.948
18345WAT     H255278   7.632   0.468   2.879
18346WAT      O55279   8.144   8.807   4.431
18346WAT     H155280   8.212   8.875   4.402
18346WAT     H255281   8.093   8.843   4.509
18347WAT      O55282   8.912   5.027   2.414
18347WAT     H155283   8.947   4.962   2.346
18347WAT     H255284   8.858   4.978   2.482
18348WAT      O55285   8.027   7.967   7.854
18348WAT     H155286   8.051   7.917   7.937
18348WAT     H255287   7.931   7.996   7.860
18349WAT      O55288   7.166   7.167   3.284
18349WAT     H155289   7.113   7.251   3.288
18349WAT     H255290   7.106   7.088   3.297
18350WAT      O55291   6.038   7.267   4.192
18350WAT     H155292   6.018   7.201   4.120
18350WAT     H255293   5.974   7.255   4.268
18351WAT      O55294   6.355   4.586   2.262
18351WAT     H155295   6.404   4.659   2.216
18351WAT     H255296   6.335   4.513   2.197
18352WAT      O55297   3.147   4.201   1.367
18352WAT     H155298   3.145   4.300   1.384
18352WAT     H255299   3.205   4.182   1.288
18353WAT      O55300   5.686   8.342   9.424
18353WAT     H155301   5.724   8.397   9.350
18353WAT     H255302   5.592   8.372   9.443
18354WAT      O55303   1.655   8.339   4.720
18354WAT     H155304   1.702   8.305   4.640
18354WAT     H255305   1.640   8.438   4.711
18355WAT      O55306   3.517   7.140   5.657
18355WAT     H155307   3.541   7.068   5.722
18355WAT     H255308   3.417   7.142   5.645
18356WAT      O55309   3.018   6.397   6.843
18356WAT     H155310   3.055   6.489   6.857
18356WAT     H255311   2.975   6.366   6.928
18357WAT      O55312   7.828   5.021   4.825
18357WAT     H155313   7.878   4.966   4.759
18357WAT     H255314   7.737   4.981   4.840
18358WAT      O55315   0.520   7.195   7.038
18358WAT     H155316   0.471   7.128   6.982
18358WAT     H255317   0.521   7.164   7.133
18359WAT      O55318   0.229   7.339   5.182
18359WAT     H155319   0.285   7.299   5.110
18359WAT     H255320   0.278   7.414   5.225
18360WAT      O55321   2.983   5.875   1.566
18360WAT     H155322   2.944   5.853   1.656
18360WAT     H255323   2.936   5.954   1.527
18361WAT      O55324   1.637   9.575   2.395
18361WAT     H155325   1.714   9.636   2.411
18361WAT     H255326   1.609   9.535   2.482
18362WAT      O55327   0.139   8.294   8.349
18362WAT     H155328   0.225   8.248   8.365
18362WAT     H255329   0.112   8.344   8.432
18363WAT      O55330   5.254   4.297   4.697
18363WAT     H155331   5.351   4.283   4.720
18363WAT     H255332   5.248   4.366   4.624
18364WAT      O55333   9.639   6.484   9.812
18364WAT     H155334   9.560   6.509   9.868
18364WAT     H255335   9.708   6.557   9.818
18365WAT      O55336   2.243   9.499   7.865
18365WAT     H155337   2.263   9.546   7.950
18365WAT     H255338   2.183   9.421   7.883
18366WAT      O55339   0.871   3.919   2.057
18366WAT     H155340   0.963   3.957   2.070
18366WAT     H255341   0.803   3.981   2.095
18367WAT      O55342   0.823   7.120   3.697
18367WAT     H155343   0.911   7.073   3.699
18367WAT     H255344   0.823   7.187   3.622
18368WAT      O55345   2.201   1.761   0.365
18368WAT     H155346   2.293   1.789   0.392
18368WAT     H255347   2.207   1.690   0.294
18369WAT      O55348   2.553   8.408   9.542
18369WAT     H155349   2.493   8.341   9.498
18369WAT     H255350   2.647   8.374   9.541
18370WAT      O55351   9.481   8.260   3.320
18370WAT     H155352   9.481   8.275   3.221
18370WAT     H255353   9.545   8.324   3.363
18371WAT      O55354   1.566   6.356   5.527
18371WAT     H155355   1.660   6.351   5.495
18371WAT     H255356   1.555   6.301   5.610
18372WAT      O55357   2.261   0.992   9.679
18372WAT     H155358   2.278   0.899   9.646
18372WAT     H255359   2.209   0.988   9.764
18373WAT      O55360   4.708   1.816   0.323
18373WAT     H155361   4.731   1.858   0.411
18373WAT     H255362   4.765   1.856   0.251
18374WAT      O55363   3.985   0.296   9.656
18374WAT     H155364   3.927   0.242   9.716
18374WAT     H255365   3.992   0.251   9.567
18375WAT      O55366   7.994   2.203   0.521
18375WAT     H155367   8.040   2.280   0.564
18375WAT     H255368   7.942   2.234   0.442
18376WAT      O55369   8.660   3.860   4.269
18376WAT     H155370   8.722   3.856   4.191
18376WAT     H255371   8.599   3.781   4.268
18377WAT      O55372   4.236   2.502   5.737
18377WAT     H155373   4.193   2.425   5.690
18377WAT     H255374   4.334   2.503   5.719
18378WAT      O55375   8.032   1.620   5.231
18378WAT     H155376   8.086   1.583   5.156
18378WAT     H255377   7.979   1.698   5.198
18379WAT      O55378   5.290   4.732   6.212
18379WAT     H155379   5.350   4.811   6.198
18379WAT     H255380   5.224   4.727   6.136
18380WAT      O55381   7.758   0.088   9.529
18380WAT     H155382   7.769  -0.003   9.488
18380WAT     H255383   7.843   0.116   9.572
18381WAT      O55384   4.201   6.546   4.869
18381WAT     H155385   4.174   6.509   4.958
18381WAT     H255386   4.193   6.475   4.800
18382WAT      O55387   4.431   6.995   7.620
18382WAT     H155388   4.484   7.080   7.622
18382WAT     H255389   4.453   6.941   7.701
18383WAT      O55390   7.142   1.160   8.281
18383WAT     H155391   7.074   1.200   8.220
18383WAT     H255392   7.108   1.161   8.375
18384WAT      O55393   1.141   6.688   0.876
18384WAT     H155394   1.149   6.723   0.970
18384WAT     H255395   1.228   6.700   0.829
18385WAT      O55396   9.322   5.121   8.757
18385WAT     H155397   9.420   5.118   8.776
18385WAT     H255398   9.282   5.032   8.779
18386WAT      O55399   4.584   6.692   2.559
18386WAT     H155400   4.502   6.707   2.505
18386WAT     H255401   4.625   6.604   2.533
18387WAT      O55402   6.200   5.027   0.754
18387WAT     H155403   6.146   4.961   0.805
18387WAT     H255404   6.298   5.014   0.774
18388WAT      O55405   2.457   9.769   3.048
18388WAT     H155406   2.536   9.761   3.110
18388WAT     H255407   2.444   9.866   3.024
18389WAT      O55408   4.357   9.780   7.047
18389WAT     H155409   4.456   9.791   7.036
18389WAT     H255410   4.331   9.805   7.140
18390WAT      O55411   4.072   3.434   4.814
18390WAT     H155412   4.121   3.498   4.873
18390WAT     H255413   4.111   3.342   4.824
18391WAT      O55414   7.116   6.390   1.272
18391WAT     H155415   7.165   6.430   1.194
18391WAT     H255416   7.181   6.367   1.344
18392WAT      O55417   8.569   2.235   2.695
18392WAT     H155418   8.668   2.227   2.706
18392WAT     H255419   8.528   2.269   2.779
18393WAT      O55420   8.760   1.503   6.674
18393WAT     H155421   8.852   1.464   6.682
18393WAT     H255422   8.695   1.430   6.651
18394WAT      O55423   9.708   1.207   4.014
18394WAT     H155424   9.768   1.129   3.993
18394WAT     H255425   9.758   1.292   3.999
18395WAT      O55426   4.199   2.715   0.651
18395WAT     H155427   4.109   2.672   0.652
18395WAT     H255428   4.269   2.647   0.629
18396WAT      O55429   3.954   0.513   5.744
18396WAT     H155430   3.973   0.456   5.824
18396WAT     H255431   3.991   0.604   5.758
18397WAT      O55432   8.416   4.600   7.976
18397WAT     H155433   8.332   4.554   8.005
18397WAT     H255434   8.461   4.547   7.905
18398WAT      O55435   8.722   5.112   3.393
18398WAT     H155436   8.726   5.212   3.391
18398WAT     H255437   8.626   5.083   3.392
18399WAT      O55438   2.551   4.831   8.294
18399WAT     H155439   2.619   4.759   8.276
18399WAT     H255440   2.544   4.891   8.215
18400WAT      O55441   0.717   5.867   7.795
18400WAT     H155442   0.738   5.891   7.700
18400WAT     H255443   0.664   5.783   7.798
18401WAT      O55444   6.667   3.342   5.942
18401WAT     H155445   6.584   3.327   5.889
18401WAT     H255446   6.660   3.295   6.030
18402WAT      O55447   5.239   0.573   4.355
18402WAT     H155448   5.156   0.551   4.406
18402WAT     H255449   5.299   0.493   4.352
18403WAT      O55450   2.032   1.166   2.847
18403WAT     H155451   2.016   1.162   2.946
18403WAT     H255452   1.953   1.130   2.798
18404WAT      O55453   7.699   4.992   7.763
18404WAT     H155454   7.692   5.091   7.749
18404WAT     H255455   7.719   4.973   7.859
18405WAT      O55456   6.306   8.042   9.003
18405WAT     H155457   6.295   8.030   9.102
18405WAT     H255458   6.395   8.085   8.984
18406WAT      O55459   1.123   5.081   8.970
18406WAT     H155460   1.114   5.043   8.879
18406WAT     H255461   1.210   5.054   9.011
18407WAT      O55462   2.747   5.656   1.569
18407WAT     H155463   2.714   5.701   1.652
18407WAT     H255464   2.842   5.681   1.554
18408WAT      O55465   7.882   9.311   0.693
18408WAT     H155466   7.902   9.220   0.730
18408WAT     H255467   7.967   9.353   0.661
18409WAT      O55468   4.491   3.339   6.123
18409WAT     H155469   4.396   3.327   6.096
18409WAT     H255470   4.548   3.274   6.072
18410WAT      O55471   7.743   3.565   7.016
18410WAT     H155472   7.809   3.591   7.087
18410WAT     H255473   7.651   3.589   7.045
18411WAT      O55474   0.603   3.727   2.951
18411WAT     H155475   0.528   3.671   2.986
18411WAT     H255476   0.566   3.804   2.900
18412WAT      O55477   8.157   5.217   4.978
18412WAT     H155478   8.059   5.231   4.971
18412WAT     H255479   8.204   5.305   4.984
18413WAT      O55480   4.386   0.412   4.956
18413WAT     H155481   4.410   0.502   4.919
18413WAT     H255482   4.439   0.341   4.908
18414WAT      O55483   9.097   9.264   4.418
18414WAT     H155484   9.078   9.169   4.394
18414WAT     H255485   9.027   9.323   4.379
18415WAT      O55486   4.352   5.627   8.971
18415WAT     H155487   4.383   5.654   8.880
18415WAT     H255488   4.321   5.708   9.021
18416WAT      O55489   9.186   2.459   4.743
18416WAT     H155490   9.241   2.481   4.824
18416WAT     H255491   9.246   2.427   4.670
18417WAT      O55492   0.795   7.511   4.868
18417WAT     H155493   0.750   7.427   4.896
18417WAT     H255494   0.863   7.537   4.938
18418WAT      O55495   3.430   3.659   2.863
18418WAT     H155496   3.395   3.650   2.956
18418WAT     H255497   3.412   3.574   2.812
18419WAT      O55498   0.538   8.678   6.156
18419WAT     H155499   0.445   8.642   6.148
18419WAT     H255500   0.572   8.703   6.066
18420WAT      O55501   2.198   1.560   1.475
18420WAT     H155502   2.160   1.524   1.390
18420WAT     H255503   2.287   1.603   1.456
18421WAT      O55504   8.463   5.483   6.356
18421WAT     H155505   8.413   5.563   6.322
18421WAT     H255506   8.476   5.493   6.455
18422WAT      O55507   1.540   6.542   9.439
18422WAT     H155508   1.471   6.499   9.497
18422WAT     H255509   1.528   6.512   9.344
18423WAT      O55510   9.598   5.197   1.775
18423WAT     H155511   9.584   5.289   1.813
18423WAT     H255512   9.532   5.134   1.815
18424WAT      O55513   7.362   6.138   2.225
18424WAT     H155514   7.332   6.077   2.298
18424WAT     H255515   7.374   6.230   2.262
18425WAT      O55516   5.147   4.025   1.867
18425WAT     H155517   5.213   4.003   1.939
18425WAT     H255518   5.134   4.124   1.863
18426WAT      O55519   5.130   5.705   7.625
18426WAT     H155520   5.217   5.714   7.673
18426WAT     H255521   5.138   5.745   7.534
18427WAT      O55522   6.778   4.514   1.603
18427WAT     H155523   6.808   4.421   1.583
18427WAT     H255524   6.780   4.528   1.702
18428WAT      O55525   4.390   4.596   7.310
18428WAT     H155526   4.460   4.620   7.243
18428WAT     H255527   4.311   4.556   7.263
18429WAT      O55528   5.498   5.397   0.221
18429WAT     H155529   5.489   5.397   0.122
18429WAT     H255530   5.501   5.491   0.254
18430WAT      O55531   2.880   6.730   3.399
18430WAT     H155532   2.880   6.812   3.457
18430WAT     H255533   2.786   6.700   3.385
18431WAT      O55534   3.146   5.659   5.309
18431WAT     H155535   3.185   5.593   5.373
18431WAT     H255536   3.074   5.712   5.355
18432WAT      O55537   6.743   8.182   4.919
18432WAT     H155538   6.671   8.241   4.882
18432WAT     H255539   6.761   8.107   4.855
18433WAT      O55540   4.854   9.064   0.221
18433WAT     H155541   4.840   9.152   0.175
18433WAT     H255542   4.854   9.078   0.320
18434WAT      O55543   5.514   1.813   3.612
18434WAT     H155544   5.424   1.857   3.614
18434WAT     H255545   5.559   1.833   3.525
18435WAT      O55546   2.309   1.851   8.169
18435WAT     H155547   2.379   1.802   8.221
18435WAT     H255548   2.254   1.906   8.232
18436WAT      O55549   7.830   6.302   7.681
18436WAT     H155550   7.829   6.205   7.655
18436WAT     H255551   7.897   6.316   7.754
18437WAT      O55552   9.310   0.465   6.791
18437WAT     H155553   9.387   0.405   6.812
18437WAT     H255554   9.255   0.479   6.873
18438WAT      O55555   2.185   5.385   6.003
18438WAT     H155556   2.223   5.466   6.047
18438WAT     H255557   2.087   5.381   6.020
18439WAT      O55558   3.826   4.972   3.279
18439WAT     H155559   3.808   5.004   3.186
18439WAT     H255560   3.751   4.913   3.309
18440WAT      O55561   4.323   0.157   6.064
18440WAT     H155562   4.356   0.087   6.000
18440WAT     H255563   4.376   0.151   6.149
18441WAT      O55564   8.206   1.433   7.886
18441WAT     H155565   8.255   1.495   7.825
18441WAT     H255566   8.142   1.485   7.942
18442WAT      O55567   0.454   6.099   6.554
18442WAT     H155568   0.389   6.169   6.522
18442WAT     H255569   0.456   6.024   6.487
18443WAT      O55570   9.144   7.270   4.943
18443WAT     H155571   9.103   7.356   4.972
18443WAT     H255572   9.243   7.284   4.929
18444WAT      O55573   4.916   2.317   9.133
18444WAT     H155574   4.977   2.275   9.201
18444WAT     H255575   4.884   2.246   9.069
18445WAT      O55576   1.537   8.652   2.604
18445WAT     H155577   1.465   8.597   2.647
18445WAT     H255578   1.566   8.724   2.667
18446WAT      O55579   3.014   3.241   6.351
18446WAT     H155580   2.997   3.187   6.434
18446WAT     H255581   3.018   3.338   6.375
18447WAT      O55582   9.787   4.721   4.475
18447WAT     H155583   9.814   4.701   4.569
18447WAT     H255584   9.832   4.804   4.444
18448WAT      O55585   4.325   4.765   6.581
18448WAT     H155586   4.374   4.775   6.667
18448WAT     H255587   4.387   4.783   6.505
18449WAT      O55588   5.349   7.244   2.482
18449WAT     H155589   5.393   7.155   2.469
18449WAT     H255590   5.363   7.300   2.401
18450WAT      O55591   6.049   4.117   1.536
18450WAT     H155592   6.094   4.184   1.477
18450WAT     H255593   6.100   4.109   1.622
18451WAT      O55594   8.626   5.549   5.778
18451WAT     H155595   8.725   5.558   5.774
18451WAT     H255596   8.598   5.532   5.873
18452WAT      O55597   7.058   2.297   0.879
18452WAT     H155598   6.977   2.243   0.855
18452WAT     H255599   7.031   2.387   0.910
18453WAT      O55600   8.197   7.867   2.961
18453WAT     H155601   8.161   7.788   3.010
18453WAT     H255602   8.124   7.908   2.906
18454WAT      O55603   3.952   7.074   1.776
18454WAT     H155604   3.884   7.001   1.781
18454WAT     H255605   3.940   7.136   1.854
18455WAT      O55606   7.050   4.279   0.691
18455WAT     H155607   7.011   4.358   0.737
18455WAT     H255608   7.007   4.267   0.601
18456WAT      O55609   0.774   4.689   2.148
18456WAT     H155610   0.679   4.666   2.170
18456WAT     H255611   0.835   4.641   2.211
18457WAT      O55612   4.035   0.633   7.834
18457WAT     H155613   4.009   0.591   7.747
18457WAT     H255614   4.109   0.580   7.876
18458WAT      O55615   8.473   0.368   9.862
18458WAT     H155616   8.391   0.424   9.852
18458WAT     H255617   8.447   0.272   9.874
18459WAT      O55618   5.918   4.612   9.103
18459WAT     H155619   5.934   4.703   9.065
18459WAT     H255620   5.977   4.546   9.057
18460WAT      O55621   1.296   5.015   2.458
18460WAT     H155622   1.285   5.020   2.358
18460WAT     H255623   1.283   5.106   2.497
18461WAT      O55624   3.678   2.236   2.261
18461WAT     H155625   3.745   2.166   2.237
18461WAT     H255626   3.710   2.326   2.231
18462WAT      O55627   9.874   0.348   9.872
18462WAT     H155628   9.839   0.436   9.905
18462WAT     H255629   9.969   0.359   9.843
18463WAT      O55630   9.408   5.621   5.173
18463WAT     H155631   9.463   5.595   5.253
18463WAT     H255632   9.441   5.571   5.093
18464WAT      O55633   8.651   7.132   6.607
18464WAT     H155634   8.705   7.073   6.547
18464WAT     H255635   8.672   7.111   6.703
18465WAT      O55636   1.310  -0.001   3.539
18465WAT     H155637   1.291   0.091   3.575
18465WAT     H255638   1.352  -0.056   3.611
18466WAT      O55639   6.304   4.511   8.598
18466WAT     H155640   6.391   4.541   8.638
18466WAT     H255641   6.318   4.428   8.544
18467WAT      O55642   5.483   3.564   3.632
18467WAT     H155643   5.482   3.468   3.661
18467WAT     H255644   5.447   3.621   3.706
18468WAT      O55645   6.649   0.805   4.837
18468WAT     H155646   6.685   0.831   4.748
18468WAT     H255647   6.552   0.780   4.828
18469WAT      O55648   9.345   7.202   7.659
18469WAT     H155649   9.317   7.125   7.717
18469WAT     H255650   9.273   7.271   7.659
18470WAT      O55651   0.431   9.574   7.058
18470WAT     H155652   0.507   9.509   7.065
18470WAT     H255653   0.353   9.530   7.014
18471WAT      O55654   0.965   9.752   0.178
18471WAT     H155655   0.868   9.767   0.159
18471WAT     H255656   1.012   9.725   0.094
18472WAT      O55657   3.557   1.018   8.063
18472WAT     H155658   3.501   1.042   7.984
18472WAT     H255659   3.513   0.943   8.113
18473WAT      O55660   0.361   8.625   5.799
18473WAT     H155661   0.310   8.668   5.724
18473WAT     H255662   0.449   8.670   5.810
18474WAT      O55663   8.583   0.087   2.947
18474WAT     H155664   8.613   0.008   2.999
18474WAT     H255665   8.524   0.057   2.871
18475WAT      O55666   4.597   0.613   5.435
18475WAT     H155667   4.625   0.517   5.437
18475WAT     H255668   4.672   0.670   5.402
18476WAT      O55669   0.559   5.950   9.614
18476WAT     H155670   0.479   5.917   9.565
18476WAT     H255671   0.580   5.890   9.691
18477WAT      O55672   8.941   2.361   7.048
18477WAT     H155673   8.994   2.375   6.964
18477WAT     H255674   8.959   2.270   7.084
18478WAT      O55675   4.225   2.067   0.675
18478WAT     H155676   4.234   2.153   0.626
18478WAT     H255677   4.139   2.022   0.650
18479WAT      O55678   1.795   6.565   3.499
18479WAT     H155679   1.857   6.494   3.531
18479WAT     H255680   1.743   6.531   3.421
18480WAT      O55681   6.888   5.150   5.478
18480WAT     H155682   6.893   5.060   5.522
18480WAT     H255683   6.795   5.165   5.444
18481WAT      O55684   2.022   8.311   3.143
18481WAT     H155685   1.961   8.236   3.117
18481WAT     H255686   2.110   8.300   3.098
18482WAT      O55687   5.319   1.869   5.773
18482WAT     H155688   5.232   1.917   5.787
18482WAT     H255689   5.310   1.775   5.805
18483WAT      O55690   0.384   6.925   8.741
18483WAT     H155691   0.286   6.944   8.731
18483WAT     H255692   0.429   6.934   8.652
18484WAT      O55693   7.758   6.166   7.039
18484WAT     H155694   7.730   6.132   7.129
18484WAT     H255695   7.804   6.254   7.050
18485WAT      O55696   9.213   4.418   0.985
18485WAT     H155697   9.182   4.459   0.899
18485WAT     H255698   9.139   4.423   1.052
18486WAT      O55699   5.391   9.391   9.174
18486WAT     H155700   5.414   9.318   9.109
18486WAT     H255701   5.356   9.470   9.124
18487WAT      O55702   8.582   6.615   1.559
18487WAT     H155703   8.593   6.518   1.537
18487WAT     H255704   8.570   6.667   1.475
18488WAT      O55705   9.209   8.165   7.659
18488WAT     H155706   9.206   8.214   7.572
18488WAT     H255707   9.149   8.085   7.655
18489WAT      O55708   4.494   1.243   0.015
18489WAT     H155709   4.527   1.285   0.099
18489WAT     H255710   4.556   1.264  -0.060
18490WAT      O55711   9.395   6.471   8.068
18490WAT     H155712   9.464   6.405   8.038
18490WAT     H255713   9.362   6.446   8.159
18491WAT      O55714   4.577   3.515   8.035
18491WAT     H155715   4.630   3.576   8.095
18491WAT     H255716   4.484   3.508   8.070
18492WAT      O55717   0.711   1.216   6.257
18492WAT     H155718   0.757   1.202   6.170
18492WAT     H255719   0.612   1.206   6.245
18493WAT      O55720   6.224   3.915   0.486
18493WAT     H155721   6.270   3.989   0.535
18493WAT     H255722   6.197   3.843   0.551
18494WAT      O55723   1.783   3.455   8.254
18494WAT     H155724   1.861   3.397   8.229
18494WAT     H255725   1.772   3.457   8.353
18495WAT      O55726   2.875   3.139   7.478
18495WAT     H155727   2.789   3.164   7.432
18495WAT     H255728   2.916   3.221   7.518
18496WAT      O55729   6.807   6.352   4.867
18496WAT     H155730   6.851   6.418   4.807
18496WAT     H255731   6.876   6.307   4.923
18497WAT      O55732   2.137   8.486   7.713
18497WAT     H155733   2.071   8.502   7.787
18497WAT     H255734   2.088   8.471   7.627
18498WAT      O55735   4.246   2.924   0.813
18498WAT     H155736   4.175   2.995   0.807
18498WAT     H255737   4.229   2.855   0.743
18499WAT      O55738   1.231   7.264   9.295
18499WAT     H155739   1.180   7.326   9.236
18499WAT     H255740   1.206   7.280   9.391
18500WAT      O55741   7.966   4.562   7.974
18500WAT     H155742   7.894   4.583   7.908
18500WAT     H255743   8.037   4.509   7.929
18501WAT      O55744   8.783   5.104   7.079
18501WAT     H155745   8.688   5.108   7.046
18501WAT     H255746   8.821   5.197   7.083
18502WAT      O55747   1.142   6.412   9.347
18502WAT     H155748   1.101   6.503   9.350
18502WAT     H255749   1.224   6.410   9.404
18503WAT      O55750   0.810   9.511   8.471
18503WAT     H155751   0.830   9.576   8.398
18503WAT     H255752   0.814   9.559   8.559
18504WAT      O55753   7.748   4.027   5.246
18504WAT     H155754   7.715   3.965   5.318
18504WAT     H255755   7.737   3.983   5.157
18505WAT      O55756   8.738   8.362   1.101
18505WAT     H155757   8.673   8.297   1.062
18505WAT     H255758   8.706   8.393   1.190
18506WAT      O55759   0.631   8.137   6.659
18506WAT     H155760   0.571   8.181   6.726
18506WAT     H255761   0.593   8.149   6.567
18507WAT      O55762   4.912   1.554   5.137
18507WAT     H155763   4.872   1.609   5.063
18507WAT     H255764   4.852   1.477   5.158
18508WAT      O55765   8.109   3.096   1.305
18508WAT     H155766   8.059   3.026   1.254
18508WAT     H255767   8.137   3.169   1.243
18509WAT      O55768   6.423   1.781   3.544
18509WAT     H155769   6.456   1.873   3.565
18509WAT     H255770   6.481   1.740   3.475
18510WAT      O55771   4.955   2.189   0.432
18510WAT     H155772   5.006   2.275   0.430
18510WAT     H255773   4.866   2.203   0.388
18511WAT      O55774   7.828   5.135   1.065
18511WAT     H155775   7.907   5.183   1.027
18511WAT     H255776   7.749   5.149   1.005
18512WAT      O55777   3.484   1.457   3.806
18512WAT     H155778   3.449   1.501   3.723
18512WAT     H255779   3.513   1.528   3.871
18513WAT      O55780   8.306   5.964   1.127
18513WAT     H155781   8.393   5.981   1.174
18513WAT     H255782   8.322   5.904   1.048
18514WAT      O55783   2.950   2.889   3.795
18514WAT     H155784   2.959   2.832   3.713
18514WAT     H255785   2.873   2.858   3.849
18515WAT      O55786   3.946   2.225   1.882
18515WAT     H155787   3.985   2.217   1.791
18515WAT     H255788   4.012   2.193   1.950
18516WAT      O55789   5.959   5.768   0.726
18516WAT     H155790   5.909   5.686   0.699
18516WAT     H255791   5.895   5.842   0.745
18517WAT      O55792   1.914   3.589   1.601
18517WAT     H155793   1.914   3.542   1.513
18517WAT     H255794   1.950   3.529   1.671
18518WAT      O55795   2.290   6.395   3.974
18518WAT     H155796   2.379   6.403   4.018
18518WAT     H255797   2.220   6.377   4.043
18519WAT      O55798   5.369   5.249   2.070
18519WAT     H155799   5.340   5.212   2.158
18519WAT     H255800   5.367   5.349   2.074
18520WAT      O55801   2.796   6.593   6.193
18520WAT     H155802   2.800   6.495   6.213
18520WAT     H255803   2.783   6.644   6.278
18521WAT      O55804   6.198   6.982   9.748
18521WAT     H155805   6.293   7.010   9.762
18521WAT     H255806   6.188   6.887   9.777
18522WAT      O55807   8.879   7.729   8.245
18522WAT     H155808   8.921   7.738   8.155
18522WAT     H255809   8.783   7.756   8.240
18523WAT      O55810   4.240   8.911   4.272
18523WAT     H155811   4.261   8.969   4.193
18523WAT     H255812   4.142   8.916   4.293
18524WAT      O55813   8.788   7.437   7.899
18524WAT     H155814   8.814   7.363   7.961
18524WAT     H255815   8.772   7.520   7.951
18525WAT      O55816   1.781   7.630   7.393
18525WAT     H155817   1.839   7.552   7.369
18525WAT     H255818   1.834   7.695   7.448
18526WAT      O55819   2.521   1.655   4.734
18526WAT     H155820   2.615   1.638   4.764
18526WAT     H255821   2.521   1.678   4.637
18527WAT      O55822   5.529   9.614   8.475
18527WAT     H155823   5.492   9.565   8.553
18527WAT     H255824   5.459   9.674   8.437
18528WAT      O55825   4.600   9.172   2.267
18528WAT     H155826   4.677   9.149   2.206
18528WAT     H255827   4.596   9.272   2.279
18529WAT      O55828   1.989   0.390   8.152
18529WAT     H155829   2.025   0.483   8.143
18529WAT     H255830   1.900   0.384   8.108
18530WAT      O55831   2.948   1.915   6.908
18530WAT     H155832   2.967   2.011   6.931
18530WAT     H255833   3.032   1.872   6.874
18531WAT      O55834   7.377   3.506   4.321
18531WAT     H155835   7.291   3.546   4.354
18531WAT     H255836   7.358   3.452   4.239
18532WAT      O55837   3.558   6.627   1.708
18532WAT     H155838   3.607   6.621   1.794
18532WAT     H255839   3.618   6.598   1.633
18533WAT      O55840   7.704   6.799   4.668
18533WAT     H155841   7.614   6.841   4.655
18533WAT     H255842   7.729   6.803   4.764
18534WAT      O55843   1.371   6.115   5.865
18534WAT     H155844   1.369   6.045   5.794
18534WAT     H255845   1.465   6.142   5.884
18535WAT      O55846   6.053   6.283   0.879
18535WAT     H155847   6.009   6.219   0.941
18535WAT     H255848   6.152   6.264   0.876
18536WAT      O55849   1.724   6.787   0.087
18536WAT     H155850   1.762   6.714   0.145
18536WAT     H255851   1.799   6.841   0.048
18537WAT      O55852   9.270   1.683   4.981
18537WAT     H155853   9.315   1.767   4.953
18537WAT     H255854   9.336   1.622   5.025
18538WAT      O55855   3.888   5.020   4.675
18538WAT     H155856   3.860   4.968   4.594
18538WAT     H255857   3.954   5.089   4.649
18539WAT      O55858   5.309   0.382   8.909
18539WAT     H155859   5.386   0.370   8.971
18539WAT     H255860   5.236   0.319   8.933
18540WAT      O55861   0.438   3.434   1.390
18540WAT     H155862   0.430   3.355   1.330
18540WAT     H255863   0.509   3.495   1.355
18541WAT      O55864   4.855   6.473   8.823
18541WAT     H155865   4.823   6.529   8.899
18541WAT     H255866   4.792   6.397   8.809
18542WAT      O55867   2.917   6.048   4.100
18542WAT     H155868   2.832   6.000   4.078
18542WAT     H255869   2.926   6.128   4.042
18543WAT      O55870   0.397   7.645   5.503
18543WAT     H155871   0.480   7.611   5.547
18543WAT     H255872   0.419   7.725   5.447
18544WAT      O55873   5.396   4.476   4.121
18544WAT     H155874   5.494   4.457   4.132
18544WAT     H255875   5.373   4.561   4.169
18545WAT      O55876   6.803   5.841   8.984
18545WAT     H155877   6.831   5.934   8.960
18545WAT     H255878   6.782   5.838   9.082
18546WAT      O55879   0.916   6.583   3.827
18546WAT     H155880   0.980   6.607   3.900
18546WAT     H255881   0.822   6.590   3.860
18547WAT      O55882   6.201   2.897   1.610
18547WAT     H155883   6.286   2.948   1.595
18547WAT     H255884   6.174   2.851   1.525
18548WAT      O55885   9.850   6.277   1.951
18548WAT     H155886   9.934   6.226   1.935
18548WAT     H255887   9.805   6.295   1.863
18549WAT      O55888   8.204   0.756   1.388
18549WAT     H155889   8.271   0.683   1.388
18549WAT     H255890   8.115   0.720   1.361
18550WAT      O55891   3.805   8.646   0.175
18550WAT     H155892   3.805   8.727   0.116
18550WAT     H255893   3.780   8.673   0.268
18551WAT      O55894   5.416   2.823   6.218
18551WAT     H155895   5.494   2.879   6.191
18551WAT     H255896   5.339   2.882   6.240
18552WAT      O55897   1.555   5.551   8.380
18552WAT     H155898   1.549   5.510   8.471
18552WAT     H255899   1.489   5.625   8.373
18553WAT      O55900   0.855   6.709   9.640
18553WAT     H155901   0.758   6.711   9.663
18553WAT     H255902   0.899   6.792   9.673
18554WAT      O55903   2.807   5.472   0.940
18554WAT     H155904   2.753   5.513   1.014
18554WAT     H255905   2.746   5.425   0.877
18555WAT      O55906   0.689   8.929   6.862
18555WAT     H155907   0.696   9.022   6.899
18555WAT     H255908   0.598   8.916   6.822
18556WAT      O55909   9.667   3.825   0.020
18556WAT     H155910   9.670   3.777   0.108
18556WAT     H255911   9.573   3.854   0.001
18557WAT      O55912   4.652   2.914   6.471
18557WAT     H155913   4.718   2.849   6.510
18557WAT     H255914   4.695   3.004   6.463
18558WAT      O55915   9.580   7.334   8.882
18558WAT     H155916   9.646   7.397   8.840
18558WAT     H255917   9.581   7.347   8.981
18559WAT      O55918   7.795   0.623   4.314
18559WAT     H155919   7.772   0.668   4.400
18559WAT     H255920   7.891   0.595   4.314
18560WAT      O55921   3.160   9.611   8.450
18560WAT     H155922   3.106   9.528   8.462
18560WAT     H255923   3.228   9.596   8.378
18561WAT      O55924   1.843   6.787   6.502
18561WAT     H155925   1.858   6.767   6.599
18561WAT     H255926   1.824   6.885   6.491
18562WAT      O55927   2.174   4.720   7.976
18562WAT     H155928   2.154   4.712   8.074
18562WAT     H255929   2.243   4.652   7.950
18563WAT      O55930   7.960   6.212   5.768
18563WAT     H155931   8.039   6.155   5.744
18563WAT     H255932   7.946   6.282   5.698
18564WAT      O55933   7.876   1.712   9.315
18564WAT     H155934   7.785   1.752   9.306
18564WAT     H255935   7.878   1.650   9.394
18565WAT      O55936   7.167   3.335   9.520
18565WAT     H155937   7.068   3.322   9.525
18565WAT     H255938   7.209   3.259   9.471
18566WAT      O55939   9.867   4.488   1.849
18566WAT     H155940   9.838   4.558   1.784
18566WAT     H255941   9.792   4.423   1.864
18567WAT      O55942   9.472   5.483   3.356
18567WAT     H155943   9.443   5.388   3.347
18567WAT     H255944   9.405   5.544   3.313
18568WAT      O55945   2.231   3.317   9.654
18568WAT     H155946   2.186   3.300   9.742
18568WAT     H255947   2.233   3.232   9.601
18569WAT      O55948   5.318   2.377   8.182
18569WAT     H155949   5.327   2.477   8.175
18569WAT     H255950   5.295   2.340   8.092
18570WAT      O55951   5.012   4.067   3.522
18570WAT     H155952   4.926   4.017   3.520
18570WAT     H255953   5.089   4.003   3.529
18571WAT      O55954   2.605   9.041   0.566
18571WAT     H155955   2.701   9.017   0.554
18571WAT     H255956   2.574   9.097   0.490
18572WAT      O55957   2.252   2.389   3.978
18572WAT     H155958   2.322   2.451   4.013
18572WAT     H255959   2.191   2.439   3.917
18573WAT      O55960   5.121   1.666   0.241
18573WAT     H155961   5.033   1.627   0.268
18573WAT     H255962   5.144   1.743   0.300
18574WAT      O55963   3.920   5.206   9.389
18574WAT     H155964   3.903   5.208   9.290
18574WAT     H255965   3.854   5.266   9.435
18575WAT      O55966   4.888   3.963   7.421
18575WAT     H155967   4.983   3.991   7.429
18575WAT     H255968   4.856   3.929   7.509
18576WAT      O55969   2.741   4.923   1.220
18576WAT     H155970   2.670   4.853   1.212
18576WAT     H255971   2.775   4.925   1.314
18577WAT      O55972   8.123   5.137   3.299
18577WAT     H155973   8.040   5.080   3.303
18577WAT     H255974   8.169   5.134   3.387
18578WAT      O55975   1.938   6.997   0.086
18578WAT     H155976   1.990   7.061   0.030
18578WAT     H255977   2.000   6.932   0.130
18579WAT      O55978   1.719   5.193   8.990
18579WAT     H155979   1.769   5.266   8.943
18579WAT     H255980   1.750   5.187   9.085
18580WAT      O55981   1.892   0.954   6.796
18580WAT     H155982   1.806   0.978   6.752
18580WAT     H255983   1.875   0.889   6.870
18581WAT      O55984   7.792   6.559   8.930
18581WAT     H155985   7.710   6.603   8.968
18581WAT     H255986   7.810   6.475   8.981
18582WAT      O55987   5.017   0.503   4.484
18582WAT     H155988   4.987   0.425   4.540
18582WAT     H255989   4.957   0.512   4.405
18583WAT      O55990   1.036   5.623   9.737
18583WAT     H155991   1.078   5.606   9.648
18583WAT     H255992   1.058   5.548   9.799
18584WAT      O55993   3.625   3.167   5.101
18584WAT     H155994   3.685   3.247   5.092
18584WAT     H255995   3.556   3.169   5.029
18585WAT      O55996   8.621   5.521   1.700
18585WAT     H155997   8.714   5.517   1.663
18585WAT     H255998   8.581   5.610   1.679
18586WAT      O55999   4.206   2.956   3.821
18586WAT     H156000   4.249   2.923   3.736
18586WAT     H256001   4.259   3.031   3.858
18587WAT      O56002   5.288   4.803   2.777
18587WAT     H156003   5.346   4.883   2.793
18587WAT     H256004   5.193   4.833   2.765
18588WAT      O56005   3.607   8.125   8.979
18588WAT     H156006   3.601   8.114   9.078
18588WAT     H256007   3.689   8.079   8.945
18589WAT      O56008   4.335   9.207   1.163
18589WAT     H156009   4.296   9.197   1.071
18589WAT     H256010   4.311   9.296   1.200
18590WAT      O56011   1.763   4.540   5.711
18590WAT     H156012   1.806   4.469   5.767
18590WAT     H256013   1.833   4.582   5.653
18591WAT      O56014   5.411   0.285   8.686
18591WAT     H156015   5.381   0.348   8.757
18591WAT     H256016   5.376   0.315   8.597
18592WAT      O56017   6.184   8.363   2.218
18592WAT     H156018   6.225   8.414   2.143
18592WAT     H256019   6.160   8.426   2.292
18593WAT      O56020   8.035   1.906   1.720
18593WAT     H156021   8.104   1.836   1.735
18593WAT     H256022   7.963   1.898   1.789
18594WAT      O56023   9.409   5.707   2.395
18594WAT     H156024   9.321   5.687   2.353
18594WAT     H256025   9.448   5.789   2.353
18595WAT      O56026   1.457   4.533   6.039
18595WAT     H156027   1.478   4.557   5.945
18595WAT     H256028   1.358   4.525   6.050
18596WAT      O56029   0.424   8.522   3.881
18596WAT     H156030   0.482   8.453   3.924
18596WAT     H256031   0.377   8.575   3.952
18597WAT      O56032   7.780   2.441   4.616
18597WAT     H156033   7.842   2.444   4.537
18597WAT     H256034   7.759   2.346   4.640
18598WAT      O56035   6.043   4.911   9.452
18598WAT     H156036   5.983   4.834   9.427
18598WAT     H256037   5.989   4.981   9.498
18599WAT      O56038   7.402   7.469   1.469
18599WAT     H156039   7.376   7.469   1.565
18599WAT     H256040   7.500   7.450   1.461
18600WAT      O56041   9.855   6.743   7.722
18600WAT     H156042   9.764   6.760   7.760
18600WAT     H256043   9.906   6.829   7.720
18601WAT      O56044   5.953   6.032   4.206
18601WAT     H156045   5.974   6.102   4.274
18601WAT     H256046   5.986   6.061   4.116
18602WAT      O56047   6.362   0.648   5.723
18602WAT     H156048   6.411   0.717   5.670
18602WAT     H256049   6.302   0.596   5.662
18603WAT      O56050   9.509   9.180   5.250
18603WAT     H156051   9.603   9.148   5.261
18603WAT     H256052   9.481   9.170   5.154
18604WAT      O56053   6.969   1.616   9.640
18604WAT     H156054   6.941   1.525   9.668
18604WAT     H256055   6.945   1.630   9.544
18605WAT      O56056   2.754   7.098   1.833
18605WAT     H156057   2.732   7.177   1.890
18605WAT     H256058   2.742   7.121   1.737
18606WAT      O56059   9.146   1.779   5.370
18606WAT     H156060   9.068   1.721   5.395
18606WAT     H256061   9.119   1.839   5.295
18607WAT      O56062   3.073   6.343   5.287
18607WAT     H156063   3.022   6.289   5.354
18607WAT     H256064   3.137   6.404   5.334
18608WAT      O56065   0.712   6.201   0.738
18608WAT     H156066   0.733   6.104   0.749
18608WAT     H256067   0.636   6.211   0.673
18609WAT      O56068   3.825   6.340   3.132
18609WAT     H156069   3.857   6.271   3.197
18609WAT     H256070   3.726   6.331   3.121
18610WAT      O56071   9.810   6.355   4.948
18610WAT     H156072   9.772   6.411   5.022
18610WAT     H256073   9.793   6.399   4.860
18611WAT      O56074   9.343   1.244   5.459
18611WAT     H156075   9.247   1.270   5.468
18611WAT     H256076   9.377   1.208   5.546
18612WAT      O56077   3.595   4.175   8.288
18612WAT     H156078   3.626   4.141   8.199
18612WAT     H256079   3.503   4.213   8.279
18613WAT      O56080   1.871   4.971   4.020
18613WAT     H156081   1.967   4.975   4.049
18613WAT     H256082   1.856   4.887   3.967
18614WAT      O56083   7.951   4.671   8.608
18614WAT     H156084   7.968   4.698   8.513
18614WAT     H256085   7.858   4.635   8.616
18615WAT      O56086   7.531   0.290   2.616
18615WAT     H156087   7.569   0.344   2.691
18615WAT     H256088   7.605   0.237   2.574
18616WAT      O56089   9.623   4.629   2.920
18616WAT     H156090   9.618   4.544   2.973
18616WAT     H256091   9.698   4.685   2.955
18617WAT      O56092   6.684   1.592   4.807
18617WAT     H156093   6.628   1.524   4.760
18617WAT     H256094   6.629   1.675   4.824
18618WAT      O56095   5.165   7.609   6.050
18618WAT     H156096   5.154   7.606   6.150
18618WAT     H256097   5.095   7.668   6.011
18619WAT      O56098   7.540   1.341   3.711
18619WAT     H156099   7.579   1.415   3.765
18619WAT     H256100   7.441   1.340   3.721
18620WAT      O56101   6.560   1.783   7.028
18620WAT     H156102   6.530   1.707   6.969
18620WAT     H256103   6.501   1.788   7.108
18621WAT      O56104   5.661   5.999   6.794
18621WAT     H156105   5.700   6.030   6.880
18621WAT     H256106   5.562   6.003   6.798
18622WAT      O56107   7.340   1.407   5.501
18622WAT     H156108   7.342   1.484   5.436
18622WAT     H256109   7.245   1.377   5.513
18623WAT      O56110   7.509   4.543   1.118
18623WAT     H156111   7.582   4.498   1.170
18623WAT     H256112   7.476   4.481   1.047
18624WAT      O56113   4.336   3.056   9.735
18624WAT     H156114   4.428   3.040   9.698
18624WAT     H256115   4.331   3.147   9.776
18625WAT      O56116   3.532   4.495   8.441
18625WAT     H156117   3.580   4.467   8.525
18625WAT     H256118   3.596   4.542   8.380
18626WAT      O56119   3.977   5.982   6.224
18626WAT     H156120   3.953   5.912   6.291
18626WAT     H256121   3.954   6.072   6.261
18627WAT      O56122   4.230   6.124   5.529
18627WAT     H156123   4.302   6.188   5.558
18627WAT     H256124   4.243   6.101   5.433
18628WAT      O56125   8.150   3.883   0.829
18628WAT     H156126   8.186   3.881   0.922
18628WAT     H256127   8.196   3.814   0.774
18629WAT      O56128   5.651   1.504   5.380
18629WAT     H156129   5.667   1.411   5.412
18629WAT     H256130   5.553   1.518   5.365
18630WAT      O56131   1.796   8.190   6.551
18630WAT     H156132   1.818   8.249   6.473
18630WAT     H256133   1.787   8.246   6.633
18631WAT      O56134   0.435   4.341   9.409
18631WAT     H156135   0.378   4.349   9.328
18631WAT     H256136   0.402   4.266   9.466
18632WAT      O56137   9.837   4.600   7.936
18632WAT     H156138   9.922   4.596   7.884
18632WAT     H256139   9.786   4.514   7.924
18633WAT      O56140   2.429   3.296   7.530
18633WAT     H156141   2.416   3.204   7.493
18633WAT     H256142   2.346   3.350   7.515
18634WAT      O56143   7.964   2.695   8.139
18634WAT     H156144   8.030   2.732   8.205
18634WAT     H256145   7.966   2.595   8.142
18635WAT      O56146   4.763   8.304   5.072
18635WAT     H156147   4.830   8.230   5.063
18635WAT     H256148   4.810   8.391   5.085
18636WAT      O56149   9.082   4.398   2.987
18636WAT     H156150   9.003   4.374   3.044
18636WAT     H256151   9.055   4.464   2.917
18637WAT      O56152   3.006   8.168   3.328
18637WAT     H156153   2.989   8.080   3.370
18637WAT     H256154   2.976   8.166   3.232
18638WAT      O56155   7.702   4.466   9.466
18638WAT     H156156   7.719   4.563   9.451
18638WAT     H256157   7.715   4.416   9.380
18639WAT      O56158   8.161   5.144   8.283
18639WAT     H156159   8.170   5.055   8.329
18639WAT     H256160   8.241   5.162   8.227
18640WAT      O56161   1.454   6.041   4.498
18640WAT     H156162   1.370   6.058   4.446
18640WAT     H256163   1.472   5.942   4.500
18641WAT      O56164   4.910   7.170   8.319
18641WAT     H156165   4.867   7.254   8.349
18641WAT     H256166   4.926   7.174   8.220
18642WAT      O56167   3.090   7.300   5.009
18642WAT     H156168   3.015   7.294   4.943
18642WAT     H256169   3.173   7.330   4.961
18643WAT      O56170   8.115   6.675   8.435
18643WAT     H156171   8.045   6.634   8.493
18643WAT     H256172   8.198   6.618   8.436
18644WAT      O56173   4.195   1.470   3.492
18644WAT     H156174   4.122   1.492   3.428
18644WAT     H256175   4.162   1.402   3.558
18645WAT      O56176   8.066   7.774   8.038
18645WAT     H156177   7.989   7.733   8.087
18645WAT     H256178   8.112   7.704   7.983
18646WAT      O56179   2.001   7.997   6.551
18646WAT     H156180   2.081   8.055   6.562
18646WAT     H256181   1.920   8.055   6.538
18647WAT      O56182   4.172   5.607   6.237
18647WAT     H156183   4.121   5.675   6.184
18647WAT     H256184   4.247   5.571   6.182
18648WAT      O56185   0.444   7.433   6.899
18648WAT     H156186   0.347   7.412   6.914
18648WAT     H256187   0.498   7.351   6.918
18649WAT      O56188   1.629   0.252   4.436
18649WAT     H156189   1.530   0.256   4.426
18649WAT     H256190   1.666   0.345   4.436
18650WAT      O56191   4.244   8.244   8.199
18650WAT     H156192   4.317   8.307   8.173
18650WAT     H256193   4.254   8.159   8.148
18651WAT      O56194   0.271   9.361   2.070
18651WAT     H156195   0.323   9.445   2.086
18651WAT     H256196   0.323   9.282   2.102
18652WAT      O56197   7.281   3.646   8.578
18652WAT     H156198   7.290   3.724   8.640
18652WAT     H256199   7.238   3.570   8.627
18653WAT      O56200   2.815   5.306   6.336
18653WAT     H156201   2.728   5.353   6.351
18653WAT     H256202   2.850   5.272   6.423
18654WAT      O56203   1.210   1.221   2.170
18654WAT     H156204   1.112   1.219   2.151
18654WAT     H256205   1.247   1.128   2.164
18655WAT      O56206   1.325   6.632   3.461
18655WAT     H156207   1.369   6.700   3.402
18655WAT     H256208   1.230   6.657   3.476
18656WAT      O56209   9.515   5.292   5.817
18656WAT     H156210   9.548   5.235   5.742
18656WAT     H256211   9.419   5.271   5.835
18657WAT      O56212   7.147   5.206   2.642
18657WAT     H156213   7.192   5.271   2.704
18657WAT     H256214   7.093   5.141   2.695
18658WAT      O56215   6.368   0.844   3.981
18658WAT     H156216   6.310   0.882   3.908
18658WAT     H256217   6.347   0.890   4.067
18659WAT      O56218   3.148   7.474   2.270
18659WAT     H156219   3.154   7.407   2.344
18659WAT     H256220   3.052   7.489   2.246
18660WAT      O56221   2.535   5.990   3.739
18660WAT     H156222   2.438   6.000   3.717
18660WAT     H256223   2.585   6.070   3.705
18661WAT      O56224   6.269   1.169   4.564
18661WAT     H156225   6.269   1.243   4.632
18661WAT     H256226   6.176   1.133   4.554
18662WAT      O56227   9.445   9.117   4.258
18662WAT     H156228   9.463   9.081   4.166
18662WAT     H256229   9.434   9.216   4.252
18663WAT      O56230   5.948   9.249   1.240
18663WAT     H156231   5.928   9.173   1.178
18663WAT     H256232   5.935   9.219   1.335
18664WAT      O56233   4.086   3.236   2.116
18664WAT     H156234   4.170   3.195   2.153
18664WAT     H256235   4.050   3.178   2.044
18665WAT      O56236   0.664   9.148   1.272
18665WAT     H156237   0.726   9.087   1.223
18665WAT     H256238   0.706   9.238   1.280
18666WAT      O56239   0.502   9.561   4.215
18666WAT     H156240   0.405   9.585   4.214
18666WAT     H256241   0.555   9.636   4.176
18667WAT      O56242   2.663   1.089   3.168
18667WAT     H156243   2.755   1.059   3.142
18667WAT     H256244   2.618   1.017   3.220
18668WAT      O56245   0.324   6.530   6.508
18668WAT     H156246   0.411   6.571   6.481
18668WAT     H256247   0.250   6.594   6.489
18669WAT      O56248   7.651   3.843   1.447
18669WAT     H156249   7.636   3.922   1.506
18669WAT     H256250   7.585   3.771   1.470
18670WAT      O56251   4.791   3.247   5.580
18670WAT     H156252   4.711   3.201   5.543
18670WAT     H256253   4.817   3.323   5.520
18671WAT      O56254   2.734   0.201   4.869
18671WAT     H156255   2.815   0.249   4.900
18671WAT     H256256   2.729   0.111   4.913
18672WAT      O56257   9.586   0.354   6.030
18672WAT     H156258   9.491   0.345   6.000
18672WAT     H256259   9.631   0.424   5.976
18673WAT      O56260   4.437   7.128   8.218
18673WAT     H156261   4.412   7.043   8.266
18673WAT     H256262   4.436   7.111   8.119
18674WAT      O56263   9.212   3.815   6.227
18674WAT     H156264   9.255   3.903   6.205
18674WAT     H256265   9.283   3.747   6.246
18675WAT      O56266   3.916   4.505   2.753
18675WAT     H156267   3.963   4.460   2.829
18675WAT     H256268   3.978   4.510   2.674
18676WAT      O56269   7.784   1.763   8.303
18676WAT     H156270   7.693   1.804   8.302
18676WAT     H256271   7.808   1.737   8.397
18677WAT      O56272   7.280   9.243   5.013
18677WAT     H156273   7.372   9.280   5.006
18677WAT     H256274   7.260   9.187   4.933
18678WAT      O56275   6.632   4.955   6.517
18678WAT     H156276   6.674   4.926   6.431
18678WAT     H256277   6.540   4.917   6.523
18679WAT      O56278   2.208   1.209   1.587
18679WAT     H156279   2.167   1.173   1.671
18679WAT     H256280   2.261   1.291   1.608
18680WAT      O56281   6.070   0.385   7.642
18680WAT     H156282   6.099   0.442   7.565
18680WAT     H256283   6.149   0.334   7.677
18681WAT      O56284   8.466   0.943   0.943
18681WAT     H156285   8.443   1.027   0.893
18681WAT     H256286   8.553   0.956   0.991
18682WAT      O56287   7.081   6.899   4.463
18682WAT     H156288   7.136   6.974   4.425
18682WAT     H256289   6.991   6.899   4.420
18683WAT      O56290   5.371   6.660   9.896
18683WAT     H156291   5.330   6.749   9.874
18683WAT     H256292   5.436   6.635   9.825
18684WAT      O56293   5.430   8.345   9.540
18684WAT     H156294   5.428   8.422   9.604
18684WAT     H256295   5.410   8.260   9.588
18685WAT      O56296   8.847   9.704   9.785
18685WAT     H156297   8.794   9.671   9.706
18685WAT     H256298   8.795   9.775   9.832
18686WAT      O56299   6.308   8.519   5.590
18686WAT     H156300   6.333   8.585   5.660
18686WAT     H256301   6.310   8.562   5.500
18687WAT      O56302   1.456   9.770   9.836
18687WAT     H156303   1.411   9.703   9.895
18687WAT     H256304   1.408   9.857   9.841
18688WAT      O56305   2.270   9.136   7.424
18688WAT     H156306   2.327   9.214   7.449
18688WAT     H256307   2.175   9.166   7.415
18689WAT      O56308   3.823   1.434   7.176
18689WAT     H156309   3.916   1.454   7.204
18689WAT     H256310   3.797   1.343   7.209
18690WAT      O56311   4.815   9.062   0.950
18690WAT     H156312   4.905   9.104   0.961
18690WAT     H256313   4.790   9.015   1.035
18691WAT      O56314   3.699   1.549   9.137
18691WAT     H156315   3.625   1.543   9.204
18691WAT     H256316   3.716   1.459   9.098
18692WAT      O56317   8.629   5.703   9.578
18692WAT     H156318   8.674   5.775   9.526
18692WAT     H256319   8.596   5.632   9.515
18693WAT      O56320   5.517   2.289   8.345
18693WAT     H156321   5.459   2.340   8.281
18693WAT     H256322   5.530   2.342   8.429
18694WAT      O56323   3.589   6.582   8.905
18694WAT     H156324   3.642   6.528   8.971
18694WAT     H256325   3.498   6.600   8.942
18695WAT      O56326   2.077   2.272   6.362
18695WAT     H156327   2.000   2.312   6.411
18695WAT     H256328   2.161   2.323   6.382
18696WAT      O56329   0.517   8.235   4.475
18696WAT     H156330   0.588   8.165   4.487
18696WAT     H256331   0.490   8.238   4.379
18697WAT      O56332   8.953   8.574   3.057
18697WAT     H156333   8.895   8.531   2.987
18697WAT     H256334   8.983   8.663   3.024
18698WAT      O56335   6.553   5.792   1.393
18698WAT     H156336   6.479   5.727   1.409
18698WAT     H256337   6.580   5.835   1.479
18699WAT      O56338   8.913   2.487   9.268
18699WAT     H156339   8.891   2.419   9.197
18699WAT     H256340   9.009   2.514   9.260
18700WAT      O56341   4.891   8.192   3.099
18700WAT     H156342   4.793   8.209   3.086
18700WAT     H256343   4.904   8.127   3.174
18701WAT      O56344   2.495   4.056   1.048
18701WAT     H156345   2.565   4.123   1.026
18701WAT     H256346   2.461   4.072   1.140
18702WAT      O56347   3.813   1.903   2.967
18702WAT     H156348   3.844   1.949   3.050
18702WAT     H256349   3.713   1.900   2.966
18703WAT      O56350   4.575   5.143   6.405
18703WAT     H156351   4.623   5.155   6.318
18703WAT     H256352   4.641   5.146   6.480
18704WAT      O56353   9.370   3.873   5.690
18704WAT     H156354   9.365   3.856   5.789
18704WAT     H256355   9.277   3.875   5.653
18705WAT      O56356   9.687   8.193   6.044
18705WAT     H156357   9.683   8.153   5.952
18705WAT     H256358   9.612   8.259   6.055
18706WAT      O56359   9.268   8.258   2.069
18706WAT     H156360   9.292   8.199   2.145
18706WAT     H256361   9.350   8.283   2.018
18707WAT      O56362   6.026   5.614   9.768
18707WAT     H156363   5.928   5.611   9.783
18707WAT     H256364   6.046   5.667   9.686
18708WAT      O56365   4.313   4.753   2.858
18708WAT     H156366   4.339   4.779   2.951
18708WAT     H256367   4.395   4.726   2.807
18709WAT      O56368   0.207   3.234   0.126
18709WAT     H156369   0.202   3.334   0.115
18709WAT     H256370   0.216   3.192   0.036
18710WAT      O56371   3.914   6.505   0.185
18710WAT     H156372   3.868   6.522   0.272
18710WAT     H256373   3.919   6.406   0.169
18711WAT      O56374   0.603   5.965   2.074
18711WAT     H156375   0.593   5.874   2.033
18711WAT     H256376   0.606   6.034   2.002
18712WAT      O56377   7.902   7.731   7.200
18712WAT     H156378   7.946   7.644   7.176
18712WAT     H256379   7.828   7.749   7.135
18713WAT      O56380   7.636   8.636   2.052
18713WAT     H156381   7.710   8.589   2.004
18713WAT     H256382   7.559   8.650   1.989
18714WAT      O56383   6.663   2.789   6.349
18714WAT     H156384   6.733   2.750   6.289
18714WAT     H256385   6.685   2.769   6.444
18715WAT      O56386   2.347   7.800   3.654
18715WAT     H156387   2.426   7.846   3.694
18715WAT     H256388   2.333   7.834   3.561
18716WAT      O56389   6.753   3.870   5.069
18716WAT     H156390   6.698   3.946   5.104
18716WAT     H256391   6.710   3.783   5.094
18717WAT      O56392   2.922   7.592   6.410
18717WAT     H156393   3.012   7.607   6.448
18717WAT     H256394   2.906   7.656   6.335
18718WAT      O56395   1.719   5.120   9.456
18718WAT     H156396   1.790   5.107   9.525
18718WAT     H256397   1.760   5.111   9.365
18719WAT      O56398   9.449   3.490   9.825
18719WAT     H156399   9.521   3.494   9.894
18719WAT     H256400   9.360   3.496   9.869
18720WAT      O56401   6.964   3.591   7.298
18720WAT     H156402   6.879   3.580   7.349
18720WAT     H256403   6.997   3.502   7.269
18721WAT      O56404   3.556   6.323   3.114
18721WAT     H156405   3.500   6.316   3.031
18721WAT     H256406   3.538   6.245   3.174
18722WAT      O56407   3.982   8.228   3.667
18722WAT     H156408   3.883   8.236   3.682
18722WAT     H256409   4.022   8.170   3.737
18723WAT      O56410   4.804   0.312   7.013
18723WAT     H156411   4.715   0.310   6.967
18723WAT     H256412   4.790   0.311   7.112
18724WAT      O56413   0.860   8.711   7.809
18724WAT     H156414   0.931   8.781   7.817
18724WAT     H256415   0.814   8.701   7.897
18725WAT      O56416   2.311   7.651   4.108
18725WAT     H156417   2.396   7.664   4.160
18725WAT     H256418   2.285   7.738   4.065
18726WAT      O56419   1.352   4.482   2.167
18726WAT     H156420   1.410   4.476   2.086
18726WAT     H256421   1.337   4.578   2.190
18727WAT      O56422   4.677   9.415   1.050
18727WAT     H156423   4.770   9.428   1.085
18727WAT     H256424   4.611   9.452   1.116
18728WAT      O56425   8.454   8.610   9.747
18728WAT     H156426   8.475   8.626   9.651
18728WAT     H256427   8.492   8.685   9.802
18729WAT      O56428   3.858   3.847   5.376
18729WAT     H156429   3.921   3.909   5.424
18729WAT     H256430   3.776   3.833   5.433
18730WAT      O56431   9.469   1.800   1.004
18730WAT     H156432   9.466   1.815   1.103
18730WAT     H256433   9.528   1.721   0.984
18731WAT      O56434   4.083   7.117   5.754
18731WAT     H156435   4.047   7.173   5.679
18731WAT     H256436   4.060   7.021   5.736
18732WAT      O56437   7.722   5.768   1.102
18732WAT     H156438   7.815   5.744   1.129
18732WAT     H256439   7.680   5.690   1.055
18733WAT      O56440   5.696   1.886   4.418
18733WAT     H156441   5.603   1.852   4.404
18733WAT     H256442   5.749   1.873   4.334
18734WAT      O56443   6.867   9.301   5.923
18734WAT     H156444   6.784   9.353   5.902
18734WAT     H256445   6.843   9.206   5.940
18735WAT      O56446   5.105   1.464   4.176
18735WAT     H156447   5.144   1.427   4.260
18735WAT     H256448   5.006   1.469   4.185
18736WAT      O56449   9.196   0.271   9.499
18736WAT     H156450   9.128   0.215   9.547
18736WAT     H256451   9.213   0.232   9.408
18737WAT      O56452   8.739   7.108   7.436
18737WAT     H156453   8.770   7.203   7.424
18737WAT     H256454   8.721   7.091   7.533
18738WAT      O56455   1.761   0.872   4.581
18738WAT     H156456   1.730   0.964   4.560
18738WAT     H256457   1.774   0.863   4.680
18739WAT      O56458   5.354   4.289   0.686
18739WAT     H156459   5.278   4.321   0.630
18739WAT     H256460   5.367   4.352   0.763
18740WAT      O56461   1.293   6.450   4.316
18740WAT     H156462   1.223   6.406   4.374
18740WAT     H256463   1.313   6.392   4.238
18741WAT      O56464   2.595   6.674   5.538
18741WAT     H156465   2.604   6.772   5.552
18741WAT     H256466   2.515   6.640   5.589
18742WAT      O56467   7.341   6.733   1.832
18742WAT     H156468   7.290   6.795   1.772
18742WAT     H256469   7.278   6.688   1.895
18743WAT      O56470   4.927   0.515   1.886
18743WAT     H156471   4.852   0.570   1.925
18743WAT     H256472   4.915   0.420   1.912
18744WAT      O56473   5.552   7.067   2.396
18744WAT     H156474   5.556   6.989   2.334
18744WAT     H256475   5.615   7.139   2.365
18745WAT      O56476   3.652   7.900   5.860
18745WAT     H156477   3.686   7.955   5.784
18745WAT     H256478   3.702   7.813   5.864
18746WAT      O56479   6.529   8.960   6.566
18746WAT     H156480   6.584   8.911   6.498
18746WAT     H256481   6.520   8.904   6.648
18747WAT      O56482   6.867   1.388   9.711
18747WAT     H156483   6.821   1.417   9.796
18747WAT     H256484   6.832   1.298   9.683
18748WAT      O56485   0.179   4.781   6.446
18748WAT     H156486   0.166   4.725   6.364
18748WAT     H256487   0.136   4.737   6.524
18749WAT      O56488   9.709   0.511   2.894
18749WAT     H156489   9.784   0.557   2.943
18749WAT     H256490   9.622   0.545   2.929
18750WAT      O56491   6.744   2.428   8.996
18750WAT     H156492   6.758   2.419   9.095
18750WAT     H256493   6.736   2.338   8.955
18751WAT      O56494   9.690   9.328   9.465
18751WAT     H156495   9.627   9.301   9.538
18751WAT     H256496   9.654   9.296   9.377
18752WAT      O56497   3.981   3.199   5.950
18752WAT     H156498   3.991   3.145   6.034
18752WAT     H256499   4.005   3.294   5.968
18753WAT      O56500   3.702   4.745   0.982
18753WAT     H156501   3.684   4.651   1.009
18753WAT     H256502   3.647   4.768   0.901
18754WAT      O56503   5.915   7.398   7.657
18754WAT     H156504   5.999   7.444   7.687
18754WAT     H256505   5.915   7.304   7.689
18755WAT      O56506   4.526   5.066   5.133
18755WAT     H156507   4.567   4.990   5.083
18755WAT     H256508   4.577   5.150   5.113
18756WAT      O56509   3.951   4.177   8.841
18756WAT     H156510   4.049   4.199   8.849
18756WAT     H256511   3.898   4.261   8.848
18757WAT      O56512   4.486   4.538   6.009
18757WAT     H156513   4.468   4.484   6.091
18757WAT     H256514   4.405   4.540   5.950
18758WAT      O56515   3.852   4.481   3.997
18758WAT     H156516   3.762   4.486   3.953
18758WAT     H256517   3.904   4.404   3.960
18759WAT      O56518   6.868   3.968   5.947
18759WAT     H156519   6.822   3.904   5.886
18759WAT     H256520   6.953   3.928   5.980
18760WAT      O56521   7.906   0.031   5.275
18760WAT     H156522   7.834   0.100   5.282
18760WAT     H256523   7.943   0.031   5.183
18761WAT      O56524   6.552   7.886   5.296
18761WAT     H156525   6.558   7.963   5.233
18761WAT     H256526   6.604   7.906   5.379
18762WAT      O56527   5.116   4.955   5.075
18762WAT     H156528   5.071   5.035   5.115
18762WAT     H256529   5.141   4.975   4.980
18763WAT      O56530   7.488   3.360   9.123
18763WAT     H156531   7.519   3.430   9.187
18763WAT     H256532   7.535   3.274   9.143
18764WAT      O56533   9.664   8.376   1.016
18764WAT     H156534   9.579   8.327   1.032
18764WAT     H256535   9.739   8.311   1.007
18765WAT      O56536   1.335   9.637   4.814
18765WAT     H156537   1.404   9.682   4.756
18765WAT     H256538   1.296   9.560   4.764
18766WAT      O56539   5.502   1.708   2.375
18766WAT     H156540   5.550   1.780   2.325
18766WAT     H256541   5.417   1.745   2.413
18767WAT      O56542   2.057   8.629   3.868
18767WAT     H156543   2.063   8.545   3.814
18767WAT     H256544   2.068   8.708   3.808
18768WAT      O56545   9.393   5.475   7.747
18768WAT     H156546   9.424   5.543   7.814
18768WAT     H256547   9.392   5.516   7.656
18769WAT      O56548   8.263   2.834   2.051
18769WAT     H156549   8.337   2.898   2.071
18769WAT     H256550   8.300   2.742   2.045
18770WAT      O56551   7.815   0.449   7.073
18770WAT     H156552   7.771   0.528   7.115
18770WAT     H256553   7.857   0.477   6.986
18771WAT      O56554   2.490   0.856   8.142
18771WAT     H156555   2.582   0.836   8.109
18771WAT     H256556   2.486   0.951   8.174
18772WAT      O56557   7.602   6.452   8.134
18772WAT     H156558   7.509   6.482   8.115
18772WAT     H256559   7.609   6.353   8.121
18773WAT      O56560   3.282   1.294   1.124
18773WAT     H156561   3.252   1.344   1.043
18773WAT     H256562   3.207   1.289   1.190
18774WAT      O56563   8.050   4.396   9.526
18774WAT     H156564   7.988   4.317   9.533
18774WAT     H256565   8.068   4.432   9.618
18775WAT      O56566   6.928   4.272   5.549
18775WAT     H156567   7.018   4.292   5.512
18775WAT     H256568   6.913   4.173   5.550
18776WAT      O56569   8.891   1.237   3.382
18776WAT     H156570   8.929   1.145   3.371
18776WAT     H256571   8.825   1.255   3.309
18777WAT      O56572   9.524   9.759   1.627
18777WAT     H156573   9.612   9.765   1.579
18777WAT     H256574   9.515   9.670   1.670
18778WAT      O56575   5.858   5.244   3.017
18778WAT     H156576   5.905   5.161   2.986
18778WAT     H256577   5.915   5.324   2.997
18779WAT      O56578   2.399   8.833   3.264
18779WAT     H156579   2.408   8.927   3.232
18779WAT     H256580   2.320   8.826   3.325
18780WAT      O56581   4.614   6.391   4.393
18780WAT     H156582   4.653   6.467   4.341
18780WAT     H256583   4.639   6.304   4.351
18781WAT      O56584   2.623   5.315   0.567
18781WAT     H156585   2.589   5.272   0.483
18781WAT     H256586   2.721   5.335   0.556
18782WAT      O56587   5.524   6.639   1.189
18782WAT     H156588   5.487   6.725   1.155
18782WAT     H256589   5.451   6.571   1.194
18783WAT      O56590   2.176   0.453   4.460
18783WAT     H156591   2.152   0.359   4.483
18783WAT     H256592   2.130   0.479   4.375
18784WAT      O56593   0.804   7.723   3.980
18784WAT     H156594   0.808   7.790   3.905
18784WAT     H256595   0.768   7.637   3.945
18785WAT      O56596   1.990   1.562   3.577
18785WAT     H156597   1.933   1.548   3.658
18785WAT     H256598   1.933   1.567   3.495
18786WAT      O56599   5.261   8.811   9.761
18786WAT     H156600   5.190   8.811   9.831
18786WAT     H256601   5.307   8.722   9.759
18787WAT      O56602   9.517   0.649   2.079
18787WAT     H156603   9.525   0.654   2.179
18787WAT     H256604   9.606   0.626   2.040
18788WAT      O56605   1.464   1.204   3.651
18788WAT     H156606   1.554   1.217   3.610
18788WAT     H256607   1.394   1.212   3.581
18789WAT      O56608   5.962   0.725   5.419
18789WAT     H156609   6.027   0.777   5.363
18789WAT     H256610   5.914   0.787   5.480
18790WAT      O56611   9.200   8.784   9.824
18790WAT     H156612   9.167   8.709   9.768
18790WAT     H256613   9.182   8.764   9.921
18791WAT      O56614   1.975   2.638   3.614
18791WAT     H156615   2.037   2.594   3.548
18791WAT     H256616   1.885   2.597   3.607
18792WAT      O56617   5.557   6.315   7.165
18792WAT     H156618   5.535   6.221   7.138
18792WAT     H256619   5.554   6.322   7.265
18793WAT      O56620   2.837   9.357   7.486
18793WAT     H156621   2.884   9.289   7.431
18793WAT     H256622   2.791   9.422   7.426
18794WAT      O56623   5.528   2.513   6.654
18794WAT     H156624   5.624   2.486   6.642
18794WAT     H256625   5.516   2.608   6.625
18795WAT      O56626   7.619   5.868   4.993
18795WAT     H156627   7.704   5.837   5.038
18795WAT     H256628   7.598   5.961   5.023
18796WAT      O56629   3.411   5.530   5.898
18796WAT     H156630   3.312   5.536   5.908
18796WAT     H256631   3.446   5.616   5.859
18797WAT      O56632   1.716   6.238   1.006
18797WAT     H156633   1.703   6.139   1.015
18797WAT     H256634   1.643   6.286   1.054
18798WAT      O56635   6.807   6.307   9.670
18798WAT     H156636   6.723   6.358   9.685
18798WAT     H256637   6.875   6.333   9.739
18799WAT      O56638   5.522   6.373   2.485
18799WAT     H156639   5.428   6.340   2.476
18799WAT     H256640   5.537   6.450   2.422
18800WAT      O56641   7.748   6.174   7.944
18800WAT     H156642   7.698   6.225   7.874
18800WAT     H256643   7.846   6.184   7.928
18801WAT      O56644   5.135   2.640   1.650
18801WAT     H156645   5.044   2.602   1.637
18801WAT     H256646   5.145   2.722   1.593
18802WAT      O56647   7.137   0.753   1.969
18802WAT     H156648   7.184   0.666   1.988
18802WAT     H256649   7.123   0.802   2.055
18803WAT      O56650   3.275   5.074   2.736
18803WAT     H156651   3.238   4.983   2.756
18803WAT     H256652   3.326   5.071   2.650
18804WAT      O56653   4.875   8.502   3.075
18804WAT     H156654   4.904   8.411   3.104
18804WAT     H256655   4.794   8.530   3.127
18805WAT      O56656   0.761   8.235   2.558
18805WAT     H156657   0.847   8.184   2.561
18805WAT     H256658   0.712   8.214   2.473
18806WAT      O56659   9.302   9.344   1.009
18806WAT     H156660   9.261   9.435   1.010
18806WAT     H256661   9.316   9.312   1.102
18807WAT      O56662   1.162   6.325   1.758
18807WAT     H156663   1.248   6.361   1.794
18807WAT     H256664   1.132   6.248   1.814
18808WAT      O56665   5.298   4.630   7.951
18808WAT     H156666   5.331   4.574   7.876
18808WAT     H256667   5.244   4.574   8.014
18809WAT      O56668   7.245   1.612   0.647
18809WAT     H156669   7.306   1.690   0.632
18809WAT     H256670   7.298   1.534   0.680
18810WAT      O56671   3.627   5.801   5.311
18810WAT     H156672   3.612   5.889   5.265
18810WAT     H256673   3.725   5.785   5.319
18811WAT      O56674   8.027   7.472   7.100
18811WAT     H156675   8.043   7.540   7.029
18811WAT     H256676   8.063   7.384   7.071
18812WAT      O56677   0.110   1.686   8.017
18812WAT     H156678   0.014   1.711   8.032
18812WAT     H256679   0.125   1.592   8.049
18813WAT      O56680   6.919   7.773   0.811
18813WAT     H156681   6.990   7.826   0.857
18813WAT     H256682   6.933   7.676   0.828
18814WAT      O56683   4.512   0.700   7.899
18814WAT     H156684   4.557   0.661   7.819
18814WAT     H256685   4.577   0.703   7.975
18815WAT      O56686   3.535   5.868   2.016
18815WAT     H156687   3.547   5.825   1.926
18815WAT     H256688   3.537   5.968   2.005
18816WAT      O56689   2.070   1.086   1.804
18816WAT     H156690   2.153   1.091   1.861
18816WAT     H256691   1.996   1.046   1.858
18817WAT      O56692   8.865   8.870   2.516
18817WAT     H156693   8.766   8.883   2.515
18817WAT     H256694   8.910   8.957   2.538
18818WAT      O56695   3.215   5.523   6.367
18818WAT     H156696   3.204   5.510   6.466
18818WAT     H256697   3.281   5.456   6.332
18819WAT      O56698   9.479   1.615   1.559
18819WAT     H156699   9.572   1.645   1.537
18819WAT     H256700   9.430   1.688   1.606
18820WAT      O56701   6.569   2.541   1.734
18820WAT     H156702   6.521   2.475   1.676
18820WAT     H256703   6.507   2.615   1.759
18821WAT      O56704   5.438   7.608   8.979
18821WAT     H156705   5.451   7.672   8.903
18821WAT     H256706   5.344   7.576   8.980
18822WAT      O56707   7.503   4.025   9.332
18822WAT     H156708   7.573   4.042   9.262
18822WAT     H256709   7.544   4.035   9.423
18823WAT      O56710   5.714   3.667   3.560
18823WAT     H156711   5.625   3.636   3.592
18823WAT     H256712   5.709   3.693   3.463
18824WAT      O56713   5.871   7.216   7.324
18824WAT     H156714   5.927   7.207   7.407
18824WAT     H256715   5.914   7.165   7.249
18825WAT      O56716   1.063   6.458   7.309
18825WAT     H156717   1.156   6.422   7.319
18825WAT     H256718   1.059   6.549   7.350
18826WAT      O56719   6.673   7.764   3.099
18826WAT     H156720   6.694   7.722   3.010
18826WAT     H256721   6.704   7.703   3.172
18827WAT      O56722   9.730   1.123   0.660
18827WAT     H156723   9.825   1.133   0.628
18827WAT     H256724   9.668   1.133   0.583
18828WAT      O56725   8.138   5.476   4.687
18828WAT     H156726   8.173   5.488   4.595
18828WAT     H256727   8.063   5.409   4.686
18829WAT      O56728   5.222   8.632   1.964
18829WAT     H156729   5.189   8.577   2.041
18829WAT     H256730   5.278   8.575   1.904
18830WAT      O56731   3.607   9.575   3.845
18830WAT     H156732   3.607   9.525   3.932
18830WAT     H256733   3.620   9.672   3.863
18831WAT      O56734   4.026   9.538   3.310
18831WAT     H156735   4.036   9.557   3.213
18831WAT     H256736   4.046   9.620   3.363
18832WAT      O56737   2.662   6.859   1.851
18832WAT     H156738   2.687   6.956   1.841
18832WAT     H256739   2.563   6.849   1.847
18833WAT      O56740   6.948   8.623   0.809
18833WAT     H156741   6.895   8.613   0.894
18833WAT     H256742   7.021   8.556   0.807
18834WAT      O56743   6.128   8.151   2.571
18834WAT     H156744   6.106   8.057   2.597
18834WAT     H256745   6.045   8.199   2.545
18835WAT      O56746   6.578   5.968   7.407
18835WAT     H156747   6.506   6.025   7.367
18835WAT     H256748   6.663   6.020   7.409
18836WAT      O56749   8.078   4.621   2.011
18836WAT     H156750   8.001   4.591   2.066
18836WAT     H256751   8.158   4.635   2.070
18837WAT      O56752   3.369   8.159   1.866
18837WAT     H156753   3.295   8.140   1.930
18837WAT     H256754   3.341   8.230   1.802
18838WAT      O56755   5.500   6.625   6.345
18838WAT     H156756   5.450   6.673   6.273
18838WAT     H256757   5.549   6.692   6.401
18839WAT      O56758   7.062   8.752   4.633
18839WAT     H156759   7.070   8.677   4.698
18839WAT     H256760   7.009   8.826   4.674
18840WAT      O56761   4.690   2.328   1.402
18840WAT     H156762   4.606   2.279   1.379
18840WAT     H256763   4.738   2.280   1.475
18841WAT      O56764   3.245   8.748   8.066
18841WAT     H156765   3.225   8.663   8.017
18841WAT     H256766   3.168   8.810   8.057
18842WAT      O56767   1.840   9.037   5.514
18842WAT     H156768   1.897   9.118   5.526
18842WAT     H256769   1.755   9.062   5.466
18843WAT      O56770   0.331   5.479   6.730
18843WAT     H156771   0.352   5.577   6.741
18843WAT     H256772   0.256   5.454   6.790
18844WAT      O56773   6.521   8.854   9.810
18844WAT     H156774   6.437   8.820   9.851
18844WAT     H256775   6.500   8.898   9.722
18845WAT      O56776   8.432   0.191   6.567
18845WAT     H156777   8.474   0.115   6.616
18845WAT     H256778   8.336   0.198   6.593
18846WAT      O56779   3.974   5.997   8.274
18846WAT     H156780   4.022   5.912   8.292
18846WAT     H256781   3.924   6.025   8.356
18847WAT      O56782   8.224   7.260   7.042
18847WAT     H156783   8.215   7.166   7.010
18847WAT     H256784   8.268   7.315   6.970
18848WAT      O56785   3.988   8.984   4.324
18848WAT     H156786   3.907   8.966   4.267
18848WAT     H256787   3.967   9.055   4.391
18849WAT      O56788   3.803   3.944   4.060
18849WAT     H156789   3.831   3.904   4.147
18849WAT     H256790   3.811   4.043   4.065
18850WAT      O56791   3.625   0.773   4.681
18850WAT     H156792   3.547   0.759   4.620
18850WAT     H256793   3.595   0.815   4.766
18851WAT      O56794   7.702   5.291   4.495
18851WAT     H156795   7.684   5.226   4.422
18851WAT     H256796   7.626   5.355   4.503
18852WAT      O56797   1.513   1.611   2.386
18852WAT     H156798   1.608   1.633   2.361
18852WAT     H256799   1.480   1.537   2.327
18853WAT      O56800   6.665   1.934   7.333
18853WAT     H156801   6.680   1.853   7.277
18853WAT     H256802   6.661   1.909   7.429
18854WAT      O56803   6.647   4.990   1.310
18854WAT     H156804   6.623   5.033   1.222
18854WAT     H256805   6.576   5.009   1.377
18855WAT      O56806   3.255   4.142   3.738
18855WAT     H156807   3.168   4.133   3.688
18855WAT     H256808   3.330   4.151   3.673
18856WAT      O56809   7.959   0.441   6.297
18856WAT     H156810   7.930   0.513   6.361
18856WAT     H256811   7.951   0.475   6.203
18857WAT      O56812   3.699   9.785   6.147
18857WAT     H156813   3.717   9.882   6.164
18857WAT     H256814   3.691   9.737   6.234
18858WAT      O56815   6.278   0.886   7.168
18858WAT     H156816   6.353   0.948   7.150
18858WAT     H256817   6.192   0.937   7.172
18859WAT      O56818   3.453   9.168   2.391
18859WAT     H156819   3.370   9.134   2.435
18859WAT     H256820   3.442   9.265   2.368
18860WAT      O56821   5.990   0.850   8.200
18860WAT     H156822   5.914   0.868   8.137
18860WAT     H256823   6.076   0.876   8.157
18861WAT      O56824   1.464   9.659   5.287
18861WAT     H156825   1.441   9.631   5.194
18861WAT     H256826   1.381   9.692   5.333
18862WAT      O56827   4.775   9.514   7.188
18862WAT     H156828   4.871   9.486   7.184
18862WAT     H256829   4.769   9.609   7.217
18863WAT      O56830   7.669   2.911   5.898
18863WAT     H156831   7.663   2.972   5.820
18863WAT     H256832   7.647   2.961   5.982
18864WAT      O56833   6.254   0.594   2.357
18864WAT     H156834   6.350   0.618   2.368
18864WAT     H256835   6.246   0.516   2.294
18865WAT      O56836   0.262   3.555   9.697
18865WAT     H156837   0.278   3.464   9.736
18865WAT     H256838   0.328   3.572   9.624
18866WAT      O56839   9.734   9.658   7.980
18866WAT     H156840   9.679   9.741   7.967
18866WAT     H256841   9.676   9.578   7.974
18867WAT      O56842   3.643   6.400   0.989
18867WAT     H156843   3.615   6.325   1.049
18867WAT     H256844   3.701   6.364   0.916
18868WAT      O56845   4.552   8.106   5.720
18868WAT     H156846   4.538   8.162   5.638
18868WAT     H256847   4.610   8.027   5.697
18869WAT      O56848   9.383   1.043   6.084
18869WAT     H156849   9.308   0.999   6.133
18869WAT     H256850   9.434   1.102   6.147
18870WAT      O56851   6.428   7.628   5.218
18870WAT     H156852   6.482   7.559   5.170
18870WAT     H256853   6.476   7.716   5.216
18871WAT      O56854   6.725   3.507   7.391
18871WAT     H156855   6.686   3.450   7.463
18871WAT     H256856   6.656   3.523   7.320
18872WAT      O56857   3.692   7.227   3.262
18872WAT     H156858   3.734   7.160   3.201
18872WAT     H256859   3.619   7.275   3.214
18873WAT      O56860   6.693   1.916   4.353
18873WAT     H156861   6.728   1.922   4.447
18873WAT     H256862   6.633   1.995   4.335
18874WAT      O56863   0.941   2.919   6.547
18874WAT     H156864   0.923   2.921   6.646
18874WAT     H256865   0.858   2.944   6.498
18875WAT      O56866   6.618   5.004   2.407
18875WAT     H156867   6.634   4.917   2.454
18875WAT     H256868   6.557   5.060   2.462
18876WAT      O56869   5.290   7.114   1.649
18876WAT     H156870   5.390   7.119   1.644
18876WAT     H256871   5.252   7.205   1.663
18877WAT      O56872   5.014   5.021   2.214
18877WAT     H156873   4.995   5.117   2.192
18877WAT     H256874   5.064   4.979   2.139
18878WAT      O56875   5.723   5.087   1.436
18878WAT     H156876   5.686   5.073   1.528
18878WAT     H256877   5.822   5.076   1.438
18879WAT      O56878   1.270   3.027   0.309
18879WAT     H156879   1.228   2.954   0.255
18879WAT     H256880   1.203   3.099   0.326
18880WAT      O56881   2.811   6.004   6.426
18880WAT     H156882   2.756   6.006   6.510
18880WAT     H256883   2.768   5.942   6.360
18881WAT      O56884   2.859   2.913   4.394
18881WAT     H156885   2.946   2.932   4.440
18881WAT     H256886   2.878   2.876   4.303
18882WAT      O56887   3.575   3.095   4.044
18882WAT     H156888   3.520   3.177   4.047
18882WAT     H256889   3.526   3.019   4.087
18883WAT      O56890   8.351   3.396   6.267
18883WAT     H156891   8.396   3.405   6.355
18883WAT     H256892   8.418   3.406   6.193
18884WAT      O56893   6.191   4.874   4.049
18884WAT     H156894   6.274   4.825   4.076
18884WAT     H256895   6.146   4.910   4.130
18885WAT      O56896   7.346   4.351   7.814
18885WAT     H156897   7.379   4.257   7.807
18885WAT     H256898   7.246   4.352   7.814
18886WAT      O56899   4.940   7.604   6.832
18886WAT     H156900   4.984   7.692   6.851
18886WAT     H256901   4.885   7.612   6.749
18887WAT      O56902   7.768   5.179   7.054
18887WAT     H156903   7.817   5.111   6.999
18887WAT     H256904   7.829   5.213   7.126
18888WAT      O56905   1.600   7.914   3.023
18888WAT     H156906   1.601   7.991   2.959
18888WAT     H256907   1.693   7.896   3.056
18889WAT      O56908   8.858   6.238   5.897
18889WAT     H156909   8.904   6.151   5.876
18889WAT     H256910   8.785   6.221   5.963
18890WAT      O56911   8.073   8.425   0.270
18890WAT     H156912   8.118   8.416   0.181
18890WAT     H256913   8.036   8.337   0.298
18891WAT      O56914   2.643   7.981   7.285
18891WAT     H156915   2.593   8.054   7.331
18891WAT     H256916   2.646   7.998   7.186
18892WAT      O56917   7.619   2.339   9.105
18892WAT     H156918   7.716   2.341   9.129
18892WAT     H256919   7.609   2.344   9.006
18893WAT      O56920   1.930   0.539   2.530
18893WAT     H156921   1.865   0.482   2.582
18893WAT     H256922   1.913   0.635   2.550
18894WAT      O56923   8.877   3.953   7.431
18894WAT     H156924   8.892   3.876   7.369
18894WAT     H256925   8.815   4.019   7.388
18895WAT      O56926   5.381   1.580   5.283
18895WAT     H156927   5.380   1.677   5.308
18895WAT     H256928   5.438   1.567   5.202
18896WAT      O56929   7.507   7.134   0.930
18896WAT     H156930   7.493   7.229   0.960
18896WAT     H256931   7.598   7.104   0.957
18897WAT      O56932  -0.004   3.648   5.260
18897WAT     H156933   0.035   3.724   5.312
18897WAT     H256934   0.061   3.618   5.191
18898WAT      O56935   8.530   4.153   2.974
18898WAT     H156936   8.479   4.084   2.922
18898WAT     H256937   8.571   4.219   2.911
18899WAT      O56938   0.561   2.804   4.725
18899WAT     H156939   0.588   2.762   4.812
18899WAT     H256940   0.558   2.903   4.735
18900WAT      O56941   4.525   1.031   4.931
18900WAT     H156942   4.456   0.998   4.867
18900WAT     H256943   4.536   0.964   5.005
18901WAT      O56944   2.586   0.167   2.703
18901WAT     H156945   2.563   0.260   2.675
18901WAT     H256946   2.557   0.152   2.797
18902WAT      O56947   7.909   1.625   4.870
18902WAT     H156948   7.845   1.594   4.940
18902WAT     H256949   7.916   1.725   4.872
18903WAT      O56950   8.597   8.416   4.182
18903WAT     H156951   8.562   8.442   4.092
18903WAT     H256952   8.537   8.455   4.253
18904WAT      O56953   0.143   3.390   0.739
18904WAT     H156954   0.087   3.468   0.767
18904WAT     H256955   0.231   3.423   0.705
18905WAT      O56956   5.860   1.679   9.700
18905WAT     H156957   5.830   1.759   9.751
18905WAT     H256958   5.781   1.634   9.659
18906WAT      O56959   0.278   3.914   8.848
18906WAT     H156960   0.363   3.936   8.800
18906WAT     H256961   0.201   3.958   8.801
18907WAT      O56962   0.879   5.413   8.751
18907WAT     H156963   0.835   5.486   8.804
18907WAT     H256964   0.960   5.381   8.800
18908WAT      O56965   8.979   7.328   3.383
18908WAT     H156966   9.034   7.405   3.417
18908WAT     H256967   9.000   7.313   3.287
18909WAT      O56968   4.675   0.123   7.720
18909WAT     H156969   4.599   0.064   7.693
18909WAT     H256970   4.649   0.177   7.800
18910WAT      O56971   1.375   4.536   7.843
18910WAT     H156972   1.355   4.499   7.933
18910WAT     H256973   1.451   4.601   7.850
18911WAT      O56974   7.834   2.204   4.418
18911WAT     H156975   7.758   2.228   4.357
18911WAT     H256976   7.892   2.285   4.432
18912WAT      O56977   8.686   7.608   2.486
18912WAT     H156978   8.610   7.644   2.540
18912WAT     H256979   8.654   7.535   2.426
18913WAT      O56980   8.895   2.151   1.339
18913WAT     H156981   8.962   2.095   1.389
18913WAT     H256982   8.817   2.170   1.399
18914WAT      O56983   0.606   1.088   7.605
18914WAT     H156984   0.586   1.011   7.665
18914WAT     H256985   0.677   1.062   7.540
18915WAT      O56986   2.216   2.057   9.503
18915WAT     H156987   2.136   2.087   9.451
18915WAT     H256988   2.187   2.015   9.588
18916WAT      O56989   8.594   6.976   0.396
18916WAT     H156990   8.668   6.947   0.336
18916WAT     H256991   8.534   7.040   0.348
18917WAT      O56992   1.667   1.862   2.902
18917WAT     H156993   1.618   1.799   2.962
18917WAT     H256994   1.625   1.862   2.811
18918WAT      O56995   0.582   1.057   5.163
18918WAT     H156996   0.678   1.038   5.184
18918WAT     H256997   0.525   1.024   5.238
18919WAT      O56998   6.986   5.374   8.370
18919WAT     H156999   6.899   5.424   8.370
18919WAT     H257000   7.025   5.375   8.278
18920WAT      O57001   7.174   5.809   8.947
18920WAT     H157002   7.155   5.811   9.045
18920WAT     H257003   7.103   5.756   8.901
18921WAT      O57004   9.809   7.748   2.087
18921WAT     H157005   9.878   7.795   2.032
18921WAT     H257006   9.822   7.649   2.080
18922WAT      O57007   3.979   9.627   8.067
18922WAT     H157008   4.034   9.544   8.071
18922WAT     H257009   3.985   9.676   8.154
18923WAT      O57010   9.852   2.290   9.874
18923WAT     H157011   9.813   2.225   9.940
18923WAT     H257012   9.902   2.361   9.922
18924WAT      O57013   4.078   0.587   3.065
18924WAT     H157014   4.036   0.551   3.149
18924WAT     H257015   4.176   0.571   3.068
18925WAT      O57016   2.777   3.765   1.405
18925WAT     H157017   2.870   3.786   1.376
18925WAT     H257018   2.713   3.831   1.364
18926WAT      O57019   6.611   9.654   7.660
18926WAT     H157020   6.572   9.626   7.572
18926WAT     H257021   6.680   9.588   7.688
18927WAT      O57022   1.448   0.484   3.576
18927WAT     H157023   1.356   0.468   3.612
18927WAT     H257024   1.501   0.537   3.643
18928WAT      O57025   5.030   7.042   9.640
18928WAT     H157026   5.069   7.126   9.601
18928WAT     H257027   4.990   6.987   9.566
18929WAT      O57028   1.670   2.012   1.705
18929WAT     H157029   1.617   1.928   1.691
18929WAT     H257030   1.661   2.041   1.800
18930WAT      O57031   7.122   8.062   8.816
18930WAT     H157032   7.111   8.141   8.756
18930WAT     H257033   7.137   7.980   8.761
18931WAT      O57034   7.671   6.587   5.303
18931WAT     H157035   7.705   6.674   5.268
18931WAT     H257036   7.571   6.585   5.297
18932WAT      O57037   7.031   2.826   8.932
18932WAT     H157038   7.023   2.727   8.922
18932WAT     H257039   6.964   2.871   8.874
18933WAT      O57040   0.960   7.991   9.027
18933WAT     H157041   0.922   7.937   9.102
18933WAT     H257042   0.895   8.063   9.000
18934WAT      O57043   3.279   9.503   5.975
18934WAT     H157044   3.224   9.544   6.048
18934WAT     H257045   3.349   9.568   5.946
18935WAT      O57046   2.669   4.364   8.496
18935WAT     H157047   2.711   4.315   8.573
18935WAT     H257048   2.716   4.339   8.412
18936WAT      O57049   5.443   7.690   9.760
18936WAT     H157050   5.463   7.715   9.855
18936WAT     H257051   5.528   7.682   9.709
18937WAT      O57052   2.260   0.238   0.228
18937WAT     H157053   2.215   0.150   0.211
18937WAT     H257054   2.302   0.270   0.143
18938WAT      O57055   1.824   5.146   6.183
18938WAT     H157056   1.886   5.069   6.164
18938WAT     H257057   1.773   5.127   6.267
18939WAT      O57058   0.397   5.337   8.025
18939WAT     H157059   0.314   5.310   8.073
18939WAT     H257060   0.377   5.351   7.928
18940WAT      O57061   6.796   6.922   8.206
18940WAT     H157062   6.782   7.006   8.152
18940WAT     H257063   6.709   6.892   8.243
18941WAT      O57064   3.230   1.122   4.469
18941WAT     H157065   3.328   1.117   4.488
18941WAT     H257066   3.180   1.067   4.535
18942WAT      O57067   0.235   1.237   0.761
18942WAT     H157068   0.323   1.195   0.741
18942WAT     H257069   0.249   1.334   0.782
18943WAT      O57070   8.531   3.798   7.097
18943WAT     H157071   8.497   3.891   7.082
18943WAT     H257072   8.464   3.732   7.062
18944WAT      O57073   9.305   5.209   7.043
18944WAT     H157074   9.251   5.194   6.960
18944WAT     H257075   9.360   5.291   7.032
18945WAT      O57076   7.016   5.201   3.371
18945WAT     H157077   7.031   5.280   3.430
18945WAT     H257078   7.017   5.231   3.275
18946WAT      O57079   3.855   1.366   9.386
18946WAT     H157080   3.923   1.385   9.315
18946WAT     H257081   3.808   1.280   9.365
18947WAT      O57082   0.070   7.167   1.141
18947WAT     H157083   0.072   7.081   1.192
18947WAT     H257084   0.162   7.190   1.111
18948WAT      O57085   5.881   9.381   6.829
18948WAT     H157086   5.801   9.438   6.844
18948WAT     H257087   5.881   9.306   6.895
18949WAT      O57088   9.842   6.024   8.166
18949WAT     H157089   9.799   6.085   8.233
18949WAT     H257090   9.829   6.060   8.074
18950WAT      O57091   2.462   5.376   4.940
18950WAT     H157092   2.492   5.462   4.981
18950WAT     H257093   2.539   5.333   4.893
18951WAT      O57094   8.893   2.492   8.361
18951WAT     H157095   8.965   2.477   8.293
18951WAT     H257096   8.843   2.575   8.338
18952WAT      O57097   9.342   7.508   7.328
18952WAT     H157098   9.372   7.414   7.344
18952WAT     H257099   9.421   7.569   7.326
18953WAT      O57100   3.818   2.595   0.260
18953WAT     H157101   3.720   2.594   0.243
18953WAT     H257102   3.860   2.517   0.215
18954WAT      O57103   5.956   7.509   8.307
18954WAT     H157104   5.952   7.412   8.333
18954WAT     H257105   5.959   7.516   8.207
18955WAT      O57106   9.054   9.168   5.252
18955WAT     H157107   9.025   9.077   5.280
18955WAT     H257108   9.068   9.170   5.153
18956WAT      O57109   4.657   3.696   1.909
18956WAT     H157110   4.605   3.781   1.912
18956WAT     H257111   4.595   3.618   1.901
18957WAT      O57112   0.197   2.687   1.909
18957WAT     H157113   0.214   2.721   2.001
18957WAT     H257114   0.113   2.632   1.908
18958WAT      O57115   4.610   4.309   8.691
18958WAT     H157116   4.632   4.278   8.784
18958WAT     H257117   4.673   4.382   8.664
18959WAT      O57118   0.544   6.312   7.886
18959WAT     H157119   0.463   6.274   7.841
18959WAT     H257120   0.550   6.410   7.867
18960WAT      O57121   9.330   5.841   2.636
18960WAT     H157122   9.320   5.773   2.709
18960WAT     H257123   9.378   5.800   2.558
18961WAT      O57124   9.778   7.528   1.661
18961WAT     H157125   9.867   7.487   1.685
18961WAT     H257126   9.706   7.485   1.715
18962WAT      O57127   1.923   8.134   9.173
18962WAT     H157128   1.887   8.195   9.243
18962WAT     H257129   2.020   8.151   9.159
18963WAT      O57130   7.496   0.016   0.799
18963WAT     H157131   7.489   0.074   0.718
18963WAT     H257132   7.574   0.045   0.855
18964WAT      O57133   5.025   1.446   4.607
18964WAT     H157134   5.051   1.436   4.703
18964WAT     H257135   4.952   1.381   4.586
18965WAT      O57136   3.044   6.285   6.030
18965WAT     H157137   2.953   6.249   6.050
18965WAT     H257138   3.099   6.284   6.114
18966WAT      O57139   8.992   6.880   5.984
18966WAT     H157140   9.085   6.912   6.003
18966WAT     H257141   8.995   6.793   5.935
18967WAT      O57142   9.339   7.684   7.689
18967WAT     H157143   9.310   7.681   7.785
18967WAT     H257144   9.259   7.671   7.630
18968WAT      O57145   3.419   3.369   2.478
18968WAT     H157146   3.393   3.394   2.571
18968WAT     H257147   3.444   3.272   2.475
18969WAT      O57148   4.826   9.449   8.440
18969WAT     H157149   4.857   9.359   8.470
18969WAT     H257150   4.835   9.514   8.516
18970WAT      O57151   9.330   8.450   4.627
18970WAT     H157152   9.341   8.549   4.624
18970WAT     H257153   9.338   8.413   4.535
18971WAT      O57154   5.590   4.653   3.660
18971WAT     H157155   5.688   4.644   3.679
18971WAT     H257156   5.575   4.722   3.590
18972WAT      O57157   1.705   5.519   2.507
18972WAT     H157158   1.626   5.457   2.505
18972WAT     H257159   1.768   5.491   2.579
18973WAT      O57160   8.439   1.998   2.638
18973WAT     H157161   8.476   2.090   2.651
18973WAT     H257162   8.396   1.992   2.549
18974WAT      O57163   6.054   6.066   1.527
18974WAT     H157164   5.979   6.079   1.592
18974WAT     H257165   6.106   6.150   1.518
18975WAT      O57166   4.675   0.476   3.448
18975WAT     H157167   4.701   0.572   3.432
18975WAT     H257168   4.596   0.453   3.392
18976WAT      O57169   8.724   3.255   8.376
18976WAT     H157170   8.633   3.212   8.375
18976WAT     H257171   8.771   3.235   8.290
18977WAT      O57172   1.585   4.320   6.155
18977WAT     H157173   1.525   4.395   6.127
18977WAT     H257174   1.609   4.330   6.252
18978WAT      O57175   4.961   4.634   1.810
18978WAT     H157176   4.943   4.538   1.789
18978WAT     H257177   5.000   4.678   1.729
18979WAT      O57178   4.756   3.697   5.782
18979WAT     H157179   4.724   3.688   5.688
18979WAT     H257180   4.705   3.769   5.829
18980WAT      O57181   7.213   8.232   4.916
18980WAT     H157182   7.243   8.192   4.830
18980WAT     H257183   7.290   8.236   4.980
18981WAT      O57184   7.560   1.583   4.809
18981WAT     H157185   7.467   1.547   4.801
18981WAT     H257186   7.616   1.549   4.734
18982WAT      O57187   8.090   8.710   7.351
18982WAT     H157188   8.165   8.656   7.390
18982WAT     H257189   8.004   8.683   7.393
18983WAT      O57190   0.319   1.551   0.161
18983WAT     H157191   0.291   1.646   0.176
18983WAT     H257192   0.416   1.548   0.139
18984WAT      O57193   4.089   4.857   2.036
18984WAT     H157194   4.122   4.767   2.006
18984WAT     H257195   4.126   4.928   1.977
18985WAT      O57196   1.842   7.594   1.047
18985WAT     H157197   1.754   7.589   1.000
18985WAT     H257198   1.906   7.649   0.993
18986WAT      O57199   8.829   2.028   3.384
18986WAT     H157200   8.880   2.109   3.353
18986WAT     H257201   8.891   1.966   3.431
18987WAT      O57202   5.672   1.929   2.018
18987WAT     H157203   5.655   1.867   1.941
18987WAT     H257204   5.769   1.955   2.019
18988WAT      O57205   0.031   2.041   6.525
18988WAT     H157206   0.109   1.981   6.543
18988WAT     H257207   0.063   2.134   6.510
18989WAT      O57208   4.793   5.137   0.336
18989WAT     H157209   4.764   5.091   0.253
18989WAT     H257210   4.892   5.152   0.333
18990WAT      O57211   2.835   7.830   2.712
18990WAT     H157212   2.900   7.886   2.661
18990WAT     H257213   2.768   7.791   2.648
18991WAT      O57214   1.388   7.805   8.832
18991WAT     H157215   1.331   7.797   8.914
18991WAT     H257216   1.475   7.849   8.856
18992WAT      O57217   8.931   0.329   4.667
18992WAT     H157218   8.880   0.332   4.753
18992WAT     H257219   8.882   0.272   4.601
18993WAT      O57220   5.501   4.345   7.155
18993WAT     H157221   5.419   4.400   7.165
18993WAT     H257222   5.578   4.404   7.129
18994WAT      O57223   4.859   8.862   5.565
18994WAT     H157224   4.815   8.951   5.549
18994WAT     H257225   4.838   8.831   5.657
18995WAT      O57226   0.282   6.920   5.173
18995WAT     H157227   0.299   6.995   5.236
18995WAT     H257228   0.194   6.877   5.193
18996WAT      O57229   1.480   2.692   4.314
18996WAT     H157230   1.523   2.671   4.402
18996WAT     H257231   1.386   2.722   4.329
18997WAT      O57232   4.892   2.466   3.127
18997WAT     H157233   4.897   2.557   3.087
18997WAT     H257234   4.821   2.463   3.197
18998WAT      O57235   3.193   8.022   9.720
18998WAT     H157236   3.286   7.995   9.743
18998WAT     H257237   3.138   7.941   9.701
18999WAT      O57238   4.699   1.755   5.277
18999WAT     H157239   4.620   1.704   5.243
18999WAT     H257240   4.760   1.693   5.326
19000WAT      O57241   6.305   0.048   0.768
19000WAT     H157242   6.263   0.138   0.765
19000WAT     H257243   6.255  -0.011   0.832
19001WAT      O57244   2.838   4.223   8.642
19001WAT     H157245   2.867   4.254   8.732
19001WAT     H257246   2.812   4.127   8.646
19002WAT      O57247   2.060   7.981   3.530
19002WAT     H157248   1.976   7.929   3.513
19002WAT     H257249   2.137   7.936   3.484
19003WAT      O57250   3.919   8.912   6.523
19003WAT     H157251   3.993   8.972   6.553
19003WAT     H257252   3.908   8.837   6.588
19004WAT      O57253   8.454   4.805   6.062
19004WAT     H157254   8.441   4.878   6.130
19004WAT     H257255   8.418   4.835   5.973
19005WAT      O57256   9.187   0.120   4.252
19005WAT     H157257   9.199   0.151   4.157
19005WAT     H257258   9.133   0.187   4.302
19006WAT      O57259   6.969   6.726   1.190
19006WAT     H157260   6.970   6.672   1.275
19006WAT     H257261   6.992   6.668   1.113
19007WAT      O57262   3.047   8.274   4.669
19007WAT     H157263   2.957   8.307   4.641
19007WAT     H257264   3.118   8.331   4.628
19008WAT      O57265   2.726   4.686   4.487
19008WAT     H157266   2.747   4.760   4.423
19008WAT     H257267   2.682   4.611   4.439
19009WAT      O57268   4.798   7.312   1.229
19009WAT     H157269   4.855   7.233   1.252
19009WAT     H257270   4.840   7.362   1.154
19010WAT      O57271   6.994   0.698   8.062
19010WAT     H157272   6.928   0.657   8.124
19010WAT     H257273   6.948   0.725   7.978
19011WAT      O57274   8.994   6.124   6.256
19011WAT     H157275   8.936   6.043   6.249
19011WAT     H257276   9.086   6.098   6.285
19012WAT      O57277   8.239   2.255   6.181
19012WAT     H157278   8.327   2.228   6.218
19012WAT     H257279   8.173   2.268   6.255
19013WAT      O57280   2.794   0.496   6.640
19013WAT     H157281   2.870   0.562   6.636
19013WAT     H257282   2.715   0.539   6.684
19014WAT      O57283   1.595   3.927   6.960
19014WAT     H157284   1.680   3.951   6.912
19014WAT     H257285   1.519   3.924   6.895
19015WAT      O57286   9.216   2.332   5.809
19015WAT     H157287   9.189   2.283   5.726
19015WAT     H257288   9.135   2.344   5.867
19016WAT      O57289   8.027   2.651   2.549
19016WAT     H157290   7.980   2.624   2.633
19016WAT     H257291   7.962   2.651   2.473
19017WAT      O57292   0.866   6.451   8.994
19017WAT     H157293   0.861   6.365   8.944
19017WAT     H257294   0.927   6.514   8.945
19018WAT      O57295   1.896   0.007   2.613
19018WAT     H157296   1.838  -0.004   2.532
19018WAT     H257297   1.974   0.066   2.591
19019WAT      O57298   2.214   2.206   2.174
19019WAT     H157299   2.290   2.269   2.161
19019WAT     H257300   2.138   2.254   2.219
19020WAT      O57301   6.145   2.901   3.051
19020WAT     H157302   6.062   2.917   2.998
19020WAT     H257303   6.213   2.855   2.993
19021WAT      O57304   2.407   1.556   2.017
19021WAT     H157305   2.471   1.609   2.072
19021WAT     H257306   2.411   1.587   1.922
19022WAT      O57307   9.052   7.586   4.584
19022WAT     H157308   9.103   7.592   4.498
19022WAT     H257309   8.960   7.551   4.566
19023WAT      O57310   4.396   3.948   3.663
19023WAT     H157311   4.480   4.000   3.644
19023WAT     H257312   4.413   3.883   3.737
19024WAT      O57313   9.597   1.437   4.763
19024WAT     H157314   9.679   1.385   4.787
19024WAT     H257315   9.595   1.522   4.815
19025WAT      O57316   2.903   2.807   3.050
19025WAT     H157317   2.927   2.761   3.136
19025WAT     H257318   2.985   2.820   2.995
19026WAT      O57319   1.036   4.488   6.913
19026WAT     H157320   1.059   4.416   6.978
19026WAT     H257321   1.096   4.483   6.834
19027WAT      O57322   3.925   3.277   7.741
19027WAT     H157323   3.842   3.291   7.687
19027WAT     H257324   3.927   3.342   7.817
19028WAT      O57325   7.698   6.158   4.395
19028WAT     H157326   7.642   6.239   4.414
19028WAT     H257327   7.668   6.082   4.452
19029WAT      O57328   8.678   3.259   2.186
19029WAT     H157329   8.761   3.205   2.197
19029WAT     H257330   8.675   3.296   2.093
19030WAT      O57331   3.962   5.297   4.856
19030WAT     H157332   4.029   5.364   4.890
19030WAT     H257333   3.926   5.328   4.768
19031WAT      O57334   8.207   9.151   4.081
19031WAT     H157335   8.263   9.109   4.010
19031WAT     H257336   8.110   9.134   4.062
19032WAT      O57337   9.660   9.485   9.883
19032WAT     H157338   9.584   9.420   9.885
19032WAT     H257339   9.681   9.515   9.976
19033WAT      O57340   3.247   0.849   0.040
19033WAT     H157341   3.151   0.873   0.025
19033WAT     H257342   3.302   0.932   0.039
19034WAT      O57343   2.926   2.451   3.216
19034WAT     H157344   2.943   2.399   3.133
19034WAT     H257345   2.849   2.513   3.202
19035WAT      O57346   5.874   8.199   2.457
19035WAT     H157347   5.833   8.274   2.405
19035WAT     H257348   5.899   8.125   2.394
19036WAT      O57349   4.468   1.561   6.569
19036WAT     H157350   4.547   1.512   6.535
19036WAT     H257351   4.390   1.547   6.507
19037WAT      O57352   3.140   1.743   0.171
19037WAT     H157353   3.087   1.821   0.139
19037WAT     H257354   3.105   1.659   0.129
19038WAT      O57355   3.937   9.768   3.614
19038WAT     H157356   3.941   9.841   3.546
19038WAT     H257357   4.020   9.713   3.611
19039WAT      O57358   3.620   0.828   7.851
19039WAT     H157359   3.698   0.861   7.799
19039WAT     H257360   3.616   0.876   7.939
19040WAT      O57361   2.661   3.696   7.021
19040WAT     H157362   2.619   3.770   6.968
19040WAT     H257363   2.600   3.668   7.094
19041WAT      O57364   8.329   1.892   8.208
19041WAT     H157365   8.269   1.837   8.267
19041WAT     H257366   8.421   1.894   8.247
19042WAT      O57367   4.362   1.616   8.624
19042WAT     H157368   4.418   1.698   8.620
19042WAT     H257369   4.420   1.536   8.608
19043WAT      O57370   8.162   1.101   3.212
19043WAT     H157371   8.144   1.005   3.190
19043WAT     H257372   8.117   1.125   3.298
19044WAT      O57373   6.547   0.138   7.642
19044WAT     H157374   6.617   0.071   7.668
19044WAT     H257375   6.590   0.212   7.590
19045WAT      O57376   9.858   6.067   2.809
19045WAT     H157377   9.950   6.105   2.806
19045WAT     H257378   9.857   5.978   2.762
19046WAT      O57379   1.828   1.183   9.069
19046WAT     H157380   1.737   1.142   9.070
19046WAT     H257381   1.830   1.261   9.131
19047WAT      O57382   7.714   3.011   7.651
19047WAT     H157383   7.751   3.076   7.716
19047WAT     H257384   7.743   2.919   7.675
19048WAT      O57385   2.608   6.898   8.772
19048WAT     H157386   2.594   6.951   8.689
19048WAT     H257387   2.524   6.898   8.827
19049WAT      O57388   2.015   9.809   9.178
19049WAT     H157389   2.096   9.822   9.122
19049WAT     H257390   2.000   9.890   9.235
19050WAT      O57391   0.728   2.972   6.397
19050WAT     H157392   0.747   2.912   6.318
19050WAT     H257393   0.716   3.066   6.365
19051WAT      O57394   0.466   8.845   0.800
19051WAT     H157395   0.418   8.878   0.882
19051WAT     H257396   0.558   8.884   0.797
19052WAT      O57397   0.552   8.541   2.358
19052WAT     H157398   0.510   8.625   2.323
19052WAT     H257399   0.519   8.524   2.451
19053WAT      O57400   2.010   7.091   6.572
19053WAT     H157401   1.963   7.044   6.497
19053WAT     H257402   1.968   7.064   6.659
19054WAT      O57403   0.846   5.665   4.830
19054WAT     H157404   0.922   5.717   4.871
19054WAT     H257405   0.793   5.725   4.770
19055WAT      O57406   0.344   6.424   1.817
19055WAT     H157407   0.409   6.495   1.789
19055WAT     H257408   0.307   6.379   1.736
19056WAT      O57409   8.114   6.312   6.056
19056WAT     H157410   8.048   6.291   5.984
19056WAT     H257411   8.178   6.381   6.023
19057WAT      O57412   3.708   6.475   6.672
19057WAT     H157413   3.744   6.443   6.760
19057WAT     H257414   3.609   6.465   6.671
19058WAT      O57415   2.746   6.409   2.981
19058WAT     H157416   2.763   6.501   2.946
19058WAT     H257417   2.728   6.414   3.079
19059WAT      O57418   2.362   8.875   7.458
19059WAT     H157419   2.331   8.830   7.542
19059WAT     H257420   2.355   8.974   7.469
19060WAT      O57421   1.805   9.243   7.244
19060WAT     H157422   1.706   9.235   7.251
19060WAT     H257423   1.839   9.180   7.174
19061WAT      O57424   2.365   6.900   8.899
19061WAT     H157425   2.336   6.938   8.810
19061WAT     H257426   2.285   6.866   8.948
19062WAT      O57427   0.968   1.046   2.744
19062WAT     H157428   0.890   0.988   2.765
19062WAT     H257429   0.939   1.120   2.683
19063WAT      O57430   3.967   6.602   8.868
19063WAT     H157431   4.035   6.676   8.862
19063WAT     H257432   3.910   6.615   8.949
19064WAT      O57433   3.859   9.073   8.077
19064WAT     H157434   3.821   8.991   8.034
19064WAT     H257435   3.933   9.046   8.140
19065WAT      O57436   2.833   7.396   6.592
19065WAT     H157437   2.851   7.312   6.542
19065WAT     H257438   2.860   7.475   6.536
19066WAT      O57439   1.093   2.402   3.936
19066WAT     H157440   1.142   2.412   4.023
19066WAT     H257441   1.159   2.409   3.861
19067WAT      O57442   9.229   1.448   1.764
19067WAT     H157443   9.265   1.538   1.789
19067WAT     H257444   9.191   1.452   1.672
19068WAT      O57445   9.132   4.804   1.199
19068WAT     H157446   9.206   4.823   1.264
19068WAT     H257447   9.166   4.818   1.105
19069WAT      O57448   8.481   4.978   3.393
19069WAT     H157449   8.418   4.925   3.336
19069WAT     H257450   8.429   5.030   3.461
19070WAT      O57451   3.536   9.703   4.748
19070WAT     H157452   3.588   9.787   4.762
19070WAT     H257453   3.555   9.640   4.823
19071WAT      O57454   2.521   0.367   3.206
19071WAT     H157455   2.447   0.434   3.216
19071WAT     H257456   2.599   0.411   3.162
19072WAT      O57457   6.542   1.858   8.397
19072WAT     H157458   6.552   1.956   8.378
19072WAT     H257459   6.617   1.808   8.353
19073WAT      O57460   0.922   2.013   7.099
19073WAT     H157461   0.892   2.107   7.083
19073WAT     H257462   0.990   2.011   7.172
19074WAT      O57463   9.614   0.684   9.107
19074WAT     H157464   9.610   0.613   9.037
19074WAT     H257465   9.526   0.731   9.113
19075WAT      O57466   9.109   8.144   4.353
19075WAT     H157467   9.140   8.153   4.258
19075WAT     H257468   9.077   8.051   4.370
19076WAT      O57469   2.511   2.444   7.594
19076WAT     H157470   2.505   2.544   7.605
19076WAT     H257471   2.561   2.423   7.510
19077WAT      O57472   5.467   0.792   6.078
19077WAT     H157473   5.401   0.832   6.142
19077WAT     H257474   5.540   0.746   6.128
19078WAT      O57475   3.803   3.367   5.189
19078WAT     H157476   3.795   3.310   5.271
19078WAT     H257477   3.825   3.461   5.216
19079WAT      O57478   5.851   6.228   0.173
19079WAT     H157479   5.908   6.265   0.247
19079WAT     H257480   5.910   6.192   0.101
19080WAT      O57481   1.232   3.783   9.354
19080WAT     H157482   1.134   3.794   9.341
19080WAT     H257483   1.282   3.840   9.288
19081WAT      O57484   1.125   4.954   3.768
19081WAT     H157485   1.142   4.898   3.687
19081WAT     H257486   1.096   5.045   3.741
19082WAT      O57487   6.395   3.274   1.745
19082WAT     H157488   6.347   3.268   1.833
19082WAT     H257489   6.493   3.281   1.763
19083WAT      O57490   2.880   2.346   8.153
19083WAT     H157491   2.902   2.310   8.063
19083WAT     H257492   2.846   2.440   8.144
19084WAT      O57493   8.103   4.608   8.819
19084WAT     H157494   8.182   4.669   8.825
19084WAT     H257495   8.051   4.628   8.736
19085WAT      O57496   9.536   8.785   2.647
19085WAT     H157497   9.488   8.706   2.608
19085WAT     H257498   9.635   8.769   2.645
19086WAT      O57499   0.646   4.048   1.195
19086WAT     H157500   0.576   4.118   1.177
19086WAT     H257501   0.609   3.981   1.259
19087WAT      O57502   5.109   0.226   8.997
19087WAT     H157503   5.062   0.295   9.051
19087WAT     H257504   5.049   0.194   8.924
19088WAT      O57505   2.299   4.192   7.492
19088WAT     H157506   2.295   4.142   7.405
19088WAT     H257507   2.207   4.226   7.515
19089WAT      O57508   0.432   3.380   4.005
19089WAT     H157509   0.504   3.441   4.037
19089WAT     H257510   0.451   3.351   3.911
19090WAT      O57511   6.553   3.322   4.479
19090WAT     H157512   6.456   3.313   4.458
19090WAT     H257513   6.564   3.374   4.564
19091WAT      O57514   7.724   0.680   2.624
19091WAT     H157515   7.790   0.694   2.550
19091WAT     H257516   7.637   0.724   2.599
19092WAT      O57517   5.307   7.890   2.959
19092WAT     H157518   5.323   7.856   3.052
19092WAT     H257519   5.216   7.862   2.929
19093WAT      O57520   7.137   1.892   9.645
19093WAT     H157521   7.211   1.956   9.624
19093WAT     H257522   7.139   1.816   9.580
19094WAT      O57523   4.104   7.083   4.647
19094WAT     H157524   4.100   7.039   4.737
19094WAT     H257525   4.059   7.025   4.580
19095WAT      O57526   0.405   9.111   8.516
19095WAT     H157527   0.431   9.016   8.533
19095WAT     H257528   0.309   9.115   8.487
19096WAT      O57529   3.777   0.077   3.213
19096WAT     H157530   3.736   0.007   3.271
19096WAT     H257531   3.875   0.062   3.207
19097WAT      O57532   7.118   6.942   8.678
19097WAT     H157533   7.042   7.004   8.699
19097WAT     H257534   7.087   6.870   8.617
19098WAT      O57535   9.750   0.348   8.392
19098WAT     H157536   9.700   0.373   8.475
19098WAT     H257537   9.764   0.429   8.335
19099WAT      O57538   0.371   5.299   6.247
19099WAT     H157539   0.350   5.390   6.211
19099WAT     H257540   0.294   5.238   6.228
19100WAT      O57541   1.223   3.318   1.867
19100WAT     H157542   1.305   3.284   1.822
19100WAT     H257543   1.144   3.261   1.842
19101WAT      O57544   3.307   2.664   7.564
19101WAT     H157545   3.240   2.726   7.604
19101WAT     H257546   3.351   2.708   7.486
19102WAT      O57547   0.627   9.769   2.971
19102WAT     H157548   0.699   9.805   3.031
19102WAT     H257549   0.645   9.673   2.950
19103WAT      O57550   9.068   5.252   5.542
19103WAT     H157551   9.002   5.319   5.575
19103WAT     H257552   9.145   5.247   5.607
19104WAT      O57553   7.391   6.598   9.018
19104WAT     H157554   7.312   6.650   8.986
19104WAT     H257555   7.376   6.570   9.113
19105WAT      O57556   8.503   1.486   6.494
19105WAT     H157557   8.551   1.410   6.539
19105WAT     H257558   8.540   1.573   6.528
19106WAT      O57559   6.194   5.249   0.557
19106WAT     H157560   6.199   5.171   0.620
19106WAT     H257561   6.100   5.256   0.521
19107WAT      O57562   2.627   1.985   3.194
19107WAT     H157563   2.610   1.900   3.244
19107WAT     H257564   2.725   2.003   3.190
19108WAT      O57565   6.038   8.365   1.946
19108WAT     H157566   6.017   8.269   1.926
19108WAT     H257567   6.089   8.372   2.032
19109WAT      O57568   8.982   2.745   7.793
19109WAT     H157569   8.956   2.663   7.845
19109WAT     H257570   8.925   2.822   7.821
19110WAT      O57571   7.996   5.893   0.078
19110WAT     H157572   8.001   5.831   0.157
19110WAT     H257573   7.917   5.868   0.022
19111WAT      O57574   2.223   1.284   2.684
19111WAT     H157575   2.156   1.246   2.747
19111WAT     H257576   2.182   1.297   2.594
19112WAT      O57577   7.109   7.589   6.537
19112WAT     H157578   7.127   7.642   6.619
19112WAT     H257579   7.193   7.584   6.482
19113WAT      O57580   8.854   8.232   4.748
19113WAT     H157581   8.842   8.299   4.821
19113WAT     H257582   8.908   8.273   4.674
19114WAT      O57583   2.466   6.599   4.503
19114WAT     H157584   2.538   6.586   4.571
19114WAT     H257585   2.387   6.544   4.528
19115WAT      O57586   0.075   5.101   7.980
19115WAT     H157587   0.012   5.026   7.960
19115WAT     H257588   0.169   5.067   7.980
19116WAT      O57589   6.246   7.791   0.559
19116WAT     H157590   6.323   7.746   0.604
19116WAT     H257591   6.279   7.860   0.496
19117WAT      O57592   9.185   0.896   6.219
19117WAT     H157593   9.177   0.803   6.182
19117WAT     H257594   9.204   0.892   6.317
19118WAT      O57595   4.203   3.197   4.898
19118WAT     H157596   4.298   3.216   4.921
19118WAT     H257597   4.200   3.117   4.837
19119WAT      O57598   6.999   2.287   7.249
19119WAT     H157599   7.071   2.333   7.301
19119WAT     H257600   7.024   2.287   7.152
19120WAT      O57601   2.175   7.184   4.343
19120WAT     H157602   2.155   7.168   4.246
19120WAT     H257603   2.198   7.097   4.386
19121WAT      O57604   4.145   3.768   3.124
19121WAT     H157605   4.165   3.714   3.205
19121WAT     H257606   4.066   3.826   3.141
19122WAT      O57607   6.711   0.519   7.186
19122WAT     H157608   6.631   0.536   7.243
19122WAT     H257609   6.754   0.606   7.161
19123WAT      O57610   8.384   7.735   7.191
19123WAT     H157611   8.364   7.807   7.257
19123WAT     H257612   8.304   7.716   7.135
19124WAT      O57613   8.510   7.922   7.523
19124WAT     H157614   8.562   8.007   7.515
19124WAT     H257615   8.544   7.868   7.600
19125WAT      O57616   3.469   8.004   4.457
19125WAT     H157617   3.557   8.004   4.409
19125WAT     H257618   3.449   7.911   4.490
19126WAT      O57619   1.318   2.185   7.556
19126WAT     H157620   1.413   2.202   7.582
19126WAT     H257621   1.292   2.248   7.483
19127WAT      O57622   3.118   8.803   4.915
19127WAT     H157623   3.132   8.806   5.014
19127WAT     H257624   3.155   8.886   4.874
19128WAT      O57625   1.487   9.329   1.345
19128WAT     H157626   1.420   9.284   1.405
19128WAT     H257627   1.579   9.311   1.379
19129WAT      O57628   5.878   7.811   9.071
19129WAT     H157629   5.872   7.899   9.120
19129WAT     H257630   5.867   7.827   8.973
19130WAT      O57631   2.248   7.379   2.549
19130WAT     H157632   2.289   7.385   2.640
19130WAT     H257633   2.159   7.334   2.555
19131WAT      O57634   9.187   0.280   6.662
19131WAT     H157635   9.244   0.352   6.699
19131WAT     H257636   9.244   0.211   6.617
19132WAT      O57637   5.433   9.389   6.668
19132WAT     H157638   5.406   9.304   6.623
19132WAT     H257639   5.374   9.404   6.748
19133WAT      O57640   7.838   5.779   4.212
19133WAT     H157641   7.863   5.731   4.128
19133WAT     H257642   7.817   5.712   4.283
19134WAT      O57643   4.255   6.489   0.715
19134WAT     H157644   4.288   6.584   0.723
19134WAT     H257645   4.309   6.442   0.645
19135WAT      O57646   0.993   8.394   3.104
19135WAT     H157647   0.947   8.326   3.048
19135WAT     H257648   0.926   8.443   3.160
19136WAT      O57649   3.887   7.520   6.370
19136WAT     H157650   3.856   7.461   6.296
19136WAT     H257651   3.828   7.601   6.377
19137WAT      O57652   6.714   0.188   5.608
19137WAT     H157653   6.679   0.200   5.701
19137WAT     H257654   6.639   0.198   5.543
19138WAT      O57655   9.451   2.145   0.431
19138WAT     H157656   9.426   2.220   0.370
19138WAT     H257657   9.386   2.141   0.507
19139WAT      O57658   0.538   3.435   7.674
19139WAT     H157659   0.474   3.380   7.621
19139WAT     H257660   0.625   3.441   7.625
19140WAT      O57661   2.590   5.356   5.921
19140WAT     H157662   2.634   5.325   5.838
19140WAT     H257663   2.646   5.332   6.000
19141WAT      O57664   7.903   8.048   2.344
19141WAT     H157665   7.856   8.018   2.261
19141WAT     H257666   8.000   8.063   2.324
19142WAT      O57667   6.692   2.981   1.782
19142WAT     H157668   6.754   2.941   1.850
19142WAT     H257669   6.642   3.057   1.824
19143WAT      O57670   1.209   1.248   1.312
19143WAT     H157671   1.167   1.315   1.251
19143WAT     H257672   1.138   1.201   1.365
19144WAT      O57673   7.193   5.048   1.982
19144WAT     H157674   7.288   5.058   1.951
19144WAT     H257675   7.180   5.099   2.067
19145WAT      O57676   4.841   0.284   3.548
19145WAT     H157677   4.811   0.273   3.643
19145WAT     H257678   4.781   0.348   3.501
19146WAT      O57679   6.450   6.177   7.907
19146WAT     H157680   6.361   6.189   7.951
19146WAT     H257681   6.483   6.264   7.872
19147WAT      O57682   4.140   8.567   6.056
19147WAT     H157683   4.112   8.478   6.091
19147WAT     H257684   4.095   8.584   5.968
19148WAT      O57685   8.952   6.245   8.567
19148WAT     H157686   9.042   6.204   8.583
19148WAT     H257687   8.929   6.240   8.470
19149WAT      O57688   8.911   0.441   9.713
19149WAT     H157689   8.948   0.353   9.682
19149WAT     H257690   8.947   0.462   9.804
19150WAT      O57691   3.174   8.216   2.913
19150WAT     H157692   3.255   8.253   2.958
19150WAT     H257693   3.121   8.163   2.979
19151WAT      O57694   0.767   8.687   3.986
19151WAT     H157695   0.717   8.752   3.929
19151WAT     H257696   0.714   8.665   4.067
19152WAT      O57697   9.788   1.711   0.126
19152WAT     H157698   9.849   1.736   0.051
19152WAT     H257699   9.832   1.642   0.184
19153WAT      O57700   4.092   7.682   2.087
19153WAT     H157701   4.035   7.744   2.141
19153WAT     H257702   4.188   7.698   2.107
19154WAT      O57703   5.652   2.336   6.245
19154WAT     H157704   5.734   2.317   6.299
19154WAT     H257705   5.612   2.250   6.213
19155WAT      O57706   9.860   3.176   3.296
19155WAT     H157707   9.904   3.265   3.283
19155WAT     H257708   9.912   3.121   3.361
19156WAT      O57709   4.177   7.413   3.971
19156WAT     H157710   4.167   7.463   3.885
19156WAT     H257711   4.263   7.438   4.014
19157WAT      O57712   9.523   4.047   9.522
19157WAT     H157713   9.433   4.011   9.544
19157WAT     H257714   9.533   4.139   9.559
19158WAT      O57715   8.939   7.044   9.424
19158WAT     H157716   8.863   7.082   9.371
19158WAT     H257717   8.987   6.976   9.369
19159WAT      O57718   8.382   4.193   6.081
19159WAT     H157719   8.286   4.177   6.056
19159WAT     H257720   8.433   4.224   6.001
19160WAT      O57721   2.510   1.993   2.617
19160WAT     H157722   2.579   2.006   2.546
19160WAT     H257723   2.547   1.935   2.689
19161WAT      O57724   7.337   1.690   5.982
19161WAT     H157725   7.349   1.605   6.035
19161WAT     H257726   7.283   1.671   5.901
19162WAT      O57727   9.157   8.200   6.795
19162WAT     H157728   9.206   8.144   6.861
19162WAT     H257729   9.223   8.245   6.734
19163WAT      O57730   1.820   2.779   2.349
19163WAT     H157731   1.904   2.730   2.375
19163WAT     H257732   1.746   2.753   2.411
19164WAT      O57733   6.856   4.239   0.490
19164WAT     H157734   6.770   4.217   0.536
19164WAT     H257735   6.849   4.214   0.393
19165WAT      O57736   0.546   2.347   8.549
19165WAT     H157737   0.484   2.270   8.534
19165WAT     H257738   0.558   2.360   8.648
19166WAT      O57739   5.908   6.045   5.930
19166WAT     H157740   5.993   5.997   5.910
19166WAT     H257741   5.842   5.981   5.970
19167WAT      O57742   4.640   3.329   2.196
19167WAT     H157743   4.578   3.315   2.119
19167WAT     H257744   4.674   3.241   2.229
19168WAT      O57745   3.380   4.982   3.489
19168WAT     H157746   3.358   4.901   3.543
19168WAT     H257747   3.347   4.970   3.396
19169WAT      O57748   5.100   8.325   2.989
19169WAT     H157749   5.041   8.264   3.042
19169WAT     H257750   5.183   8.277   2.964
19170WAT      O57751   1.704   2.193   0.575
19170WAT     H157752   1.628   2.179   0.511
19170WAT     H257753   1.782   2.138   0.546
19171WAT      O57754   7.402   5.144   3.370
19171WAT     H157755   7.402   5.242   3.392
19171WAT     H257756   7.413   5.091   3.454
19172WAT      O57757   1.371   7.871   5.708
19172WAT     H157758   1.403   7.948   5.765
19172WAT     H257759   1.302   7.904   5.644
19173WAT      O57760   4.164   5.473   4.150
19173WAT     H157761   4.258   5.460   4.180
19173WAT     H257762   4.103   5.417   4.205
19174WAT      O57763   1.299   8.293   8.401
19174WAT     H157764   1.389   8.338   8.399
19174WAT     H257765   1.274   8.265   8.309
19175WAT      O57766   0.829   9.144   0.273
19175WAT     H157767   0.753   9.204   0.296
19175WAT     H257768   0.908   9.198   0.246
19176WAT      O57769   0.559   5.506   9.317
19176WAT     H157770   0.602   5.466   9.236
19176WAT     H257771   0.618   5.578   9.353
19177WAT      O57772   1.873   1.190   1.635
19177WAT     H157773   1.940   1.127   1.676
19177WAT     H257774   1.881   1.185   1.535
19178WAT      O57775   9.006   4.145   6.071
19178WAT     H157776   9.041   4.054   6.049
19178WAT     H257777   9.030   4.168   6.166
19179WAT      O57778   0.034   2.038   4.989
19179WAT     H157779   0.099   1.970   5.024
19179WAT     H257780   0.048   2.049   4.891
19180WAT      O57781   1.064   1.463   9.563
19180WAT     H157782   1.041   1.557   9.586
19180WAT     H257783   1.057   1.450   9.464
19181WAT      O57784   7.220   6.595   4.979
19181WAT     H157785   7.242   6.502   5.010
19181WAT     H257786   7.302   6.639   4.944
19182WAT      O57787   8.994   6.214   2.890
19182WAT     H157788   9.060   6.148   2.853
19182WAT     H257789   8.945   6.257   2.814
19183WAT      O57790   1.302   2.955   5.784
19183WAT     H157791   1.315   3.043   5.829
19183WAT     H257792   1.212   2.952   5.741
19184WAT      O57793   9.147   7.318   5.920
19184WAT     H157794   9.076   7.375   5.881
19184WAT     H257795   9.136   7.224   5.889
19185WAT      O57796   3.631   6.278   0.546
19185WAT     H157797   3.636   6.213   0.471
19185WAT     H257798   3.553   6.339   0.533
19186WAT      O57799   9.819   1.883   2.660
19186WAT     H157800   9.776   1.948   2.598
19186WAT     H257801   9.857   1.807   2.608
19187WAT      O57802   6.651   2.105   8.416
19187WAT     H157803   6.677   2.174   8.349
19187WAT     H257804   6.626   2.150   8.502
19188WAT      O57805   9.606   6.573   3.390
19188WAT     H157806   9.675   6.501   3.394
19188WAT     H257807   9.553   6.574   3.475
19189WAT      O57808   5.055   2.497   6.708
19189WAT     H157809   5.087   2.409   6.742
19189WAT     H257810   4.958   2.491   6.685
19190WAT      O57811   9.311   6.360   8.291
19190WAT     H157812   9.330   6.268   8.257
19190WAT     H257813   9.251   6.355   8.371
19191WAT      O57814   0.787   1.674   9.750
19191WAT     H157815   0.806   1.613   9.826
19191WAT     H257816   0.728   1.749   9.781
19192WAT      O57817   9.267   3.271   7.667
19192WAT     H157818   9.229   3.316   7.585
19192WAT     H257819   9.199   3.273   7.740
19193WAT      O57820   8.284   6.061   2.395
19193WAT     H157821   8.184   6.061   2.404
19193WAT     H257822   8.316   6.156   2.390
19194WAT      O57823   6.818   1.387   8.730
19194WAT     H157824   6.734   1.386   8.784
19194WAT     H257825   6.897   1.387   8.791
19195WAT      O57826   5.569   8.509   2.054
19195WAT     H157827   5.544   8.524   1.959
19195WAT     H257828   5.487   8.508   2.110
19196WAT      O57829   8.725   3.939   9.245
19196WAT     H157830   8.651   3.944   9.177
19196WAT     H257831   8.807   3.984   9.208
19197WAT      O57832   2.373   6.114   6.787
19197WAT     H157833   2.306   6.167   6.735
19197WAT     H257834   2.457   6.105   6.733
19198WAT      O57835   1.032   4.568   8.092
19198WAT     H157836   1.117   4.559   8.040
19198WAT     H257837   1.048   4.544   8.187
19199WAT      O57838   0.537   3.418   0.287
19199WAT     H157839   0.450   3.463   0.267
19199WAT     H257840   0.520   3.329   0.330
19200WAT      O57841   6.405   6.248   5.937
19200WAT     H157842   6.351   6.226   6.019
19200WAT     H257843   6.433   6.344   5.940
19201WAT      O57844   1.007   4.686   1.719
19201WAT     H157845   1.009   4.641   1.630
19201WAT     H257846   0.913   4.705   1.745
19202WAT      O57847   8.483   3.456   6.488
19202WAT     H157848   8.539   3.396   6.545
19202WAT     H257849   8.533   3.539   6.466
19203WAT      O57850   8.117   8.237   9.286
19203WAT     H157851   8.018   8.231   9.291
19203WAT     H257852   8.158   8.167   9.344
19204WAT      O57853   9.184   1.164   9.307
19204WAT     H157854   9.242   1.084   9.319
19204WAT     H257855   9.240   1.246   9.307
19205WAT      O57856   4.687   6.412   1.302
19205WAT     H157857   4.776   6.390   1.263
19205WAT     H257858   4.658   6.502   1.269
19206WAT      O57859   8.738   5.950   8.439
19206WAT     H157860   8.801   5.872   8.441
19206WAT     H257861   8.788   6.033   8.413
19207WAT      O57862   8.783   3.388   7.650
19207WAT     H157863   8.729   3.428   7.724
19207WAT     H257864   8.770   3.441   7.567
19208WAT      O57865   7.058   3.966   4.198
19208WAT     H157866   7.050   4.034   4.270
19208WAT     H257867   7.144   3.979   4.149
19209WAT      O57868   6.234   7.991   5.162
19209WAT     H157869   6.253   8.016   5.067
19209WAT     H257870   6.232   8.073   5.219
19210WAT      O57871   5.733   7.968   6.285
19210WAT     H157872   5.766   7.893   6.342
19210WAT     H257873   5.749   7.947   6.189
19211WAT      O57874   9.059   9.540   4.748
19211WAT     H157875   9.051   9.535   4.847
19211WAT     H257876   9.155   9.529   4.722
19212WAT      O57877   0.625   4.337   2.273
19212WAT     H157878   0.534   4.367   2.245
19212WAT     H257879   0.662   4.401   2.340
19213WAT      O57880   7.427   8.551   0.687
19213WAT     H157881   7.411   8.648   0.666
19213WAT     H257882   7.443   8.501   0.602
19214WAT      O57883   9.406   6.251   6.987
19214WAT     H157884   9.422   6.322   6.918
19214WAT     H257885   9.492   6.230   7.034
19215WAT      O57886   8.598   2.423   9.596
19215WAT     H157887   8.546   2.508   9.585
19215WAT     H257888   8.562   2.353   9.535
19216WAT      O57889   7.707   3.389   0.860
19216WAT     H157890   7.721   3.313   0.798
19216WAT     H257891   7.763   3.377   0.942
19217WAT      O57892   7.423   9.198   9.292
19217WAT     H157893   7.412   9.279   9.349
19217WAT     H257894   7.439   9.118   9.350
19218WAT      O57895   2.421   5.131   0.973
19218WAT     H157896   2.346   5.132   0.907
19218WAT     H257897   2.390   5.088   1.058
19219WAT      O57898   7.373   8.800   8.412
19219WAT     H157899   7.340   8.881   8.461
19219WAT     H257900   7.298   8.734   8.403
19220WAT      O57901   7.652   1.239   7.106
19220WAT     H157902   7.592   1.258   7.184
19220WAT     H257903   7.650   1.317   7.043
19221WAT      O57904   9.518   5.880   1.146
19221WAT     H157905   9.524   5.796   1.199
19221WAT     H257906   9.610   5.911   1.121
19222WAT      O57907   6.049   3.381   7.238
19222WAT     H157908   6.009   3.372   7.147
19222WAT     H257909   6.148   3.388   7.230
19223WAT      O57910   7.778   4.009   6.414
19223WAT     H157911   7.766   4.033   6.510
19223WAT     H257912   7.783   3.910   6.404
19224WAT      O57913   4.103   8.891   3.625
19224WAT     H157914   4.030   8.861   3.562
19224WAT     H257915   4.101   8.990   3.633
19225WAT      O57916   5.386   2.484   9.537
19225WAT     H157917   5.418   2.431   9.458
19225WAT     H257918   5.462   2.539   9.572
19226WAT      O57919   8.551   0.339   3.774
19226WAT     H157920   8.465   0.386   3.793
19226WAT     H257921   8.622   0.372   3.836
19227WAT      O57922   7.707   6.702   2.116
19227WAT     H157923   7.794   6.738   2.151
19227WAT     H257924   7.631   6.748   2.163
19228WAT      O57925   9.469   2.038   5.619
19228WAT     H157926   9.483   1.952   5.668
19228WAT     H257927   9.549   2.057   5.562
19229WAT      O57928   3.863   8.817   6.984
19229WAT     H157929   3.843   8.876   6.906
19229WAT     H257930   3.778   8.779   7.021
19230WAT      O57931   4.833   3.929   8.059
19230WAT     H157932   4.862   3.993   8.130
19230WAT     H257933   4.900   3.931   7.984
19231WAT      O57934   3.523   9.124   9.017
19231WAT     H157935   3.558   9.132   9.110
19231WAT     H257936   3.563   9.044   8.972
19232WAT      O57937   4.203   5.606   8.528
19232WAT     H157938   4.203   5.545   8.448
19232WAT     H257939   4.156   5.691   8.505
19233WAT      O57940   7.480   2.796   3.200
19233WAT     H157941   7.403   2.812   3.139
19233WAT     H257942   7.562   2.776   3.147
19234WAT      O57943   5.370   3.371   9.501
19234WAT     H157944   5.363   3.288   9.558
19234WAT     H257945   5.299   3.436   9.529
19235WAT      O57946   3.884   7.124   1.517
19235WAT     H157947   3.802   7.179   1.531
19235WAT     H257948   3.920   7.095   1.606
19236WAT      O57949   7.832   7.358   2.885
19236WAT     H157950   7.782   7.362   2.971
19236WAT     H257951   7.822   7.267   2.845
19237WAT      O57952   4.838   5.702   1.573
19237WAT     H157953   4.857   5.626   1.511
19237WAT     H257954   4.924   5.740   1.606
19238WAT      O57955   1.528   4.278   6.666
19238WAT     H157956   1.626   4.279   6.685
19238WAT     H257957   1.479   4.324   6.739
19239WAT      O57958   2.200   1.958   8.750
19239WAT     H157959   2.233   1.991   8.838
19239WAT     H257960   2.157   1.868   8.761
19240WAT      O57961   1.055   6.162   7.513
19240WAT     H157962   0.966   6.119   7.528
19240WAT     H257963   1.065   6.240   7.575
19241WAT      O57964   0.502   3.466   0.974
19241WAT     H157965   0.427   3.532   0.978
19241WAT     H257966   0.470   3.382   0.929
19242WAT      O57967   8.311   6.312   9.158
19242WAT     H157968   8.255   6.355   9.229
19242WAT     H257969   8.407   6.335   9.174
19243WAT      O57970   8.978   0.083   6.749
19243WAT     H157971   8.898   0.138   6.772
19243WAT     H257972   9.060   0.139   6.757
19244WAT      O57973   2.093   6.630   5.319
19244WAT     H157974   2.161   6.688   5.363
19244WAT     H257975   2.124   6.535   5.320
19245WAT      O57976   9.872   4.587   0.897
19245WAT     H157977   9.955   4.643   0.895
19245WAT     H257978   9.880   4.514   0.829
19246WAT      O57979   7.063   2.336   8.373
19246WAT     H157980   7.124   2.288   8.436
19246WAT     H257981   6.999   2.392   8.425
19247WAT      O57982   4.923   9.498   5.422
19247WAT     H157983   5.005   9.540   5.460
19247WAT     H257984   4.949   9.419   5.366
19248WAT      O57985   4.050   9.819   2.079
19248WAT     H157986   3.990   9.789   2.004
19248WAT     H257987   4.145   9.806   2.052
19249WAT      O57988   1.898   4.315   2.461
19249WAT     H157989   1.956   4.381   2.414
19249WAT     H257990   1.952   4.263   2.527
19250WAT      O57991   8.893   9.257   1.292
19250WAT     H157992   8.897   9.165   1.331
19250WAT     H257993   8.906   9.251   1.193
19251WAT      O57994   5.536   0.493   9.551
19251WAT     H157995   5.475   0.418   9.526
19251WAT     H257996   5.616   0.456   9.598
19252WAT      O57997   5.610   7.331   4.997
19252WAT     H157998   5.550   7.399   5.038
19252WAT     H257999   5.691   7.376   4.959
19253WAT      O58000   0.197   4.166   1.718
19253WAT     H158001   0.102   4.170   1.687
19253WAT     H258002   0.220   4.250   1.767
19254WAT      O58003   2.734   1.828   7.037
19254WAT     H158004   2.765   1.745   7.084
19254WAT     H258005   2.808   1.864   6.981
19255WAT      O58006   5.994   0.435   2.720
19255WAT     H158007   6.082   0.473   2.692
19255WAT     H258008   5.946   0.400   2.640
19256WAT      O58009   8.374   0.371   6.817
19256WAT     H158010   8.416   0.320   6.892
19256WAT     H258011   8.367   0.313   6.736
19257WAT      O58012   5.738   3.650   1.220
19257WAT     H158013   5.755   3.748   1.209
19257WAT     H258014   5.732   3.628   1.317
19258WAT      O58015   4.505   4.018   7.596
19258WAT     H158016   4.497   4.078   7.676
19258WAT     H258017   4.421   3.964   7.586
19259WAT      O58018   9.825   0.307   3.622
19259WAT     H158019   9.859   0.269   3.708
19259WAT     H258020   9.900   0.312   3.556
19260WAT      O58021   6.431   6.089   6.424
19260WAT     H158022   6.495   6.020   6.390
19260WAT     H258023   6.339   6.066   6.395
19261WAT      O58024   6.918   3.561   1.537
19261WAT     H158025   6.919   3.465   1.566
19261WAT     H258026   6.866   3.571   1.453
19262WAT      O58027   1.439   2.530   8.788
19262WAT     H158028   1.463   2.589   8.710
19262WAT     H258029   1.495   2.554   8.867
19263WAT      O58030   1.991   3.428   2.256
19263WAT     H158031   2.086   3.459   2.260
19263WAT     H258032   1.964   3.392   2.345
19264WAT      O58033   9.472   9.023   6.439
19264WAT     H158034   9.456   9.026   6.538
19264WAT     H258035   9.522   9.105   6.411
19265WAT      O58036   3.285   0.994   1.886
19265WAT     H158037   3.324   0.906   1.857
19265WAT     H258038   3.203   0.978   1.940
19266WAT      O58039   4.240   2.853   8.463
19266WAT     H158040   4.143   2.865   8.442
19266WAT     H258041   4.250   2.792   8.541
19267WAT      O58042   2.293   7.528   8.378
19267WAT     H158043   2.217   7.586   8.407
19267WAT     H258044   2.380   7.574   8.398
19268WAT      O58045   8.582   8.446   3.630
19268WAT     H158046   8.510   8.510   3.657
19268WAT     H258047   8.671   8.490   3.638
19269WAT      O58048   7.409   4.115   1.996
19269WAT     H158049   7.404   4.066   1.909
19269WAT     H258050   7.501   4.154   2.007
19270WAT      O58051   1.268   4.695   6.377
19270WAT     H158052   1.250   4.599   6.397
19270WAT     H258053   1.195   4.731   6.318
19271WAT      O58054   4.659   3.378   0.739
19271WAT     H158055   4.569   3.416   0.761
19271WAT     H258056   4.691   3.417   0.653
19272WAT      O58057   6.805   4.757   3.758
19272WAT     H158058   6.849   4.754   3.848
19272WAT     H258059   6.874   4.745   3.687
19273WAT      O58060   2.092   2.669   6.935
19273WAT     H158061   2.177   2.681   6.987
19273WAT     H258062   2.092   2.579   6.891
19274WAT      O58063   6.587   2.262   0.507
19274WAT     H158064   6.548   2.189   0.451
19274WAT     H258065   6.632   2.222   0.587
19275WAT      O58066   7.852   6.012   3.613
19275WAT     H158067   7.870   6.105   3.644
19275WAT     H258068   7.831   5.954   3.691
19276WAT      O58069   2.414   8.722   6.415
19276WAT     H158070   2.328   8.738   6.367
19276WAT     H258071   2.478   8.796   6.395
19277WAT      O58072   0.950   7.454   6.467
19277WAT     H158073   0.887   7.529   6.448
19277WAT     H258074   0.926   7.413   6.556
19278WAT      O58075   5.253   0.323   5.719
19278WAT     H158076   5.183   0.333   5.790
19278WAT     H258077   5.239   0.393   5.649
19279WAT      O58078   8.179   3.596   2.573
19279WAT     H158079   8.209   3.556   2.487
19279WAT     H258080   8.255   3.646   2.615
19280WAT      O58081   6.902   1.182   5.110
19280WAT     H158082   6.907   1.150   5.015
19280WAT     H258083   6.814   1.228   5.125
19281WAT      O58084   7.803   3.038   7.927
19281WAT     H158085   7.881   2.976   7.924
19281WAT     H258086   7.724   2.991   7.964
19282WAT      O58087   5.252   8.424   2.765
19282WAT     H158088   5.268   8.518   2.797
19282WAT     H258089   5.165   8.391   2.802
19283WAT      O58090   8.599   5.089   4.390
19283WAT     H158091   8.640   5.074   4.479
19283WAT     H258092   8.513   5.140   4.400
19284WAT      O58093   3.329   4.319   0.848
19284WAT     H158094   3.259   4.248   0.842
19284WAT     H258095   3.343   4.360   0.758
19285WAT      O58096   2.766   3.798   6.547
19285WAT     H158097   2.831   3.873   6.557
19285WAT     H258098   2.759   3.772   6.451
19286WAT      O58099   4.052   4.017   7.076
19286WAT     H158100   4.037   4.065   6.990
19286WAT     H258101   4.122   3.946   7.063
19287WAT      O58102   0.500   8.045   4.037
19287WAT     H158103   0.503   8.004   3.946
19287WAT     H258104   0.549   7.986   4.101
19288WAT      O58105   4.025   9.105   9.393
19288WAT     H158106   4.052   9.192   9.353
19288WAT     H258107   3.930   9.110   9.423
19289WAT      O58108   6.809   4.099   6.723
19289WAT     H158109   6.745   4.158   6.771
19289WAT     H258110   6.806   4.007   6.763
19290WAT      O58111   3.596   9.536   4.953
19290WAT     H158112   3.597   9.436   4.946
19290WAT     H258113   3.680   9.567   4.999
19291WAT      O58114   1.872   0.539   5.735
19291WAT     H158115   1.843   0.624   5.778
19291WAT     H258116   1.917   0.559   5.648
19292WAT      O58117   1.144   9.221   1.644
19292WAT     H158118   1.139   9.316   1.612
19292WAT     H258119   1.058   9.195   1.687
19293WAT      O58120   3.475   2.623   6.569
19293WAT     H158121   3.523   2.708   6.591
19293WAT     H258122   3.526   2.546   6.606
19294WAT      O58123   8.684   0.058   9.878
19294WAT     H158124   8.697   0.129   9.947
19294WAT     H258125   8.668   0.101   9.789
19295WAT      O58126   0.232   6.362   7.389
19295WAT     H158127   0.260   6.438   7.330
19295WAT     H258128   0.165   6.306   7.341
19296WAT      O58129   0.240   1.375   8.251
19296WAT     H158130   0.157   1.419   8.218
19296WAT     H258131   0.304   1.362   8.175
19297WAT      O58132   6.618   6.807   8.388
19297WAT     H158133   6.554   6.805   8.466
19297WAT     H258134   6.695   6.746   8.407
19298WAT      O58135   6.861   4.224   4.325
19298WAT     H158136   6.874   4.228   4.226
19298WAT     H258137   6.949   4.238   4.371
19299WAT      O58138   8.600   3.510   9.270
19299WAT     H158139   8.654   3.583   9.311
19299WAT     H258140   8.578   3.534   9.176
19300WAT      O58141   0.368   5.950   7.877
19300WAT     H158142   0.321   5.999   7.950
19300WAT     H258143   0.450   5.905   7.914
19301WAT      O58144   9.396   8.151   8.088
19301WAT     H158145   9.324   8.217   8.108
19301WAT     H258146   9.465   8.154   8.160
19302WAT      O58147   2.157   7.264   0.692
19302WAT     H158148   2.082   7.270   0.626
19302WAT     H258149   2.124   7.221   0.776
19303WAT      O58150   7.934   8.775   1.927
19303WAT     H158151   7.922   8.688   1.975
19303WAT     H258152   7.846   8.805   1.890
19304WAT      O58153   9.119   8.918   0.839
19304WAT     H158154   9.068   8.837   0.870
19304WAT     H258155   9.070   9.001   0.867
19305WAT      O58156   8.588   4.182   1.166
19305WAT     H158157   8.636   4.252   1.114
19305WAT     H258158   8.590   4.095   1.116
19306WAT      O58159   6.021   4.795   9.727
19306WAT     H158160   6.040   4.869   9.663
19306WAT     H258161   6.079   4.717   9.705
19307WAT      O58162   1.375   9.213   2.571
19307WAT     H158163   1.414   9.302   2.547
19307WAT     H258164   1.386   9.150   2.495
19308WAT      O58165   2.957   8.485   1.491
19308WAT     H158166   2.983   8.521   1.402
19308WAT     H258167   2.986   8.390   1.499
19309WAT      O58168   5.014   1.379   7.989
19309WAT     H158169   5.054   1.462   8.029
19309WAT     H258170   4.955   1.405   7.913
19310WAT      O58171   4.088   4.210   3.289
19310WAT     H158172   4.148   4.181   3.363
19310WAT     H258173   4.053   4.302   3.308
19311WAT      O58174   4.691   8.955   6.099
19311WAT     H158175   4.610   8.923   6.050
19311WAT     H258176   4.773   8.915   6.056
19312WAT      O58177   3.542   2.807   3.733
19312WAT     H158178   3.545   2.813   3.633
19312WAT     H258179   3.579   2.719   3.762
19313WAT      O58180   6.545   5.462   5.694
19313WAT     H158181   6.487   5.540   5.669
19313WAT     H258182   6.628   5.496   5.738
19314WAT      O58183   8.631   2.233   4.119
19314WAT     H158184   8.687   2.310   4.149
19314WAT     H258185   8.671   2.194   4.036
19315WAT      O58186   1.503   3.885   0.645
19315WAT     H158187   1.579   3.895   0.710
19315WAT     H258188   1.419   3.917   0.688
19316WAT      O58189   6.478   0.713   2.130
19316WAT     H158190   6.484   0.725   2.031
19316WAT     H258191   6.566   0.682   2.165
19317WAT      O58192   9.366   5.297   5.094
19317WAT     H158193   9.371   5.351   5.010
19317WAT     H258194   9.300   5.223   5.081
19318WAT      O58195   8.391   1.190   1.550
19318WAT     H158196   8.358   1.249   1.624
19318WAT     H258197   8.353   1.098   1.562
19319WAT      O58198   9.831   5.030   2.072
19319WAT     H158199   9.922   4.989   2.085
19319WAT     H258200   9.762   4.958   2.077
19320WAT      O58201   6.185   1.097   0.586
19320WAT     H158202   6.218   1.062   0.674
19320WAT     H258203   6.252   1.160   0.547
19321WAT      O58204   1.976   1.105   8.296
19321WAT     H158205   1.951   1.132   8.203
19321WAT     H258206   1.948   1.176   8.360
19322WAT      O58207   6.238   3.085   4.730
19322WAT     H158208   6.322   3.132   4.757
19322WAT     H258209   6.203   3.126   4.646
19323WAT      O58210   1.975   6.071   3.777
19323WAT     H158211   1.878   6.060   3.757
19323WAT     H258212   2.015   5.981   3.797
19324WAT      O58213   4.271   9.293   5.014
19324WAT     H158214   4.178   9.293   4.978
19324WAT     H258215   4.293   9.202   5.051
19325WAT      O58216   5.410   6.366   6.408
19325WAT     H158217   5.450   6.443   6.359
19325WAT     H258218   5.338   6.325   6.352
19326WAT      O58219   9.571   5.914   0.646
19326WAT     H158220   9.556   6.010   0.670
19326WAT     H258221   9.517   5.856   0.707
19327WAT      O58222   4.064   7.504   7.274
19327WAT     H158223   4.060   7.527   7.371
19327WAT     H258224   3.975   7.467   7.245
19328WAT      O58225   4.919   9.833   7.733
19328WAT     H158226   4.872   9.759   7.781
19328WAT     H258227   4.851   9.900   7.701
19329WAT      O58228   4.393   8.305   3.445
19329WAT     H158229   4.346   8.383   3.406
19329WAT     H258230   4.492   8.317   3.436
19330WAT      O58231   5.524   1.011   1.369
19330WAT     H158232   5.469   0.952   1.429
19330WAT     H258233   5.620   1.005   1.395
19331WAT      O58234   2.673   5.405   9.715
19331WAT     H158235   2.721   5.488   9.742
19331WAT     H258236   2.731   5.352   9.652
19332WAT      O58237   5.264   5.717   4.190
19332WAT     H158238   5.183   5.668   4.223
19332WAT     H258239   5.280   5.797   4.248
19333WAT      O58240   4.796   6.515   5.293
19333WAT     H158241   4.738   6.553   5.365
19333WAT     H258242   4.742   6.497   5.211
19334WAT      O58243   3.273   1.352   5.561
19334WAT     H158244   3.186   1.397   5.582
19334WAT     H258245   3.296   1.369   5.465
19335WAT      O58246   8.017   0.355   1.534
19335WAT     H158247   8.084   0.298   1.582
19335WAT     H258248   7.929   0.307   1.531
19336WAT      O58249   3.848   3.455   2.600
19336WAT     H158250   3.912   3.455   2.676
19336WAT     H258251   3.897   3.441   2.514
19337WAT      O58252   0.215   1.071   9.106
19337WAT     H158253   0.177   1.077   9.198
19337WAT     H258254   0.142   1.084   9.039
19338WAT      O58255   6.432   8.397   6.488
19338WAT     H158256   6.483   8.347   6.558
19338WAT     H258257   6.421   8.339   6.407
19339WAT      O58258   5.861   6.672   2.438
19339WAT     H158259   5.916   6.599   2.478
19339WAT     H258260   5.823   6.729   2.510
19340WAT      O58261   7.427   7.765   6.542
19340WAT     H158262   7.333   7.799   6.547
19340WAT     H258263   7.443   7.722   6.453
19341WAT      O58264   2.237   7.782   8.887
19341WAT     H158265   2.255   7.726   8.968
19341WAT     H258266   2.273   7.874   8.901
19342WAT      O58267   9.208   3.323   4.958
19342WAT     H158268   9.289   3.346   4.903
19342WAT     H258269   9.148   3.263   4.906
19343WAT      O58270   0.644   4.931   0.303
19343WAT     H158271   0.592   4.993   0.245
19343WAT     H258272   0.617   4.837   0.283
19344WAT      O58273   0.699   8.976   8.654
19344WAT     H158274   0.663   9.064   8.623
19344WAT     H258275   0.702   8.975   8.754
19345WAT      O58276   1.543   3.395   8.106
19345WAT     H158277   1.628   3.374   8.156
19345WAT     H258278   1.508   3.311   8.065
19346WAT      O58279   8.788   9.129   9.773
19346WAT     H158280   8.766   9.200   9.840
19346WAT     H258281   8.706   9.077   9.752
19347WAT      O58282   2.589   3.425   2.933
19347WAT     H158283   2.505   3.382   2.898
19347WAT     H258284   2.654   3.354   2.958
19348WAT      O58285   5.081   0.946   4.430
19348WAT     H158286   5.092   1.046   4.435
19348WAT     H258287   5.170   0.903   4.418
19349WAT      O58288   8.161   4.216   0.783
19349WAT     H158289   8.062   4.219   0.798
19349WAT     H258290   8.209   4.210   0.871
19350WAT      O58291   0.068   3.575   5.611
19350WAT     H158292   0.111   3.647   5.556
19350WAT     H258293   0.093   3.486   5.573
19351WAT      O58294   5.655   6.043   6.265
19351WAT     H158295   5.654   6.140   6.244
19351WAT     H258296   5.646   6.030   6.364
19352WAT      O58297   1.528   6.612   7.365
19352WAT     H158298   1.607   6.660   7.403
19352WAT     H258299   1.500   6.539   7.427
19353WAT      O58300   8.338   4.128   3.572
19353WAT     H158301   8.369   4.189   3.645
19353WAT     H258302   8.299   4.045   3.612
19354WAT      O58303   0.222   4.960   2.604
19354WAT     H158304   0.175   5.046   2.623
19354WAT     H258305   0.207   4.934   2.509
19355WAT      O58306   1.778   0.225   2.222
19355WAT     H158307   1.854   0.271   2.269
19355WAT     H258308   1.752   0.278   2.141
19356WAT      O58309   8.708   8.464   8.896
19356WAT     H158310   8.759   8.467   8.810
19356WAT     H258311   8.716   8.373   8.937
19357WAT      O58312   0.866   2.371   3.263
19357WAT     H158313   0.818   2.459   3.265
19357WAT     H258314   0.932   2.371   3.188
19358WAT      O58315   4.153   9.061   7.384
19358WAT     H158316   4.063   9.022   7.365
19358WAT     H258317   4.211   8.992   7.427
19359WAT      O58318   7.849   3.081   6.695
19359WAT     H158319   7.929   3.022   6.687
19359WAT     H258320   7.873   3.175   6.668
19360WAT      O58321   0.535   9.476   9.439
19360WAT     H158322   0.493   9.390   9.468
19360WAT     H258323   0.616   9.495   9.495
19361WAT      O58324   8.831   2.442   7.293
19361WAT     H158325   8.735   2.413   7.295
19361WAT     H258326   8.870   2.422   7.203
19362WAT      O58327   0.994   0.269   6.650
19362WAT     H158328   1.075   0.261   6.591
19362WAT     H258329   1.007   0.211   6.730
19363WAT      O58330   9.186   6.870   8.970
19363WAT     H158331   9.261   6.828   8.920
19363WAT     H258332   9.144   6.801   9.030
19364WAT      O58333   8.766   6.160   1.846
19364WAT     H158334   8.709   6.078   1.846
19364WAT     H258335   8.786   6.186   1.941
19365WAT      O58336   2.604   0.871   6.661
19365WAT     H158337   2.593   0.963   6.699
19365WAT     H258338   2.560   0.866   6.572
19366WAT      O58339   5.823   6.184   5.236
19366WAT     H158340   5.868   6.236   5.309
19366WAT     H258341   5.759   6.244   5.188
19367WAT      O58342   0.165   7.875   1.236
19367WAT     H158343   0.239   7.808   1.242
19367WAT     H258344   0.188   7.955   1.291
19368WAT      O58345   6.874   6.260   1.286
19368WAT     H158346   6.842   6.231   1.196
19368WAT     H258347   6.965   6.301   1.278
19369WAT      O58348   3.499   2.672   6.871
19369WAT     H158349   3.471   2.616   6.949
19369WAT     H258350   3.514   2.766   6.901
19370WAT      O58351   6.907   2.359   5.368
19370WAT     H158352   6.881   2.318   5.455
19370WAT     H258353   6.826   2.395   5.322
19371WAT      O58354   3.471   0.424   1.334
19371WAT     H158355   3.417   0.508   1.328
19371WAT     H258356   3.444   0.371   1.414
19372WAT      O58357   5.952   5.252   8.077
19372WAT     H158358   5.984   5.345   8.094
19372WAT     H258359   5.852   5.249   8.086
19373WAT      O58360   4.127   0.260   0.479
19373WAT     H158361   4.110   0.226   0.572
19373WAT     H258362   4.198   0.204   0.436
19374WAT      O58363   7.997   2.252   8.390
19374WAT     H158364   7.940   2.224   8.468
19374WAT     H258365   8.028   2.171   8.341
19375WAT      O58366   3.892   8.438   7.030
19375WAT     H158367   3.835   8.369   6.986
19375WAT     H258368   3.878   8.435   7.129
19376WAT      O58369   8.179   9.589   3.704
19376WAT     H158370   8.096   9.589   3.759
19376WAT     H258371   8.177   9.512   3.640
19377WAT      O58372   0.201   1.269   5.631
19377WAT     H158373   0.170   1.363   5.617
19377WAT     H258374   0.126   1.215   5.671
19378WAT      O58375   4.596   6.096   0.059
19378WAT     H158376   4.542   6.086   0.143
19378WAT     H258377   4.566   6.177   0.009
19379WAT      O58378   6.020   3.632   6.118
19379WAT     H158379   5.939   3.691   6.117
19379WAT     H258380   6.102   3.689   6.110
19380WAT      O58381   5.607   9.532   5.359
19380WAT     H158382   5.626   9.492   5.270
19380WAT     H258383   5.546   9.472   5.411
19381WAT      O58384   5.400   6.396   0.328
19381WAT     H158385   5.420   6.358   0.238
19381WAT     H258386   5.302   6.388   0.346
19382WAT      O58387   3.987   0.479   2.127
19382WAT     H158388   4.051   0.454   2.054
19382WAT     H258389   3.915   0.536   2.089
19383WAT      O58390   3.925   2.341   8.391
19383WAT     H158391   3.886   2.295   8.470
19383WAT     H258392   3.913   2.283   8.310
19384WAT      O58393   4.297   6.267   7.481
19384WAT     H158394   4.345   6.203   7.421
19384WAT     H258395   4.334   6.359   7.467
19385WAT      O58396   5.316   7.004   4.159
19385WAT     H158397   5.284   7.093   4.191
19385WAT     H258398   5.359   7.015   4.069
19386WAT      O58399   0.249   5.901   7.626
19386WAT     H158400   0.198   5.818   7.649
19386WAT     H258401   0.294   5.937   7.707
19387WAT      O58402   3.838   5.583   2.506
19387WAT     H158403   3.870   5.674   2.480
19387WAT     H258404   3.893   5.550   2.584
19388WAT      O58405   7.948   8.222   3.991
19388WAT     H158406   7.977   8.287   3.921
19388WAT     H258407   7.957   8.263   4.081
19389WAT      O58408   6.716   0.642   9.619
19389WAT     H158409   6.623   0.629   9.652
19389WAT     H258410   6.727   0.592   9.532
19390WAT      O58411   0.912   6.129   1.763
19390WAT     H158412   0.902   6.152   1.860
19390WAT     H258413   0.896   6.211   1.708
19391WAT      O58414   9.091   9.808   9.778
19391WAT     H158415   9.100   9.853   9.867
19391WAT     H258416   8.998   9.770   9.770
19392WAT      O58417   4.046   3.042   4.214
19392WAT     H158418   4.077   3.087   4.297
19392WAT     H258419   3.985   2.967   4.238
19393WAT      O58420   6.705   0.637   0.457
19393WAT     H158421   6.667   0.569   0.520
19393WAT     H258422   6.798   0.661   0.486
19394WAT      O58423   5.248   1.244   4.639
19394WAT     H158424   5.193   1.307   4.694
19394WAT     H258425   5.253   1.155   4.684
19395WAT      O58426   2.064   6.780   1.769
19395WAT     H158427   2.077   6.733   1.682
19395WAT     H258428   1.975   6.826   1.769
19396WAT      O58429   5.308   7.187   6.917
19396WAT     H158430   5.323   7.095   6.882
19396WAT     H258431   5.211   7.211   6.909
19397WAT      O58432   2.809   4.364   4.864
19397WAT     H158433   2.867   4.302   4.810
19397WAT     H258434   2.855   4.386   4.950
19398WAT      O58435   1.585   8.400   8.349
19398WAT     H158436   1.598   8.390   8.250
19398WAT     H258437   1.661   8.357   8.397
19399WAT      O58438   8.841   6.330   3.573
19399WAT     H158439   8.760   6.364   3.621
19399WAT     H258440   8.852   6.379   3.487
19400WAT      O58441   8.378   6.961   4.302
19400WAT     H158442   8.336   7.012   4.377
19400WAT     H258443   8.387   7.020   4.222
19401WAT      O58444   3.294   8.286   9.401
19401WAT     H158445   3.372   8.234   9.436
19401WAT     H258446   3.316   8.383   9.402
19402WAT      O58447   3.832   7.902   7.548
19402WAT     H158448   3.862   7.851   7.629
19402WAT     H258449   3.901   7.893   7.476
19403WAT      O58450   2.248   3.690   0.484
19403WAT     H158451   2.237   3.701   0.582
19403WAT     H258452   2.203   3.606   0.455
19404WAT      O58453   0.908   1.521   6.838
19404WAT     H158454   0.918   1.616   6.810
19404WAT     H258455   0.945   1.461   6.768
19405WAT      O58456   5.132   4.638   3.471
19405WAT     H158457   5.150   4.547   3.509
19405WAT     H258458   5.142   4.634   3.371
19406WAT      O58459   8.668   8.092   3.102
19406WAT     H158460   8.761   8.091   3.138
19406WAT     H258461   8.613   8.023   3.150
19407WAT      O58462   6.534   3.558   5.147
19407WAT     H158463   6.448   3.518   5.176
19407WAT     H258464   6.610   3.508   5.189
19408WAT      O58465   8.667   9.258   2.640
19408WAT     H158466   8.643   9.314   2.560
19408WAT     H258467   8.747   9.296   2.685
19409WAT      O58468   2.158   4.802   1.853
19409WAT     H158469   2.082   4.866   1.844
19409WAT     H258470   2.125   4.717   1.896
19410WAT      O58471   2.469   9.800   4.571
19410WAT     H158472   2.526   9.723   4.542
19410WAT     H258473   2.416   9.775   4.652
19411WAT      O58474   1.850   5.974   1.867
19411WAT     H158475   1.940   6.009   1.893
19411WAT     H258476   1.831   5.889   1.916
19412WAT      O58477   8.995   7.509   9.645
19412WAT     H158478   9.003   7.601   9.684
19412WAT     H258479   8.956   7.515   9.553
19413WAT      O58480   7.209   0.592   4.264
19413WAT     H158481   7.110   0.585   4.252
19413WAT     H258482   7.240   0.682   4.234
19414WAT      O58483   6.933   0.691   8.856
19414WAT     H158484   6.910   0.684   8.953
19414WAT     H258485   6.915   0.603   8.811
19415WAT      O58486   2.973   1.963   2.555
19415WAT     H158487   3.067   1.930   2.566
19415WAT     H258488   2.909   1.887   2.567
19416WAT      O58489   0.625   6.909   5.368
19416WAT     H158490   0.548   6.964   5.401
19416WAT     H258491   0.591   6.821   5.336
19417WAT      O58492   9.811   7.581   4.835
19417WAT     H158493   9.808   7.482   4.820
19417WAT     H258494   9.886   7.621   4.782
19418WAT      O58495   7.772   0.305   7.740
19418WAT     H158496   7.757   0.212   7.773
19418WAT     H258497   7.819   0.302   7.652
19419WAT      O58498   4.067   4.584   8.939
19419WAT     H158499   4.157   4.559   8.975
19419WAT     H258500   4.074   4.672   8.892
19420WAT      O58501   9.672   6.604   5.732
19420WAT     H158502   9.617   6.664   5.789
19420WAT     H258503   9.704   6.655   5.652
19421WAT      O58504   2.679   1.939   5.193
19421WAT     H158505   2.600   1.912   5.249
19421WAT     H258506   2.761   1.893   5.227
19422WAT      O58507   1.415   5.461   9.753
19422WAT     H158508   1.405   5.402   9.833
19422WAT     H258509   1.477   5.418   9.687
19423WAT      O58510   6.732   7.708   6.054
19423WAT     H158511   6.811   7.667   6.009
19423WAT     H258512   6.723   7.671   6.146
19424WAT      O58513   6.437   1.279   4.362
19424WAT     H158514   6.534   1.255   4.367
19424WAT     H258515   6.383   1.207   4.406
19425WAT      O58516   8.196   9.126   3.182
19425WAT     H158517   8.196   9.091   3.088
19425WAT     H258518   8.291   9.140   3.212
19426WAT      O58519   4.586   4.989   2.913
19426WAT     H158520   4.569   5.000   2.814
19426WAT     H258521   4.586   5.079   2.956
19427WAT      O58522   0.557   4.060   7.504
19427WAT     H158523   0.458   4.062   7.518
19427WAT     H258524   0.577   4.038   7.408
19428WAT      O58525   1.078   9.555   7.921
19428WAT     H158526   1.013   9.558   7.998
19428WAT     H258527   1.108   9.647   7.899
19429WAT      O58528   2.180   9.833   5.927
19429WAT     H158529   2.259   9.809   5.984
19429WAT     H258530   2.142   9.920   5.959
19430WAT      O58531   0.686   4.096   2.148
19430WAT     H158532   0.685   4.121   2.051
19430WAT     H258533   0.672   4.178   2.204
19431WAT      O58534   8.334   2.880   2.813
19431WAT     H158535   8.295   2.964   2.775
19431WAT     H258536   8.308   2.802   2.756
19432WAT      O58537   8.001   6.674   8.072
19432WAT     H158538   7.959   6.605   8.130
19432WAT     H258539   8.097   6.651   8.056
19433WAT      O58540   9.199   3.694   3.184
19433WAT     H158541   9.227   3.626   3.116
19433WAT     H258542   9.157   3.647   3.262
19434WAT      O58543   4.260   4.292   4.483
19434WAT     H158544   4.345   4.253   4.446
19434WAT     H258545   4.251   4.387   4.453
19435WAT      O58546   1.629   7.941   6.616
19435WAT     H158547   1.540   7.977   6.647
19435WAT     H258548   1.682   8.015   6.576
19436WAT      O58549   0.241   1.822   8.770
19436WAT     H158550   0.173   1.758   8.735
19436WAT     H258551   0.333   1.789   8.749
19437WAT      O58552   1.481   6.350   7.981
19437WAT     H158553   1.487   6.304   8.069
19437WAT     H258554   1.488   6.449   7.995
19438WAT      O58555   1.582   2.263   6.198
19438WAT     H158556   1.592   2.351   6.152
19438WAT     H258557   1.659   2.203   6.173
19439WAT      O58558   1.683   2.460   3.824
19439WAT     H158559   1.770   2.450   3.872
19439WAT     H258560   1.700   2.494   3.731
19440WAT      O58561   8.408   9.167   9.357
19440WAT     H158562   8.351   9.244   9.385
19440WAT     H258563   8.502   9.182   9.388
19441WAT      O58564   5.422   9.390   9.895
19441WAT     H158565   5.443   9.394   9.798
19441WAT     H258566   5.326   9.415   9.909
19442WAT      O58567   1.794   3.145   4.542
19442WAT     H158568   1.840   3.149   4.453
19442WAT     H258569   1.851   3.191   4.611
19443WAT      O58570   2.080   8.156   5.629
19443WAT     H158571   2.004   8.192   5.683
19443WAT     H258572   2.101   8.219   5.554
19444WAT      O58573   9.733   2.418   7.641
19444WAT     H158574   9.803   2.458   7.582
19444WAT     H258575   9.771   2.340   7.690
19445WAT      O58576   6.127   2.679   7.753
19445WAT     H158577   6.138   2.642   7.846
19445WAT     H258578   6.055   2.748   7.753
19446WAT      O58579   4.218   6.742   5.576
19446WAT     H158580   4.264   6.827   5.552
19446WAT     H258581   4.128   6.761   5.615
19447WAT      O58582   5.358   1.688   6.287
19447WAT     H158583   5.265   1.712   6.315
19447WAT     H258584   5.357   1.599   6.242
19448WAT      O58585   1.360   7.170   0.556
19448WAT     H158586   1.435   7.141   0.497
19448WAT     H258587   1.349   7.269   0.551
19449WAT      O58588   3.129   7.175   8.228
19449WAT     H158589   3.205   7.125   8.270
19449WAT     H258590   3.136   7.272   8.251
19450WAT      O58591   7.809   5.068   6.787
19450WAT     H158592   7.755   4.996   6.831
19450WAT     H258593   7.751   5.118   6.722
19451WAT      O58594   1.755   0.445   8.024
19451WAT     H158595   1.715   0.537   8.016
19451WAT     H258596   1.682   0.379   8.042
19452WAT      O58597   0.550   3.625   8.622
19452WAT     H158598   0.595   3.538   8.643
19452WAT     H258599   0.612   3.684   8.572
19453WAT      O58600   1.355   7.799   0.804
19453WAT     H158601   1.453   7.794   0.782
19453WAT     H258602   1.302   7.788   0.721
19454WAT      O58603   7.544   3.472   1.334
19454WAT     H158604   7.534   3.435   1.241
19454WAT     H258605   7.641   3.485   1.354
19455WAT      O58606   4.807   9.519   5.670
19455WAT     H158607   4.718   9.474   5.666
19455WAT     H258608   4.855   9.508   5.583
19456WAT      O58609   4.319   7.064   7.911
19456WAT     H158610   4.393   7.121   7.875
19456WAT     H258611   4.232   7.095   7.874
19457WAT      O58612   3.834   5.073   4.014
19457WAT     H158613   3.774   5.023   4.077
19457WAT     H258614   3.818   5.041   3.921
19458WAT      O58615   8.646   9.549   5.512
19458WAT     H158616   8.603   9.543   5.422
19458WAT     H258617   8.745   9.542   5.503
19459WAT      O58618   6.499   2.852   2.002
19459WAT     H158619   6.599   2.862   1.994
19459WAT     H258620   6.461   2.833   1.912
19460WAT      O58621   1.989   0.880   5.723
19460WAT     H158622   1.917   0.902   5.657
19460WAT     H258623   1.959   0.907   5.815
19461WAT      O58624   5.465   6.703   7.828
19461WAT     H158625   5.530   6.674   7.758
19461WAT     H258626   5.372   6.689   7.794
19462WAT      O58627   9.738   9.056   5.319
19462WAT     H158628   9.714   8.969   5.363
19462WAT     H258629   9.809   9.040   5.251
19463WAT      O58630   0.176   2.277   2.667
19463WAT     H158631   0.158   2.215   2.743
19463WAT     H258632   0.274   2.296   2.662
19464WAT      O58633   6.114   4.784   6.881
19464WAT     H158634   6.059   4.739   6.811
19464WAT     H258635   6.110   4.883   6.868
19465WAT      O58636   5.188   7.636   2.467
19465WAT     H158637   5.286   7.616   2.470
19465WAT     H258638   5.173   7.726   2.427
19466WAT      O58639   7.242   2.671   7.846
19466WAT     H158640   7.198   2.585   7.818
19466WAT     H258641   7.267   2.665   7.942
19467WAT      O58642   8.839   2.232   8.431
19467WAT     H158643   8.811   2.211   8.525
19467WAT     H258644   8.858   2.330   8.424
19468WAT      O58645   7.540   8.701   6.401
19468WAT     H158646   7.538   8.602   6.403
19468WAT     H258647   7.486   8.734   6.324
19469WAT      O58648   3.268   5.487   2.279
19469WAT     H158649   3.251   5.487   2.378
19469WAT     H258650   3.216   5.562   2.237
19470WAT      O58651   4.070   2.929   3.451
19470WAT     H158652   4.138   2.881   3.506
19470WAT     H258653   3.983   2.931   3.500
19471WAT      O58654   0.887   9.678   6.123
19471WAT     H158655   0.805   9.734   6.112
19471WAT     H258656   0.864   9.582   6.111
19472WAT      O58657   0.094   1.654   8.997
19472WAT     H158658   0.110   1.649   9.096
19472WAT     H258659   0.131   1.571   8.954
19473WAT      O58660   2.319   0.212   6.211
19473WAT     H158661   2.373   0.286   6.170
19473WAT     H258662   2.244   0.187   6.150
19474WAT      O58663   3.650   4.460   6.114
19474WAT     H158664   3.656   4.408   6.199
19474WAT     H258665   3.598   4.408   6.046
19475WAT      O58666   5.236   6.160   2.783
19475WAT     H158667   5.139   6.153   2.760
19475WAT     H258668   5.260   6.255   2.799
19476WAT      O58669   1.674   2.975   1.248
19476WAT     H158670   1.705   3.018   1.163
19476WAT     H258671   1.730   2.895   1.267
19477WAT      O58672   9.796   3.454   3.730
19477WAT     H158673   9.759   3.472   3.821
19477WAT     H258674   9.810   3.541   3.682
19478WAT      O58675   8.170   3.656   8.942
19478WAT     H158676   8.245   3.670   8.877
19478WAT     H258677   8.116   3.576   8.913
19479WAT      O58678   0.848   8.272   7.164
19479WAT     H158679   0.776   8.203   7.158
19479WAT     H258680   0.842   8.334   7.085
19480WAT      O58681   9.860   8.980   6.463
19480WAT     H158682   9.866   9.028   6.376
19480WAT     H258683   9.885   8.883   6.451
19481WAT      O58684   2.348   1.615   9.572
19481WAT     H158685   2.282   1.564   9.627
19481WAT     H258686   2.428   1.637   9.628
19482WAT      O58687   8.865   2.396   9.530
19482WAT     H158688   8.876   2.463   9.457
19482WAT     H258689   8.771   2.396   9.562
19483WAT      O58690   8.541   1.823   0.652
19483WAT     H158691   8.549   1.896   0.720
19483WAT     H258692   8.632   1.787   0.631
19484WAT      O58693   2.629   3.868   9.735
19484WAT     H158694   2.533   3.864   9.708
19484WAT     H258695   2.645   3.952   9.786
19485WAT      O58696   9.535   4.426   3.098
19485WAT     H158697   9.520   4.493   3.171
19485WAT     H258698   9.533   4.334   3.138
19486WAT      O58699   9.757   3.659   8.353
19486WAT     H158700   9.818   3.632   8.427
19486WAT     H258701   9.771   3.599   8.274
19487WAT      O58702   9.761   7.274   0.428
19487WAT     H158703   9.784   7.230   0.515
19487WAT     H258704   9.726   7.206   0.364
19488WAT      O58705   5.743   9.501   7.580
19488WAT     H158706   5.716   9.562   7.505
19488WAT     H258707   5.684   9.419   7.579
19489WAT      O58708   8.832   8.934   6.188
19489WAT     H158709   8.865   8.839   6.189
19489WAT     H258710   8.804   8.960   6.280
19490WAT      O58711   9.135   1.815   5.708
19490WAT     H158712   9.173   1.857   5.790
19490WAT     H258713   9.148   1.877   5.630
19491WAT      O58714   1.355   4.956   3.124
19491WAT     H158715   1.446   4.959   3.164
19491WAT     H258716   1.356   5.000   3.035
19492WAT      O58717   7.694   6.791   3.453
19492WAT     H158718   7.774   6.731   3.444
19492WAT     H258719   7.627   6.748   3.514
19493WAT      O58720   8.192   2.896   2.489
19493WAT     H158721   8.133   2.831   2.537
19493WAT     H258722   8.224   2.966   2.553
19494WAT      O58723   6.618   5.230   7.876
19494WAT     H158724   6.619   5.235   7.976
19494WAT     H258725   6.596   5.137   7.847
19495WAT      O58726   1.616   3.816   3.961
19495WAT     H158727   1.598   3.821   3.863
19495WAT     H258728   1.564   3.739   4.000
19496WAT      O58729   5.167   8.343   0.840
19496WAT     H158730   5.250   8.294   0.816
19496WAT     H258731   5.087   8.292   0.807
19497WAT      O58732   5.171   6.942   8.859
19497WAT     H158733   5.112   7.022   8.844
19497WAT     H258734   5.263   6.972   8.884
19498WAT      O58735   8.601   5.484   7.889
19498WAT     H158736   8.592   5.387   7.912
19498WAT     H258737   8.510   5.526   7.886
19499WAT      O58738   7.957   9.330   1.199
19499WAT     H158739   7.981   9.393   1.274
19499WAT     H258740   7.859   9.308   1.206
19500WAT      O58741   5.461   4.663   1.619
19500WAT     H158742   5.402   4.594   1.662
19500WAT     H258743   5.515   4.620   1.547
19501WAT      O58744   7.566   6.234   2.997
19501WAT     H158745   7.476   6.204   3.027
19501WAT     H258746   7.631   6.222   3.072
19502WAT      O58747   6.684   3.200   6.173
19502WAT     H158748   6.618   3.147   6.226
19502WAT     H258749   6.734   3.138   6.111
19503WAT      O58750   5.200   0.451   0.525
19503WAT     H158751   5.196   0.551   0.525
19503WAT     H258752   5.287   0.421   0.486
19504WAT      O58753   5.081   4.416   9.158
19504WAT     H158754   5.077   4.510   9.192
19504WAT     H258755   5.007   4.363   9.199
19505WAT      O58756   3.531   8.876   6.021
19505WAT     H158757   3.594   8.931   5.967
19505WAT     H258758   3.555   8.884   6.118
19506WAT      O58759   1.782   5.370   1.290
19506WAT     H158760   1.806   5.378   1.193
19506WAT     H258761   1.700   5.424   1.308
19507WAT      O58762   2.508   8.553   0.698
19507WAT     H158763   2.441   8.597   0.757
19507WAT     H258764   2.568   8.623   0.659
19508WAT      O58765   8.540   3.836   5.490
19508WAT     H158766   8.461   3.866   5.436
19508WAT     H258767   8.537   3.737   5.501
19509WAT      O58768   6.925   7.592   8.555
19509WAT     H158769   6.845   7.567   8.609
19509WAT     H258770   6.897   7.611   8.460
19510WAT      O58771   0.858   9.681   8.274
19510WAT     H158772   0.833   9.608   8.210
19510WAT     H258773   0.957   9.693   8.274
19511WAT      O58774   3.021   8.497   6.366
19511WAT     H158775   3.076   8.492   6.282
19511WAT     H258776   2.981   8.407   6.384
19512WAT      O58777   0.983   8.804   8.613
19512WAT     H158778   0.914   8.734   8.595
19512WAT     H258779   1.013   8.843   8.526
19513WAT      O58780   6.150   7.625   0.213
19513WAT     H158781   6.175   7.552   0.277
19513WAT     H258782   6.076   7.680   0.253
19514WAT      O58783   0.993   9.524   6.660
19514WAT     H158784   1.021   9.488   6.749
19514WAT     H258785   1.040   9.611   6.644
19515WAT      O58786   0.897   5.180   7.707
19515WAT     H158787   0.917   5.277   7.691
19515WAT     H258788   0.867   5.137   7.622
19516WAT      O58789   4.102   2.687   7.298
19516WAT     H158790   4.121   2.589   7.300
19516WAT     H258791   4.089   2.720   7.391
19517WAT      O58792   8.594   2.761   4.760
19517WAT     H158793   8.573   2.848   4.717
19517WAT     H258794   8.585   2.770   4.860
19518WAT      O58795   6.391   5.523   1.775
19518WAT     H158796   6.309   5.479   1.738
19518WAT     H258797   6.472   5.486   1.729
19519WAT      O58798   1.140   1.799   4.006
19519WAT     H158799   1.054   1.759   3.971
19519WAT     H258800   1.138   1.898   3.993
19520WAT      O58801   0.891   4.416   1.334
19520WAT     H158802   0.900   4.330   1.283
19520WAT     H258803   0.861   4.397   1.427
19521WAT      O58804   7.137   4.088   5.196
19521WAT     H158805   7.067   4.114   5.130
19521WAT     H258806   7.226   4.088   5.152
19522WAT      O58807   1.112   7.961   8.184
19522WAT     H158808   1.021   7.997   8.201
19522WAT     H258809   1.119   7.931   8.089
19523WAT      O58810   4.703   1.622   7.612
19523WAT     H158811   4.711   1.711   7.656
19523WAT     H258812   4.608   1.607   7.584
19524WAT      O58813   3.269   8.420   8.413
19524WAT     H158814   3.311   8.497   8.365
19524WAT     H258815   3.219   8.363   8.348
19525WAT      O58816   6.261   1.539   8.039
19525WAT     H158817   6.282   1.583   8.126
19525WAT     H258818   6.231   1.609   7.973
19526WAT      O58819   4.068   1.115   7.337
19526WAT     H158820   4.054   1.151   7.429
19526WAT     H258821   4.105   1.187   7.278
19527WAT      O58822   6.762   9.154   9.495
19527WAT     H158823   6.842   9.136   9.438
19527WAT     H258824   6.772   9.243   9.540
19528WAT      O58825   1.234   7.697   7.768
19528WAT     H158826   1.155   7.706   7.830
19528WAT     H258827   1.291   7.779   7.775
19529WAT      O58828   5.895   4.215   3.242
19529WAT     H158829   5.950   4.204   3.325
19529WAT     H258830   5.934   4.158   3.169
19530WAT      O58831   6.608   2.844   0.174
19530WAT     H158832   6.621   2.767   0.111
19530WAT     H258833   6.697   2.882   0.198
19531WAT      O58834   4.863   2.566   8.529
19531WAT     H158835   4.859   2.522   8.439
19531WAT     H258836   4.871   2.665   8.517
19532WAT      O58837   8.733   6.731   5.682
19532WAT     H158838   8.678   6.723   5.599
19532WAT     H258839   8.767   6.641   5.709
19533WAT      O58840   6.642   9.283   2.386
19533WAT     H158841   6.588   9.247   2.462
19533WAT     H258842   6.584   9.287   2.304
19534WAT      O58843   4.493   5.935   3.678
19534WAT     H158844   4.573   5.909   3.732
19534WAT     H258845   4.513   5.923   3.580
19535WAT      O58846   9.264   1.764   4.376
19535WAT     H158847   9.309   1.723   4.455
19535WAT     H258848   9.291   1.861   4.369
19536WAT      O58849   1.042   9.526   9.069
19536WAT     H158850   1.105   9.449   9.057
19536WAT     H258851   0.960   9.494   9.118
19537WAT      O58852   5.818   8.644   5.596
19537WAT     H158853   5.856   8.611   5.510
19537WAT     H258854   5.789   8.566   5.652
19538WAT      O58855   9.772   2.512   9.230
19538WAT     H158856   9.692   2.490   9.174
19538WAT     H258857   9.793   2.609   9.221
19539WAT      O58858   0.566   4.716   5.057
19539WAT     H158859   0.632   4.642   5.075
19539WAT     H258860   0.610   4.787   5.003
19540WAT      O58861   7.545   1.074   2.370
19540WAT     H158862   7.539   1.106   2.276
19540WAT     H258863   7.492   1.134   2.430
19541WAT      O58864   6.950   5.646   6.495
19541WAT     H158865   6.933   5.676   6.589
19541WAT     H258866   6.863   5.637   6.446
19542WAT      O58867   9.691   9.391   7.588
19542WAT     H158868   9.649   9.398   7.678
19542WAT     H258869   9.768   9.453   7.581
19543WAT      O58870   0.125   8.642   9.449
19543WAT     H158871   0.055   8.601   9.508
19543WAT     H258872   0.112   8.741   9.444
19544WAT      O58873   8.167   5.805   7.565
19544WAT     H158874   8.152   5.706   7.561
19544WAT     H258875   8.110   5.844   7.638
19545WAT      O58876   6.412   8.526   2.497
19545WAT     H158877   6.392   8.609   2.445
19545WAT     H258878   6.471   8.548   2.574
19546WAT      O58879   7.086   7.864   4.205
19546WAT     H158880   7.020   7.939   4.214
19546WAT     H258881   7.038   7.776   4.210
19547WAT      O58882   1.242   2.352   2.745
19547WAT     H158883   1.282   2.269   2.784
19547WAT     H258884   1.252   2.427   2.809
19548WAT      O58885   9.739   7.937   7.560
19548WAT     H158886   9.818   7.984   7.599
19548WAT     H258887   9.695   7.882   7.631
19549WAT      O58888   8.956   0.461   2.397
19549WAT     H158889   8.935   0.506   2.483
19549WAT     H258890   8.997   0.371   2.415
19550WAT      O58891   8.886   6.042   3.557
19550WAT     H158892   8.979   6.019   3.529
19550WAT     H258893   8.880   6.141   3.575
19551WAT      O58894   8.225   2.135   9.852
19551WAT     H158895   8.207   2.070   9.778
19551WAT     H258896   8.149   2.199   9.859
19552WAT      O58897   1.175   8.953   6.107
19552WAT     H158898   1.094   8.946   6.165
19552WAT     H258899   1.155   9.009   6.027
19553WAT      O58900   4.215   0.954   0.023
19553WAT     H158901   4.163   0.871   0.001
19553WAT     H258902   4.151   1.028   0.044
19554WAT      O58903   5.317   1.382   0.989
19554WAT     H158904   5.263   1.314   0.940
19554WAT     H258905   5.271   1.406   1.074
19555WAT      O58906   7.282   1.064   1.866
19555WAT     H158907   7.277   1.158   1.900
19555WAT     H258908   7.225   1.055   1.785
19556WAT      O58909   5.466   6.411   2.043
19556WAT     H158910   5.428   6.327   2.080
19556WAT     H258911   5.560   6.422   2.075
19557WAT      O58912   0.978   1.164   0.108
19557WAT     H158913   0.981   1.067   0.085
19557WAT     H258914   1.001   1.218   0.027
19558WAT      O58915   8.022   2.847   1.222
19558WAT     H158916   8.087   2.784   1.180
19558WAT     H258917   7.928   2.817   1.203
19559WAT      O58918   4.917   4.006   9.452
19559WAT     H158919   4.829   4.042   9.421
19559WAT     H258920   4.901   3.932   9.518
19560WAT      O58921   6.685   7.179   5.665
19560WAT     H158922   6.726   7.146   5.580
19560WAT     H258923   6.587   7.196   5.650
19561WAT      O58924   5.962   0.750   9.761
19561WAT     H158925   5.904   0.745   9.842
19561WAT     H258926   5.905   0.740   9.679
19562WAT      O58927   8.979   8.380   4.104
19562WAT     H158928   9.067   8.351   4.142
19562WAT     H258929   8.906   8.323   4.142
19563WAT      O58930   6.347   4.434   3.215
19563WAT     H158931   6.437   4.475   3.206
19563WAT     H258932   6.295   4.446   3.131
19564WAT      O58933   1.530   3.438   5.203
19564WAT     H158934   1.578   3.355   5.173
19564WAT     H258935   1.433   3.429   5.184
19565WAT      O58936   8.739   3.270   6.903
19565WAT     H158937   8.686   3.355   6.895
19565WAT     H258938   8.757   3.251   6.999
19566WAT      O58939   8.307   2.527   3.867
19566WAT     H158940   8.380   2.478   3.820
19566WAT     H258941   8.316   2.514   3.966
19567WAT      O58942   6.594   0.548   7.490
19567WAT     H158943   6.552   0.632   7.524
19567WAT     H258944   6.675   0.527   7.544
19568WAT      O58945   9.621   5.267   3.210
19568WAT     H158946   9.579   5.202   3.273
19568WAT     H258947   9.644   5.351   3.259
19569WAT      O58948   6.823   2.872   2.404
19569WAT     H158949   6.909   2.831   2.434
19569WAT     H258950   6.838   2.923   2.319
19570WAT      O58951   4.416   5.154   2.108
19570WAT     H158952   4.408   5.149   2.207
19570WAT     H258953   4.511   5.136   2.081
19571WAT      O58954   6.155   5.017   4.744
19571WAT     H158955   6.102   4.999   4.661
19571WAT     H258956   6.162   4.932   4.797
19572WAT      O58957   3.410   2.318   8.419
19572WAT     H158958   3.472   2.242   8.434
19572WAT     H258959   3.448   2.378   8.349
19573WAT      O58960   2.484   1.686   4.485
19573WAT     H158961   2.417   1.729   4.425
19573WAT     H258962   2.576   1.717   4.459
19574WAT      O58963   6.915   8.026   3.342
19574WAT     H158964   6.841   8.040   3.276
19574WAT     H258965   7.001   8.058   3.302
19575WAT      O58966   2.644   0.462   0.270
19575WAT     H158967   2.579   0.532   0.241
19575WAT     H258968   2.709   0.444   0.197
19576WAT      O58969   1.292   5.762   2.942
19576WAT     H158970   1.297   5.802   2.851
19576WAT     H258971   1.207   5.709   2.950
19577WAT      O58972   0.562   7.937   8.102
19577WAT     H158973   0.462   7.933   8.095
19577WAT     H258974   0.603   7.887   8.026
19578WAT      O58975   4.733   9.532   9.485
19578WAT     H158976   4.698   9.461   9.547
19578WAT     H258977   4.730   9.498   9.391
19579WAT      O58978   4.313   7.905   2.934
19579WAT     H158979   4.333   7.891   2.837
19579WAT     H258980   4.373   7.848   2.990
19580WAT      O58981   1.316   4.201   9.106
19580WAT     H158982   1.248   4.206   9.180
19580WAT     H258983   1.348   4.293   9.083
19581WAT      O58984   6.254   9.098   8.511
19581WAT     H158985   6.299   9.175   8.466
19581WAT     H258986   6.300   9.078   8.597
19582WAT      O58987   4.095   8.016   0.927
19582WAT     H158988   4.136   7.965   1.002
19582WAT     H258989   4.013   8.063   0.960
19583WAT      O58990   5.776   2.990   5.369
19583WAT     H158991   5.847   2.969   5.302
19583WAT     H258992   5.742   2.906   5.410
19584WAT      O58993   6.450   8.225   8.108
19584WAT     H158994   6.433   8.320   8.135
19584WAT     H258995   6.502   8.179   8.180
19585WAT      O58996   1.458   7.132   3.182
19585WAT     H158997   1.499   7.046   3.212
19585WAT     H258998   1.507   7.209   3.224
19586WAT      O58999   4.089   3.207   3.452
19586WAT     H159000   3.992   3.223   3.470
19586WAT     H259001   4.108   3.109   3.456
19587WAT      O59002   0.921   5.601   1.849
19587WAT     H159003   0.988   5.645   1.909
19587WAT     H259004   0.950   5.610   1.754
19588WAT      O59005   4.563   5.601   6.379
19588WAT     H159006   4.522   5.667   6.441
19588WAT     H259007   4.501   5.585   6.301
19589WAT      O59008   5.719   3.313   4.079
19589WAT     H159009   5.641   3.370   4.104
19589WAT     H259010   5.734   3.318   3.980
19590WAT      O59011   1.345   7.929   7.929
19590WAT     H159012   1.364   7.915   8.026
19590WAT     H259013   1.378   8.019   7.901
19591WAT      O59014   8.128   9.199   7.592
19591WAT     H159015   8.138   9.234   7.685
19591WAT     H259016   8.035   9.166   7.579
19592WAT      O59017   2.715   1.596   0.722
19592WAT     H159018   2.661   1.678   0.739
19592WAT     H259019   2.728   1.546   0.808
19593WAT      O59020   6.443   4.282   7.947
19593WAT     H159021   6.347   4.307   7.954
19593WAT     H259022   6.452   4.201   7.889
19594WAT      O59023   3.569   6.081   1.291
19594WAT     H159024   3.669   6.079   1.283
19594WAT     H259025   3.529   6.109   1.204
19595WAT      O59026   8.474   3.938   9.044
19595WAT     H159027   8.486   4.035   9.063
19595WAT     H259028   8.401   3.901   9.101
19596WAT      O59029   4.934   6.339   1.169
19596WAT     H159030   4.997   6.261   1.176
19596WAT     H259031   4.850   6.310   1.124
19597WAT      O59032   6.126   2.011   4.583
19597WAT     H159033   6.113   2.108   4.604
19597WAT     H259034   6.121   1.958   4.668
19598WAT      O59035   2.554   7.744   0.061
19598WAT     H159036   2.543   7.838   0.092
19598WAT     H259037   2.651   7.723   0.047
19599WAT      O59038   4.441   8.134   2.747
19599WAT     H159039   4.540   8.121   2.758
19599WAT     H259040   4.414   8.218   2.794
19600WAT      O59041   4.946   4.960   9.616
19600WAT     H159042   4.968   4.863   9.619
19600WAT     H259043   4.962   5.001   9.706
19601WAT      O59044   5.849   4.282   4.519
19601WAT     H159045   5.919   4.239   4.462
19601WAT     H259046   5.822   4.219   4.592
19602WAT      O59047   5.632   1.896   1.276
19602WAT     H159048   5.618   1.989   1.243
19602WAT     H259049   5.641   1.897   1.375
19603WAT      O59050   7.141   1.028   8.812
19603WAT     H159051   7.217   0.978   8.854
19603WAT     H259052   7.177   1.088   8.740
19604WAT      O59053   7.755   2.981   7.379
19604WAT     H159054   7.736   2.994   7.477
19604WAT     H259055   7.709   2.899   7.346
19605WAT      O59056   1.484   4.694   3.605
19605WAT     H159057   1.442   4.667   3.691
19605WAT     H259058   1.488   4.615   3.543
19606WAT      O59059   0.865   2.973   0.178
19606WAT     H159060   0.910   2.906   0.120
19606WAT     H259061   0.873   3.064   0.138
19607WAT      O59062   5.969   8.862   9.583
19607WAT     H159063   6.028   8.904   9.514
19607WAT     H259064   5.918   8.786   9.540
19608WAT      O59065   0.664   4.448   3.941
19608WAT     H159066   0.740   4.506   3.970
19608WAT     H259067   0.578   4.491   3.969
19609WAT      O59068   6.141   7.360   3.497
19609WAT     H159069   6.149   7.261   3.507
19609WAT     H259070   6.185   7.405   3.575
19610WAT      O59071   3.770   0.774   9.246
19610WAT     H159072   3.762   0.764   9.147
19610WAT     H259073   3.865   0.790   9.270
19611WAT      O59074   3.766   7.071   0.611
19611WAT     H159075   3.799   7.166   0.618
19611WAT     H259076   3.841   7.008   0.629
19612WAT      O59077   6.302   4.304   0.402
19612WAT     H159078   6.308   4.328   0.305
19612WAT     H259079   6.206   4.298   0.430
19613WAT      O59080   0.008   6.445   5.875
19613WAT     H159081  -0.065   6.475   5.813
19613WAT     H259082  -0.011   6.479   5.967
19614WAT      O59083   8.670   9.170   5.200
19614WAT     H159084   8.592   9.149   5.259
19614WAT     H259085   8.743   9.211   5.255
19615WAT      O59086   3.469   8.462   1.810
19615WAT     H159087   3.411   8.425   1.737
19615WAT     H259088   3.557   8.416   1.809
19616WAT      O59089   3.153   7.423   6.081
19616WAT     H159090   3.140   7.382   6.171
19616WAT     H259091   3.070   7.470   6.054
19617WAT      O59092   5.469   0.627   0.805
19617WAT     H159093   5.520   0.707   0.835
19617WAT     H259094   5.372   0.651   0.794
19618WAT      O59095   5.754   7.965   9.751
19618WAT     H159096   5.751   8.064   9.737
19618WAT     H259097   5.760   7.919   9.662
19619WAT      O59098   5.463   8.549   7.948
19619WAT     H159099   5.452   8.494   8.031
19619WAT     H259100   5.373   8.578   7.916
19620WAT      O59101   8.719   0.930   1.498
19620WAT     H159102   8.647   0.910   1.431
19620WAT     H259103   8.807   0.935   1.451
19621WAT      O59104   7.682   4.982   8.830
19621WAT     H159105   7.759   5.015   8.775
19621WAT     H259106   7.601   5.037   8.810
19622WAT      O59107   1.235   6.098   6.853
19622WAT     H159108   1.137   6.100   6.872
19622WAT     H259109   1.261   6.008   6.820
19623WAT      O59110   6.899   9.188   5.054
19623WAT     H159111   6.941   9.097   5.053
19623WAT     H259112   6.896   9.222   5.148
19624WAT      O59113   4.772   3.525   9.718
19624WAT     H159114   4.695   3.462   9.730
19624WAT     H259115   4.821   3.535   9.805
19625WAT      O59116   9.244   2.410   1.903
19625WAT     H159117   9.231   2.327   1.957
19625WAT     H259118   9.340   2.417   1.876
19626WAT      O59119   9.184   7.696   2.271
19626WAT     H159120   9.121   7.717   2.196
19626WAT     H259121   9.246   7.622   2.243
19627WAT      O59122   0.577   8.475   6.575
19627WAT     H159123   0.539   8.413   6.644
19627WAT     H259124   0.516   8.552   6.562
19628WAT      O59125   8.154   7.705   0.939
19628WAT     H159126   8.140   7.761   1.020
19628WAT     H259127   8.082   7.635   0.934
19629WAT      O59128   2.136   4.182   2.861
19629WAT     H159129   2.130   4.226   2.771
19629WAT     H259130   2.130   4.083   2.850
19630WAT      O59131   4.064   8.071   7.090
19630WAT     H159132   4.025   8.073   6.998
19630WAT     H259133   4.081   8.165   7.121
19631WAT      O59134   0.526   2.802   3.447
19631WAT     H159135   0.453   2.748   3.406
19631WAT     H259136   0.513   2.899   3.423
19632WAT      O59137   4.222   2.339   4.293
19632WAT     H159138   4.244   2.295   4.380
19632WAT     H259139   4.291   2.313   4.225
19633WAT      O59140   7.749   4.189   0.450
19633WAT     H159141   7.665   4.230   0.485
19633WAT     H259142   7.805   4.157   0.526
19634WAT      O59143   2.201   1.206   4.208
19634WAT     H159144   2.258   1.272   4.160
19634WAT     H259145   2.224   1.206   4.305
19635WAT      O59146   1.883   8.035   5.881
19635WAT     H159147   1.790   8.035   5.919
19635WAT     H259148   1.947   8.007   5.952
19636WAT      O59149   0.716   5.215   1.531
19636WAT     H159150   0.780   5.264   1.589
19636WAT     H259151   0.722   5.117   1.550
19637WAT      O59152   6.108   3.962   6.284
19637WAT     H159153   6.111   3.890   6.353
19637WAT     H259154   6.200   3.975   6.245
19638WAT      O59155   4.736   3.082   4.669
19638WAT     H159156   4.790   3.164   4.647
19638WAT     H259157   4.771   3.041   4.753
19639WAT      O59158   0.819   6.727   6.490
19639WAT     H159159   0.901   6.670   6.497
19639WAT     H259160   0.790   6.755   6.581
19640WAT      O59161   8.481   7.603   1.782
19640WAT     H159162   8.559   7.542   1.795
19640WAT     H259163   8.449   7.635   1.871
19641WAT      O59164   1.474   8.189   0.890
19641WAT     H159165   1.562   8.200   0.843
19641WAT     H259166   1.400   8.193   0.824
19642WAT      O59167   9.428   9.786   0.376
19642WAT     H159168   9.429   9.821   0.470
19642WAT     H259169   9.338   9.746   0.357
19643WAT      O59170   8.248   8.449   7.090
19643WAT     H159171   8.312   8.502   7.036
19643WAT     H259172   8.293   8.366   7.123
19644WAT      O59173   5.456   1.121   6.316
19644WAT     H159174   5.391   1.057   6.274
19644WAT     H259175   5.518   1.156   6.246
19645WAT      O59176   7.355   7.275   5.662
19645WAT     H159177   7.326   7.247   5.754
19645WAT     H259178   7.431   7.339   5.669
19646WAT      O59179   3.751   3.034   2.159
19646WAT     H159180   3.681   3.102   2.181
19646WAT     H259181   3.743   3.009   2.062
19647WAT      O59182   8.643   2.524   9.311
19647WAT     H159183   8.581   2.546   9.236
19647WAT     H259184   8.736   2.514   9.276
19648WAT      O59185   0.932   7.364   0.981
19648WAT     H159186   1.025   7.325   0.974
19648WAT     H259187   0.873   7.320   0.913
19649WAT      O59188   2.367   3.409   6.147
19649WAT     H159189   2.412   3.453   6.224
19649WAT     H259190   2.293   3.350   6.181
19650WAT      O59191   5.730   2.870   2.212
19650WAT     H159192   5.659   2.940   2.203
19650WAT     H259193   5.731   2.813   2.131
19651WAT      O59194   6.384   4.943   7.740
19651WAT     H159195   6.385   4.942   7.640
19651WAT     H259196   6.337   5.025   7.771
19652WAT      O59197   2.662   2.486   4.193
19652WAT     H159198   2.610   2.510   4.111
19652WAT     H259199   2.691   2.390   4.186
19653WAT      O59200   7.115   2.255   7.605
19653WAT     H159201   7.090   2.323   7.536
19653WAT     H259202   7.204   2.216   7.583
19654WAT      O59203   0.411   8.956   1.861
19654WAT     H159204   0.328   9.007   1.837
19654WAT     H259205   0.452   8.919   1.777
19655WAT      O59206   0.907   8.883   7.098
19655WAT     H159207   0.966   8.911   7.022
19655WAT     H259208   0.836   8.821   7.063
19656WAT      O59209   4.687   1.026   2.439
19656WAT     H159210   4.677   0.991   2.346
19656WAT     H259211   4.612   1.089   2.460
19657WAT      O59212   0.711   7.316   2.217
19657WAT     H159213   0.775   7.327   2.141
19657WAT     H259214   0.677   7.222   2.219
19658WAT      O59215   7.022   8.385   9.563
19658WAT     H159216   7.099   8.360   9.504
19658WAT     H259217   7.045   8.467   9.615
19659WAT      O59218   4.529   7.650   7.574
19659WAT     H159219   4.609   7.597   7.603
19659WAT     H259220   4.496   7.615   7.486
19660WAT      O59221   4.016   0.256   6.651
19660WAT     H159222   4.077   0.284   6.725
19660WAT     H259223   3.947   0.326   6.635
19661WAT      O59224   0.919   3.497   8.188
19661WAT     H159225   0.937   3.489   8.286
19661WAT     H259226   0.828   3.537   8.175
19662WAT      O59227   9.450   2.595   6.160
19662WAT     H159228   9.439   2.518   6.097
19662WAT     H259229   9.381   2.665   6.140
19663WAT      O59230   9.476   1.286   0.722
19663WAT     H159231   9.433   1.282   0.811
19663WAT     H259232   9.574   1.264   0.731
19664WAT      O59233   7.732   4.114   6.648
19664WAT     H159234   7.807   4.178   6.661
19664WAT     H259235   7.669   4.119   6.725
19665WAT      O59236   6.964   4.885   9.409
19665WAT     H159237   6.946   4.970   9.458
19665WAT     H259238   7.042   4.838   9.450
19666WAT      O59239   8.463   3.937   8.786
19666WAT     H159240   8.410   4.021   8.778
19666WAT     H259241   8.463   3.906   8.881
19667WAT      O59242   3.295   0.218   1.201
19667WAT     H159243   3.358   0.282   1.158
19667WAT     H259244   3.232   0.267   1.261
19668WAT      O59245   2.479   2.729   4.858
19668WAT     H159246   2.540   2.663   4.901
19668WAT     H259247   2.476   2.713   4.759
19669WAT      O59248   9.735   6.661   5.095
19669WAT     H159249   9.641   6.683   5.071
19669WAT     H259250   9.737   6.573   5.142
19670WAT      O59251   0.277   5.278   5.552
19670WAT     H159252   0.369   5.306   5.577
19670WAT     H259253   0.258   5.187   5.589
19671WAT      O59254   3.330   3.274   3.768
19671WAT     H159255   3.349   3.176   3.762
19671WAT     H259256   3.232   3.289   3.772
19672WAT      O59257   2.431   4.361   3.667
19672WAT     H159258   2.346   4.367   3.718
19672WAT     H259259   2.500   4.420   3.709
19673WAT      O59260   1.972   4.091   0.163
19673WAT     H159261   2.003   4.001   0.193
19673WAT     H259262   1.909   4.129   0.230
19674WAT      O59263   8.045   0.860   7.904
19674WAT     H159264   8.004   0.856   7.813
19674WAT     H259265   7.976   0.836   7.972
19675WAT      O59266   1.406   4.526   2.498
19675WAT     H159267   1.457   4.462   2.440
19675WAT     H259268   1.375   4.603   2.442
19676WAT      O59269   5.095   3.074   0.780
19676WAT     H159270   5.039   3.091   0.699
19676WAT     H259271   5.087   2.978   0.807
19677WAT      O59272   2.993   0.669   7.702
19677WAT     H159273   2.934   0.728   7.757
19677WAT     H259274   2.938   0.598   7.659
19678WAT      O59275   0.263   6.942   6.217
19678WAT     H159276   0.249   7.028   6.169
19678WAT     H259277   0.360   6.930   6.238
19679WAT      O59278   4.487   2.363   0.873
19679WAT     H159279   4.401   2.406   0.846
19679WAT     H259280   4.548   2.360   0.794
19680WAT      O59281   6.288   6.561   5.430
19680WAT     H159282   6.326   6.538   5.340
19680WAT     H259283   6.189   6.548   5.428
19681WAT      O59284   1.147   2.068   7.288
19681WAT     H159285   1.172   1.997   7.354
19681WAT     H259286   1.122   2.151   7.337
19682WAT      O59287   4.975   4.360   1.798
19682WAT     H159288   4.903   4.298   1.828
19682WAT     H259289   5.063   4.327   1.831
19683WAT      O59290   5.618   7.068   4.670
19683WAT     H159291   5.590   7.001   4.601
19683WAT     H259292   5.552   7.067   4.745
19684WAT      O59293   5.274   3.387   4.121
19684WAT     H159294   5.367   3.424   4.113
19684WAT     H259295   5.208   3.461   4.113
19685WAT      O59296   0.544   4.619   0.857
19685WAT     H159297   0.461   4.580   0.817
19685WAT     H259298   0.617   4.618   0.789
19686WAT      O59299   1.747   2.450   0.289
19686WAT     H159300   1.698   2.517   0.344
19686WAT     H259301   1.700   2.362   0.295
19687WAT      O59302   9.089   0.601   7.775
19687WAT     H159303   9.065   0.535   7.846
19687WAT     H259304   9.183   0.633   7.790
19688WAT      O59305   1.142   3.351   7.323
19688WAT     H159306   1.138   3.319   7.228
19688WAT     H259307   1.110   3.446   7.327
19689WAT      O59308   4.288   2.427   6.980
19689WAT     H159309   4.216   2.443   6.914
19689WAT     H259310   4.247   2.409   7.070
19690WAT      O59311   0.583   8.324   1.051
19690WAT     H159312   0.528   8.360   1.127
19690WAT     H259313   0.641   8.397   1.015
19691WAT      O59314   3.952   0.164   4.923
19691WAT     H159315   4.037   0.134   4.967
19691WAT     H259316   3.969   0.250   4.874
19692WAT      O59317   4.175   8.417   1.759
19692WAT     H159318   4.129   8.499   1.725
19692WAT     H259319   4.197   8.430   1.856
19693WAT      O59320   2.708   7.091   2.166
19693WAT     H159321   2.707   6.999   2.127
19693WAT     H259322   2.706   7.158   2.092
19694WAT      O59323   0.685   7.595   6.525
19694WAT     H159324   0.736   7.636   6.600
19694WAT     H259325   0.647   7.507   6.554
19695WAT      O59326   5.941   6.023   3.013
19695WAT     H159327   5.895   5.976   2.938
19695WAT     H259328   5.873   6.069   3.070
19696WAT      O59329   2.847   0.086   4.180
19696WAT     H159330   2.778   0.014   4.187
19696WAT     H259331   2.844   0.126   4.088
19697WAT      O59332   3.873   2.825   3.995
19697WAT     H159333   3.972   2.815   4.008
19697WAT     H259334   3.845   2.918   4.021
19698WAT      O59335   0.112   4.537   1.308
19698WAT     H159336   0.109   4.629   1.270
19698WAT     H259337   0.027   4.488   1.285
19699WAT      O59338   3.935   4.696   7.287
19699WAT     H159339   3.985   4.698   7.373
19699WAT     H259340   3.838   4.684   7.305
19700WAT      O59341   1.554   6.885   6.232
19700WAT     H159342   1.647   6.900   6.265
19700WAT     H259343   1.492   6.951   6.274
19701WAT      O59344   3.217   8.050   8.148
19701WAT     H159345   3.148   7.979   8.131
19701WAT     H259346   3.304   8.007   8.171
19702WAT      O59347   6.066   1.407   0.407
19702WAT     H159348   6.020   1.353   0.337
19702WAT     H259349   6.147   1.358   0.440
19703WAT      O59350   3.268   3.022   9.779
19703WAT     H159351   3.211   2.944   9.805
19703WAT     H259352   3.364   2.997   9.788
19704WAT      O59353   7.349   5.951   7.146
19704WAT     H159354   7.335   5.932   7.049
19704WAT     H259355   7.387   6.043   7.156
19705WAT      O59356   1.668   3.196   5.159
19705WAT     H159357   1.644   3.156   5.070
19705WAT     H259358   1.603   3.166   5.228
19706WAT      O59359   2.045   9.304   9.859
19706WAT     H159360   1.957   9.347   9.840
19706WAT     H259361   2.075   9.330   9.951
19707WAT      O59362   8.809   3.138   7.161
19707WAT     H159363   8.752   3.097   7.233
19707WAT     H259364   8.883   3.076   7.138
19708WAT      O59365   0.906   2.770   7.214
19708WAT     H159366   0.810   2.786   7.191
19708WAT     H259367   0.963   2.797   7.136
19709WAT      O59368   5.821   6.303   9.417
19709WAT     H159369   5.898   6.284   9.356
19709WAT     H259370   5.758   6.367   9.372
19710WAT      O59371   5.064   3.899   2.524
19710WAT     H159372   5.068   3.943   2.434
19710WAT     H259373   5.128   3.823   2.527
19711WAT      O59374   7.082   0.663   1.035
19711WAT     H159375   7.081   0.575   1.082
19711WAT     H259376   7.150   0.661   0.961
19712WAT      O59377   1.772   8.370   6.744
19712WAT     H159378   1.855   8.344   6.792
19712WAT     H259379   1.709   8.415   6.807
19713WAT      O59380   0.968   1.291   7.181
19713WAT     H159381   0.954   1.257   7.274
19713WAT     H259382   0.917   1.376   7.168
19714WAT      O59383   1.706   7.526   4.517
19714WAT     H159384   1.694   7.437   4.561
19714WAT     H259385   1.715   7.513   4.418
19715WAT      O59386   9.859   4.698   1.651
19715WAT     H159387   9.810   4.728   1.569
19715WAT     H259388   9.936   4.760   1.668
19716WAT      O59389   5.719   9.568   2.526
19716WAT     H159390   5.813   9.546   2.550
19716WAT     H259391   5.718   9.622   2.442
19717WAT      O59392   8.000   0.486   0.840
19717WAT     H159393   8.032   0.579   0.824
19717WAT     H259394   8.039   0.452   0.926
19718WAT      O59395   0.555   4.488   8.999
19718WAT     H159396   0.581   4.398   8.966
19718WAT     H259397   0.630   4.528   9.051
19719WAT      O59398   5.192   2.014   6.783
19719WAT     H159399   5.182   1.917   6.761
19719WAT     H259400   5.180   2.027   6.882
19720WAT      O59401   4.968   1.001   2.454
19720WAT     H159402   4.982   1.043   2.543
19720WAT     H259403   4.870   0.988   2.439
19721WAT      O59404   9.083   2.539   8.153
19721WAT     H159405   9.174   2.528   8.112
19721WAT     H259406   9.016   2.560   8.082
19722WAT      O59407   0.142   2.953   0.133
19722WAT     H159408   0.159   3.051   0.144
19722WAT     H259409   0.062   2.940   0.074
19723WAT      O59410   0.723   9.162   4.015
19723WAT     H159411   0.802   9.170   4.075
19723WAT     H259412   0.672   9.079   4.037
19724WAT      O59413   7.769   0.207   0.588
19724WAT     H159414   7.839   0.136   0.601
19724WAT     H259415   7.805   0.278   0.528
19725WAT      O59416   0.120   2.975   4.107
19725WAT     H159417   0.175   2.896   4.081
19725WAT     H259418   0.170   3.059   4.086
19726WAT      O59419   1.071   6.857   1.657
19726WAT     H159420   1.004   6.898   1.595
19726WAT     H259421   1.024   6.818   1.736
19727WAT      O59422   7.185   4.830   3.166
19727WAT     H159423   7.147   4.877   3.245
19727WAT     H259424   7.253   4.764   3.196
19728WAT      O59425   8.404   6.347   5.394
19728WAT     H159426   8.379   6.403   5.473
19728WAT     H259427   8.482   6.289   5.418
19729WAT      O59428   5.845   4.634   3.724
19729WAT     H159429   5.871   4.666   3.816
19729WAT     H259430   5.923   4.645   3.662
19730WAT      O59431   8.402   6.569   9.273
19730WAT     H159432   8.484   6.550   9.327
19730WAT     H259433   8.329   6.601   9.332
19731WAT      O59434   1.404   8.942   3.696
19731WAT     H159435   1.496   8.935   3.734
19731WAT     H259436   1.340   8.964   3.769
19732WAT      O59437   9.218   2.198   0.616
19732WAT     H159438   9.233   2.186   0.714
19732WAT     H259439   9.152   2.131   0.583
19733WAT      O59440   3.849   5.211   3.436
19733WAT     H159441   3.791   5.227   3.517
19733WAT     H259442   3.833   5.118   3.403
19734WAT      O59443   9.745   6.086   8.955
19734WAT     H159444   9.686   6.082   8.875
19734WAT     H259445   9.777   5.994   8.979
19735WAT      O59446   1.142   9.400   8.448
19735WAT     H159447   1.183   9.312   8.424
19735WAT     H259448   1.162   9.467   8.376
19736WAT      O59449   3.668   4.637   4.867
19736WAT     H159450   3.603   4.707   4.897
19736WAT     H259451   3.753   4.681   4.838
19737WAT      O59452   5.685   6.081   4.231
19737WAT     H159453   5.784   6.076   4.243
19737WAT     H259454   5.645   5.991   4.245
19738WAT      O59455   4.357   2.142   9.634
19738WAT     H159456   4.333   2.046   9.624
19738WAT     H259457   4.451   2.150   9.669
19739WAT      O59458   9.757   0.076   6.810
19739WAT     H159459   9.783   0.062   6.715
19739WAT     H259460   9.658   0.084   6.817
19740WAT      O59461   1.973   7.645   1.286
19740WAT     H159462   1.927   7.605   1.207
19740WAT     H259463   1.967   7.745   1.280
19741WAT      O59464   5.919   3.103   2.207
19741WAT     H159465   5.867   3.164   2.147
19741WAT     H259466   5.857   3.035   2.247
19742WAT      O59467   1.680   9.632   9.875
19742WAT     H159468   1.690   9.548   9.822
19742WAT     H259469   1.606   9.687   9.837
19743WAT      O59470   1.718   3.171   1.618
19743WAT     H159471   1.687   3.217   1.701
19743WAT     H259472   1.650   3.185   1.546
19744WAT      O59473   8.090   7.640   9.086
19744WAT     H159474   8.013   7.691   9.047
19744WAT     H259475   8.172   7.697   9.086
19745WAT      O59476   9.755   0.970   5.985
19745WAT     H159477   9.760   0.896   6.052
19745WAT     H259478   9.737   0.930   5.894
19746WAT      O59479   3.143   0.086   0.367
19746WAT     H159480   3.175   0.060   0.276
19746WAT     H259481   3.219   0.079   0.432
19747WAT      O59482   2.161   5.684   3.034
19747WAT     H159483   2.257   5.709   3.033
19747WAT     H259484   2.132   5.656   2.943
19748WAT      O59485   5.617   5.436   3.423
19748WAT     H159486   5.540   5.435   3.360
19748WAT     H259487   5.639   5.530   3.447
19749WAT      O59488   1.025   8.865   5.617
19749WAT     H159489   1.091   8.858   5.542
19749WAT     H259490   1.064   8.921   5.690
19750WAT      O59491   4.021   7.069   1.039
19750WAT     H159492   3.983   7.160   1.024
19750WAT     H259493   4.050   7.060   1.134
19751WAT      O59494   1.632   0.043   9.550
19751WAT     H159495   1.666  -0.051   9.561
19751WAT     H259496   1.538   0.041   9.515
19752WAT      O59497   9.174   0.082   1.580
19752WAT     H159498   9.224   0.072   1.666
19752WAT     H259499   9.202   0.166   1.534
19753WAT      O59500   2.484   9.059   4.920
19753WAT     H159501   2.545   9.110   4.981
19753WAT     H259502   2.524   9.057   4.828
19754WAT      O59503   2.034   4.001   1.137
19754WAT     H159504   2.012   4.083   1.191
19754WAT     H259505   2.113   4.020   1.078
19755WAT      O59506   0.880   6.956   2.286
19755WAT     H159507   0.860   6.964   2.189
19755WAT     H259508   0.817   7.014   2.338
19756WAT      O59509   5.827   8.069   1.082
19756WAT     H159510   5.893   8.002   1.117
19756WAT     H259511   5.861   8.108   0.997
19757WAT      O59512   9.886   0.575   5.486
19757WAT     H159513   9.897   0.666   5.447
19757WAT     H259514   9.882   0.508   5.412
19758WAT      O59515   9.297   8.849   6.080
19758WAT     H159516   9.263   8.885   6.167
19758WAT     H259517   9.392   8.878   6.068
19759WAT      O59518   4.194   4.191   8.569
19759WAT     H159519   4.170   4.212   8.664
19759WAT     H259520   4.293   4.178   8.562
19760WAT      O59521   2.590   6.199   2.102
19760WAT     H159522   2.500   6.189   2.058
19760WAT     H259523   2.614   6.113   2.147
19761WAT      O59524   2.289   9.337   8.166
19761WAT     H159525   2.215   9.369   8.225
19761WAT     H259526   2.327   9.252   8.203
19762WAT      O59527   0.932   2.370   8.354
19762WAT     H159528   0.965   2.464   8.364
19762WAT     H259529   0.840   2.371   8.315
19763WAT      O59530   8.743   6.101   0.929
19763WAT     H159531   8.704   6.040   0.860
19763WAT     H259532   8.742   6.055   1.018
19764WAT      O59533   9.515   2.892   1.010
19764WAT     H159534   9.442   2.949   1.047
19764WAT     H259535   9.567   2.853   1.086
19765WAT      O59536   2.541   9.427   0.457
19765WAT     H159537   2.574   9.495   0.392
19765WAT     H259538   2.614   9.405   0.522
19766WAT      O59539   0.188   0.055   1.944
19766WAT     H159540   0.156   0.149   1.955
19766WAT     H259541   0.201   0.013   2.033
19767WAT      O59542   8.973   1.164   7.703
19767WAT     H159543   8.961   1.070   7.671
19767WAT     H259544   8.975   1.164   7.803
19768WAT      O59545   1.256   7.553   8.592
19768WAT     H159546   1.289   7.555   8.687
19768WAT     H259547   1.333   7.565   8.530
19769WAT      O59548   8.883   8.322   5.940
19769WAT     H159549   8.824   8.273   5.875
19769WAT     H259550   8.846   8.413   5.957
19770WAT      O59551   1.041   6.851   9.204
19770WAT     H159552   1.045   6.768   9.259
19770WAT     H259553   1.127   6.863   9.154
19771WAT      O59554   6.474   4.955   7.477
19771WAT     H159555   6.567   4.973   7.508
19771WAT     H259556   6.444   5.028   7.416
19772WAT      O59557   3.240   1.855   7.060
19772WAT     H159558   3.183   1.793   7.114
19772WAT     H259559   3.224   1.838   6.963
19773WAT      O59560   3.559   4.401   9.616
19773WAT     H159561   3.569   4.388   9.517
19773WAT     H259562   3.491   4.337   9.651
19774WAT      O59563   4.435   6.451   8.744
19774WAT     H159564   4.349   6.432   8.697
19774WAT     H259565   4.445   6.389   8.822
19775WAT      O59566   3.292   3.649   8.566
19775WAT     H159567   3.252   3.570   8.612
19775WAT     H259568   3.219   3.713   8.539
19776WAT      O59569   9.275   1.235   3.343
19776WAT     H159570   9.213   1.290   3.288
19776WAT     H259571   9.257   1.138   3.327
19777WAT      O59572   2.724   5.713   8.536
19777WAT     H159573   2.782   5.715   8.617
19777WAT     H259574   2.739   5.796   8.482
19778WAT      O59575   6.332   3.225   5.540
19778WAT     H159576   6.360   3.156   5.606
19778WAT     H259577   6.232   3.234   5.541
19779WAT      O59578   5.871   2.484   7.719
19779WAT     H159579   5.819   2.509   7.638
19779WAT     H259580   5.851   2.390   7.744
19780WAT      O59581   1.129   9.104   0.251
19780WAT     H159582   1.063   9.065   0.315
19780WAT     H259583   1.221   9.093   0.287
19781WAT      O59584   9.030   2.216   9.053
19781WAT     H159585   8.936   2.247   9.065
19781WAT     H259586   9.088   2.293   9.026
19782WAT      O59587   4.128   5.276   3.408
19782WAT     H159588   4.203   5.210   3.414
19782WAT     H259589   4.041   5.229   3.426
19783WAT      O59590   1.620   1.501   8.534
19783WAT     H159591   1.665   1.412   8.528
19783WAT     H259592   1.641   1.555   8.452
19784WAT      O59593   6.789   6.654   4.137
19784WAT     H159594   6.748   6.678   4.225
19784WAT     H259595   6.883   6.623   4.151
19785WAT      O59596   5.247   5.671   9.456
19785WAT     H159597   5.223   5.723   9.538
19785WAT     H259598   5.215   5.720   9.375
19786WAT      O59599   3.725   3.786   8.105
19786WAT     H159600   3.722   3.886   8.106
19786WAT     H259601   3.673   3.751   8.027
19787WAT      O59602   8.947   4.259   1.498
19787WAT     H159603   8.966   4.339   1.556
19787WAT     H259604   8.864   4.275   1.445
19788WAT      O59605   1.549   2.265   0.800
19788WAT     H159606   1.604   2.243   0.719
19788WAT     H259607   1.578   2.209   0.877
19789WAT      O59608   1.073   8.394   5.917
19789WAT     H159609   1.130   8.457   5.970
19789WAT     H259610   0.986   8.381   5.964
19790WAT      O59611   4.021   7.746   5.956
19790WAT     H159612   4.048   7.717   6.048
19790WAT     H259613   4.006   7.844   5.955
19791WAT      O59614   4.233   5.806   8.267
19791WAT     H159615   4.264   5.894   8.302
19791WAT     H259616   4.289   5.733   8.306
19792WAT      O59617   2.214   5.065   0.786
19792WAT     H159618   2.225   4.967   0.799
19792WAT     H259619   2.168   5.105   0.865
19793WAT      O59620   4.059   8.688   8.922
19793WAT     H159621   3.980   8.627   8.927
19793WAT     H259622   4.143   8.634   8.927
19794WAT      O59623   7.147   3.471   6.422
19794WAT     H159624   7.187   3.553   6.460
19794WAT     H259625   7.108   3.415   6.495
19795WAT      O59626   0.452   6.464   3.812
19795WAT     H159627   0.521   6.416   3.757
19795WAT     H259628   0.496   6.536   3.866
19796WAT      O59629   7.482   7.379   7.679
19796WAT     H159630   7.429   7.435   7.616
19796WAT     H259631   7.445   7.389   7.771
19797WAT      O59632   7.383   4.406   9.461
19797WAT     H159633   7.451   4.366   9.401
19797WAT     H259634   7.316   4.456   9.407
19798WAT      O59635   3.708   3.955   3.096
19798WAT     H159636   3.675   4.007   3.175
19798WAT     H259637   3.631   3.936   3.035
19799WAT      O59638   8.580   8.988   7.456
19799WAT     H159639   8.626   9.007   7.370
19799WAT     H259640   8.646   8.997   7.532
19800WAT      O59641   3.517   0.024   5.133
19800WAT     H159642   3.510  -0.044   5.059
19800WAT     H259643   3.599   0.080   5.119
19801WAT      O59644   0.497   3.588   4.279
19801WAT     H159645   0.527   3.494   4.295
19801WAT     H259646   0.488   3.604   4.181
19802WAT      O59647   2.988   3.184   8.291
19802WAT     H159648   3.051   3.180   8.213
19802WAT     H259649   3.006   3.267   8.344
19803WAT      O59650   6.335   0.832   6.441
19803WAT     H159651   6.241   0.823   6.407
19803WAT     H259652   6.397   0.779   6.383
19804WAT      O59653   3.093   3.003   7.466
19804WAT     H159654   3.105   2.944   7.546
19804WAT     H259655   2.999   3.036   7.462
19805WAT      O59656   7.613   6.362   7.547
19805WAT     H159657   7.601   6.462   7.547
19805WAT     H259658   7.704   6.340   7.584
19806WAT      O59659   5.421   0.356   5.402
19806WAT     H159660   5.348   0.288   5.407
19806WAT     H259661   5.505   0.313   5.369
19807WAT      O59662   9.656   4.448   3.975
19807WAT     H159663   9.680   4.472   4.069
19807WAT     H259664   9.685   4.522   3.914
19808WAT      O59665   2.961   6.352   5.033
19808WAT     H159666   3.029   6.340   4.960
19808WAT     H259667   3.007   6.384   5.116
19809WAT      O59668   0.727   4.449   7.451
19809WAT     H159669   0.764   4.357   7.464
19809WAT     H259670   0.628   4.448   7.465
19810WAT      O59671   1.416   5.830   4.127
19810WAT     H159672   1.368   5.755   4.173
19810WAT     H259673   1.486   5.792   4.067
19811WAT      O59674   4.928   8.336   7.659
19811WAT     H159675   4.847   8.301   7.706
19811WAT     H259676   4.975   8.260   7.613
19812WAT      O59677   2.712   2.057   1.305
19812WAT     H159678   2.762   1.976   1.335
19812WAT     H259679   2.687   2.111   1.386
19813WAT      O59680   0.430   1.759   7.665
19813WAT     H159681   0.353   1.735   7.723
19813WAT     H259682   0.468   1.675   7.624
19814WAT      O59683   5.103   4.715   6.842
19814WAT     H159684   5.075   4.649   6.912
19814WAT     H259685   5.172   4.777   6.880
19815WAT      O59686   0.840   4.918   6.555
19815WAT     H159687   0.880   4.838   6.600
19815WAT     H259688   0.768   4.888   6.492
19816WAT      O59689   8.481   4.023   2.663
19816WAT     H159690   8.572   3.994   2.692
19816WAT     H259691   8.417   4.012   2.738
19817WAT      O59692   6.753   5.870   0.184
19817WAT     H159693   6.720   5.831   0.099
19817WAT     H259694   6.766   5.969   0.174
19818WAT      O59695   3.863   6.700   0.016
19818WAT     H159696   3.902   6.630   0.077
19818WAT     H259697   3.871   6.670  -0.079
19819WAT      O59698   8.854   5.598   8.824
19819WAT     H159699   8.795   5.584   8.745
19819WAT     H259700   8.803   5.578   8.908
19820WAT      O59701   1.157   5.678   1.981
19820WAT     H159702   1.171   5.596   1.927
19820WAT     H259703   1.247   5.718   2.003
19821WAT      O59704   6.527   5.357   0.368
19821WAT     H159705   6.502   5.339   0.463
19821WAT     H259706   6.480   5.438   0.335
19822WAT      O59707   4.311   7.280   4.554
19822WAT     H159708   4.384   7.252   4.617
19822WAT     H259709   4.222   7.259   4.595
19823WAT      O59710   1.278   1.900   4.825
19823WAT     H159711   1.254   1.823   4.767
19823WAT     H259712   1.338   1.869   4.899
19824WAT      O59713   0.983   9.681   5.330
19824WAT     H159714   0.894   9.726   5.330
19824WAT     H259715   0.973   9.585   5.304
19825WAT      O59716   9.585   7.791   6.244
19825WAT     H159717   9.487   7.785   6.228
19825WAT     H259718   9.616   7.711   6.295
19826WAT      O59719   4.498   5.822   7.587
19826WAT     H159720   4.429   5.751   7.580
19826WAT     H259721   4.585   5.789   7.550
19827WAT      O59722   1.966   9.143   8.992
19827WAT     H159723   1.916   9.138   8.906
19827WAT     H259724   1.902   9.168   9.066
19828WAT      O59725   3.085   6.945   3.993
19828WAT     H159726   3.159   6.887   3.957
19828WAT     H259727   3.041   6.899   4.069
19829WAT      O59728   2.551   2.762   0.389
19829WAT     H159729   2.490   2.795   0.317
19829WAT     H259730   2.639   2.810   0.383
19830WAT      O59731   5.524   8.717   1.018
19830WAT     H159732   5.546   8.721   0.920
19830WAT     H259733   5.450   8.651   1.033
19831WAT      O59734   3.397   1.397   7.819
19831WAT     H159735   3.393   1.487   7.776
19831WAT     H259736   3.436   1.405   7.911
19832WAT      O59737   5.375   7.698   4.020
19832WAT     H159738   5.443   7.767   3.996
19832WAT     H259739   5.293   7.711   3.963
19833WAT      O59740   1.114   8.418   1.880
19833WAT     H159741   1.182   8.413   1.806
19833WAT     H259742   1.023   8.427   1.840
19834WAT      O59743   7.398   3.064   5.670
19834WAT     H159744   7.357   2.973   5.680
19834WAT     H259745   7.443   3.070   5.581
19835WAT      O59746   0.800   6.539   8.320
19835WAT     H159747   0.807   6.531   8.420
19835WAT     H259748   0.711   6.505   8.290
19836WAT      O59749   2.066   0.460   5.184
19836WAT     H159750   2.161   0.454   5.216
19836WAT     H259751   2.023   0.370   5.193
19837WAT      O59752   4.482   6.920   1.439
19837WAT     H159753   4.536   6.968   1.370
19837WAT     H259754   4.405   6.977   1.467
19838WAT      O59755   1.633   8.726   8.810
19838WAT     H159756   1.728   8.741   8.785
19838WAT     H259757   1.617   8.629   8.825
19839WAT      O59758   3.794   0.952   0.637
19839WAT     H159759   3.813   0.970   0.540
19839WAT     H259760   3.773   1.038   0.684
19840WAT      O59761   3.775   3.406   6.210
19840WAT     H159762   3.715   3.437   6.284
19840WAT     H259763   3.782   3.477   6.141
19841WAT      O59764   4.983   6.757   4.818
19841WAT     H159765   5.068   6.709   4.799
19841WAT     H259766   4.916   6.735   4.747
19842WAT      O59767   1.916   8.332   4.113
19842WAT     H159768   1.962   8.404   4.164
19842WAT     H259769   1.936   8.243   4.154
19843WAT      O59770   4.511   2.799   8.405
19843WAT     H159771   4.418   2.836   8.411
19843WAT     H259772   4.576   2.875   8.402
19844WAT      O59773   9.193   1.679   3.070
19844WAT     H159774   9.169   1.662   2.974
19844WAT     H259775   9.111   1.673   3.127
19845WAT      O59776   8.204   0.733   1.799
19845WAT     H159777   8.288   0.687   1.770
19845WAT     H259778   8.209   0.829   1.772
19846WAT      O59779   6.043   0.015   8.058
19846WAT     H159780   6.011  -0.062   8.114
19846WAT     H259781   6.119   0.060   8.103
19847WAT      O59782   9.283   6.159   2.375
19847WAT     H159783   9.201   6.179   2.320
19847WAT     H259784   9.359   6.216   2.343
19848WAT      O59785   0.143   3.762   2.419
19848WAT     H159786   0.123   3.668   2.391
19848WAT     H259787   0.213   3.762   2.490
19849WAT      O59788   5.914   7.041   0.615
19849WAT     H159789   5.930   6.944   0.635
19849WAT     H259790   5.957   7.064   0.528
19850WAT      O59791   5.046   6.141   5.880
19850WAT     H159792   5.044   6.180   5.787
19850WAT     H259793   4.985   6.194   5.939
19851WAT      O59794   0.498   2.088   9.424
19851WAT     H159795   0.481   2.040   9.338
19851WAT     H259796   0.494   2.022   9.500
19852WAT      O59797   2.160   0.659   7.580
19852WAT     H159798   2.162   0.560   7.597
19852WAT     H259799   2.066   0.688   7.562
19853WAT      O59800   0.136   5.768   3.887
19853WAT     H159801   0.143   5.671   3.864
19853WAT     H259802   0.071   5.779   3.962
19854WAT      O59803   7.542   5.015   5.367
19854WAT     H159804   7.590   4.955   5.303
19854WAT     H259805   7.585   5.008   5.457
19855WAT      O59806   9.677   2.497   4.596
19855WAT     H159807   9.624   2.551   4.661
19855WAT     H259808   9.765   2.472   4.636
19856WAT      O59809   5.377   3.859   5.324
19856WAT     H159810   5.453   3.830   5.382
19856WAT     H259811   5.292   3.821   5.360
19857WAT      O59812   7.383   1.030   5.682
19857WAT     H159813   7.455   1.090   5.717
19857WAT     H259814   7.366   1.051   5.586
19858WAT      O59815   4.334   5.851   6.950
19858WAT     H159816   4.432   5.867   6.957
19858WAT     H259817   4.285   5.912   7.012
19859WAT      O59818   2.215   1.526   6.675
19859WAT     H159819   2.299   1.506   6.726
19859WAT     H259820   2.226   1.496   6.580
19860WAT      O59821   6.008   4.694   6.187
19860WAT     H159822   6.081   4.630   6.165
19860WAT     H259823   6.046   4.786   6.194
19861WAT      O59824   4.205   0.816   2.643
19861WAT     H159825   4.121   0.768   2.672
19861WAT     H259826   4.200   0.911   2.673
19862WAT      O59827   6.798   6.005   5.264
19862WAT     H159828   6.812   6.104   5.269
19862WAT     H259829   6.728   5.978   5.331
19863WAT      O59830   4.782   1.721   4.940
19863WAT     H159831   4.703   1.770   4.977
19863WAT     H259832   4.802   1.755   4.848
19864WAT      O59833   5.797   2.982   0.378
19864WAT     H159834   5.750   2.999   0.465
19864WAT     H259835   5.894   3.001   0.388
19865WAT      O59836   7.716   7.232   3.739
19865WAT     H159837   7.620   7.217   3.714
19865WAT     H259838   7.720   7.300   3.813
19866WAT      O59839   9.236   8.268   1.656
19866WAT     H159840   9.215   8.172   1.672
19866WAT     H259841   9.314   8.295   1.713
19867WAT      O59842   8.989   3.187   2.906
19867WAT     H159843   8.890   3.181   2.912
19867WAT     H259844   9.026   3.215   2.995
19868WAT      O59845   6.447   9.343   7.248
19868WAT     H159846   6.370   9.283   7.270
19868WAT     H259847   6.421   9.404   7.173
19869WAT      O59848   2.355   1.095   2.820
19869WAT     H159849   2.298   1.039   2.880
19869WAT     H259850   2.298   1.162   2.773
19870WAT      O59851   2.713   7.510   1.592
19870WAT     H159852   2.703   7.547   1.500
19870WAT     H259853   2.624   7.483   1.628
19871WAT      O59854   3.072   4.258   3.066
19871WAT     H159855   3.075   4.348   3.109
19871WAT     H259856   3.165   4.228   3.045
19872WAT      O59857   8.099   7.630   1.568
19872WAT     H159858   8.111   7.610   1.471
19872WAT     H259859   8.153   7.566   1.622
19873WAT      O59860   8.245   5.000   7.129
19873WAT     H159861   8.196   4.981   7.044
19873WAT     H259862   8.190   4.970   7.207
19874WAT      O59863   2.473   6.744   8.389
19874WAT     H159864   2.473   6.702   8.298
19874WAT     H259865   2.560   6.726   8.434
19875WAT      O59866   3.631   3.141   6.124
19875WAT     H159867   3.714   3.197   6.127
19875WAT     H259868   3.556   3.191   6.166
19876WAT      O59869   8.835   5.779   3.934
19876WAT     H159870   8.881   5.831   4.006
19876WAT     H259871   8.818   5.839   3.855
19877WAT      O59872   7.264   9.103   5.914
19877WAT     H159873   7.359   9.121   5.889
19877WAT     H259874   7.206   9.175   5.876
19878WAT      O59875   7.220   3.537   1.654
19878WAT     H159876   7.238   3.439   1.648
19878WAT     H259877   7.139   3.553   1.711
19879WAT      O59878   0.989   0.993   4.297
19879WAT     H159879   0.910   1.044   4.332
19879WAT     H259880   1.024   0.933   4.370
19880WAT      O59881   8.166   9.336   0.657
19880WAT     H159882   8.209   9.349   0.746
19880WAT     H259883   8.223   9.276   0.601
19881WAT      O59884   0.695   7.685   1.229
19881WAT     H159885   0.764   7.743   1.271
19881WAT     H259886   0.644   7.738   1.161
19882WAT      O59887   0.425   9.374   4.494
19882WAT     H159888   0.490   9.400   4.422
19882WAT     H259889   0.461   9.296   4.545
19883WAT      O59890   9.125   1.059   7.330
19883WAT     H159891   9.094   1.154   7.326
19883WAT     H259892   9.067   1.002   7.272
19884WAT      O59893   8.767   4.814   5.185
19884WAT     H159894   8.760   4.823   5.085
19884WAT     H259895   8.796   4.722   5.208
19885WAT      O59896   4.900   5.558   7.291
19885WAT     H159897   4.903   5.567   7.191
19885WAT     H259898   4.911   5.463   7.317
19886WAT      O59899   7.505   6.650   3.044
19886WAT     H159900   7.601   6.640   3.067
19886WAT     H259901   7.496   6.679   2.949
19887WAT      O59902   4.712   7.385   5.356
19887WAT     H159903   4.627   7.338   5.330
19887WAT     H259904   4.723   7.467   5.300
19888WAT      O59905   0.295   8.016   1.453
19888WAT     H159906   0.360   8.079   1.410
19888WAT     H259907   0.345   7.939   1.493
19889WAT      O59908   3.389   3.070   0.993
19889WAT     H159909   3.487   3.092   0.989
19889WAT     H259910   3.336   3.154   0.982
19890WAT      O59911   8.703   5.420   3.733
19890WAT     H159912   8.639   5.377   3.669
19890WAT     H259913   8.669   5.511   3.758
19891WAT      O59914   8.889   2.416   1.967
19891WAT     H159915   8.974   2.417   1.915
19891WAT     H259916   8.836   2.499   1.948
19892WAT      O59917   7.708   6.717   0.558
19892WAT     H159918   7.756   6.699   0.644
19892WAT     H259919   7.762   6.682   0.482
19893WAT      O59920   2.518   2.424   8.044
19893WAT     H159921   2.528   2.438   8.143
19893WAT     H259922   2.543   2.331   8.021
19894WAT      O59923   9.775   7.771   6.026
19894WAT     H159924   9.711   7.774   6.102
19894WAT     H259925   9.737   7.822   5.949
19895WAT      O59926   5.227   9.030   1.383
19895WAT     H159927   5.275   9.088   1.317
19895WAT     H259928   5.193   8.948   1.337
19896WAT      O59929   4.146   5.476   2.186
19896WAT     H159930   4.068   5.510   2.134
19896WAT     H259931   4.196   5.553   2.226
19897WAT      O59932   1.703   7.471   9.609
19897WAT     H159933   1.709   7.568   9.584
19897WAT     H259934   1.656   7.462   9.697
19898WAT      O59935   3.175   5.644   3.188
19898WAT     H159936   3.228   5.650   3.272
19898WAT     H259937   3.205   5.564   3.135
19899WAT      O59938   5.176   9.432   3.812
19899WAT     H159939   5.081   9.403   3.825
19899WAT     H259940   5.238   9.358   3.836
19900WAT      O59941   2.341   5.071   9.187
19900WAT     H159942   2.394   5.073   9.102
19900WAT     H259943   2.323   4.976   9.212
19901WAT      O59944   5.630   6.785   6.532
19901WAT     H159945   5.624   6.705   6.592
19901WAT     H259946   5.723   6.822   6.533
19902WAT      O59947   5.556   0.379   8.368
19902WAT     H159948   5.530   0.284   8.383
19902WAT     H259949   5.522   0.436   8.443
19903WAT      O59950   8.342   5.495   8.275
19903WAT     H159951   8.424   5.547   8.250
19903WAT     H259952   8.367   5.399   8.290
19904WAT      O59953   0.211   7.193   2.618
19904WAT     H159954   0.230   7.278   2.570
19904WAT     H259955   0.117   7.194   2.652
19905WAT      O59956   2.234   1.707   6.012
19905WAT     H159957   2.148   1.756   6.025
19905WAT     H259958   2.224   1.613   6.045
19906WAT      O59959   0.968   8.201   6.281
19906WAT     H159960   0.988   8.292   6.316
19906WAT     H259961   1.006   8.190   6.190
19907WAT      O59962   7.241   8.265   6.711
19907WAT     H159963   7.339   8.251   6.699
19907WAT     H259964   7.193   8.244   6.626
19908WAT      O59965   0.141   1.461   4.461
19908WAT     H159966   0.189   1.526   4.402
19908WAT     H259967   0.063   1.506   4.503
19909WAT      O59968   9.091   1.841   6.368
19909WAT     H159969   9.027   1.852   6.292
19909WAT     H259970   9.097   1.744   6.393
19910WAT      O59971   3.383   8.847   9.199
19910WAT     H159972   3.374   8.876   9.104
19910WAT     H259973   3.323   8.769   9.216
19911WAT      O59974   7.939   0.428   5.128
19911WAT     H159975   7.876   0.440   5.205
19911WAT     H259976   7.888   0.402   5.046
19912WAT      O59977   2.135   7.826   0.186
19912WAT     H159978   2.199   7.903   0.177
19912WAT     H259979   2.144   7.786   0.278
19913WAT      O59980   8.904   4.039   2.268
19913WAT     H159981   8.964   4.086   2.332
19913WAT     H259982   8.856   3.964   2.315
19914WAT      O59983   8.694   1.785   0.335
19914WAT     H159984   8.768   1.787   0.402
19914WAT     H259985   8.716   1.721   0.262
19915WAT      O59986   2.771   8.393   3.935
19915WAT     H159987   2.855   8.362   3.890
19915WAT     H259988   2.792   8.418   4.029
19916WAT      O59989   3.107   3.446   8.679
19916WAT     H159990   3.029   3.504   8.705
19916WAT     H259991   3.141   3.398   8.759
19917WAT      O59992   0.412   1.980   0.083
19917WAT     H159993   0.318   1.995   0.054
19917WAT     H259994   0.430   2.030   0.168
19918WAT      O59995   9.042   8.651   4.108
19918WAT     H159996   9.011   8.557   4.100
19918WAT     H259997   9.139   8.653   4.134
19919WAT      O59998   7.897   4.815   3.037
19919WAT     H159999   7.879   4.838   2.941
19919WAT     H260000   7.962   4.739   3.041
19920WAT      O60001   0.256   6.567   3.592
19920WAT     H160002   0.277   6.617   3.508
19920WAT     H260003   0.338   6.563   3.650
19921WAT      O60004   1.045   4.404   9.588
19921WAT     H160005   1.104   4.411   9.669
19921WAT     H260006   1.101   4.417   9.506
19922WAT      O60007   0.197   4.871   1.709
19922WAT     H160008   0.196   4.949   1.647
19922WAT     H260009   0.235   4.899   1.798
19923WAT      O60010   3.468   5.958   2.842
19923WAT     H160011   3.410   5.976   2.763
19923WAT     H260012   3.461   5.861   2.867
19924WAT      O60013   1.921   4.419   9.371
19924WAT     H160014   2.017   4.430   9.394
19924WAT     H260015   1.897   4.480   9.295
19925WAT      O60016   9.095   0.975   5.144
19925WAT     H160017   9.089   1.004   5.048
19925WAT     H260018   9.164   1.031   5.191
19926WAT      O60019   6.346   6.111   4.772
19926WAT     H160020   6.258   6.078   4.738
19926WAT     H260021   6.360   6.205   4.742
19927WAT      O60022   1.085   4.607   6.166
19927WAT     H160023   1.057   4.534   6.228
19927WAT     H260024   1.029   4.603   6.083
19928WAT      O60025   8.263   8.599   2.837
19928WAT     H160026   8.305   8.557   2.918
19928WAT     H260027   8.172   8.633   2.860
19929WAT      O60028   0.873   4.323   0.685
19929WAT     H160029   0.834   4.409   0.719
19929WAT     H260030   0.864   4.253   0.755
19930WAT      O60031   3.956   6.725   2.606
19930WAT     H160032   3.864   6.720   2.568
19930WAT     H260033   3.988   6.819   2.604
19931WAT      O60034   9.840   5.572   2.998
19931WAT     H160035   9.843   5.618   3.087
19931WAT     H260036   9.870   5.477   3.008
19932WAT      O60037   3.114   4.967   2.003
19932WAT     H160038   3.098   5.058   1.964
19932WAT     H260039   3.053   4.952   2.081
19933WAT      O60040   1.902   8.175   7.194
19933WAT     H160041   1.875   8.271   7.204
19933WAT     H260042   1.822   8.116   7.203
19934WAT      O60043   7.456   0.315   1.389
19934WAT     H160044   7.474   0.241   1.324
19934WAT     H260045   7.371   0.295   1.438
19935WAT      O60046   0.088   7.088   4.868
19935WAT     H160047   0.060   7.120   4.958
19935WAT     H260048   0.056   6.994   4.855
19936WAT      O60049   4.069   6.564   2.393
19936WAT     H160050   4.032   6.636   2.333
19936WAT     H260051   4.070   6.597   2.487
19937WAT      O60052   9.381   8.971   0.864
19937WAT     H160053   9.287   8.938   0.853
19937WAT     H260054   9.390   9.061   0.823
19938WAT      O60055   2.209   3.183   6.220
19938WAT     H160056   2.143   3.149   6.287
19938WAT     H260057   2.163   3.196   6.132
19939WAT      O60058   2.422   4.104   3.791
19939WAT     H160059   2.394   4.146   3.877
19939WAT     H260060   2.420   4.173   3.719
19940WAT      O60061   7.737   7.584   9.439
19940WAT     H160062   7.812   7.609   9.500
19940WAT     H260063   7.737   7.645   9.360
19941WAT      O60064   5.254   5.951   4.315
19941WAT     H160065   5.165   5.983   4.348
19941WAT     H260066   5.322   6.023   4.325
19942WAT      O60067   2.303   9.168   7.115
19942WAT     H160068   2.327   9.262   7.091
19942WAT     H260069   2.279   9.163   7.212
19943WAT      O60070   5.775   9.513   4.793
19943WAT     H160071   5.804   9.422   4.760
19943WAT     H260072   5.846   9.580   4.771
19944WAT      O60073   5.333   3.840   0.394
19944WAT     H160074   5.413   3.783   0.376
19944WAT     H260075   5.358   3.915   0.455
19945WAT      O60076   2.237   7.170   1.302
19945WAT     H160077   2.287   7.202   1.383
19945WAT     H260078   2.192   7.083   1.323
19946WAT      O60079   8.100   7.185   6.158
19946WAT     H160080   8.018   7.192   6.102
19946WAT     H260081   8.128   7.276   6.187
19947WAT      O60082   4.177   4.207   7.264
19947WAT     H160083   4.133   4.183   7.178
19947WAT     H260084   4.153   4.302   7.288
19948WAT      O60085   0.349   7.228   3.490
19948WAT     H160086   0.413   7.208   3.416
19948WAT     H260087   0.292   7.148   3.508
19949WAT      O60088   0.294   0.256   7.227
19949WAT     H160089   0.303   0.174   7.170
19949WAT     H260090   0.215   0.309   7.195
19950WAT      O60091   0.845   7.828   9.226
19950WAT     H160092   0.758   7.874   9.209
19950WAT     H260093   0.829   7.730   9.238
19951WAT      O60094   6.161   3.877   2.597
19951WAT     H160095   6.249   3.833   2.613
19951WAT     H260096   6.171   3.976   2.608
19952WAT      O60097   8.809   8.855   1.173
19952WAT     H160098   8.756   8.923   1.122
19952WAT     H260099   8.828   8.891   1.265
19953WAT      O60100   4.976   5.688   1.197
19953WAT     H160101   4.958   5.771   1.250
19953WAT     H260102   4.895   5.629   1.199
19954WAT      O60103   6.260   5.539   3.494
19954WAT     H160104   6.221   5.619   3.541
19954WAT     H260105   6.320   5.570   3.420
19955WAT      O60106   2.477   0.003   6.778
19955WAT     H160107   2.404   0.068   6.756
19955WAT     H260108   2.552   0.051   6.823
19956WAT      O60109   3.633   6.028   4.433
19956WAT     H160110   3.575   6.106   4.411
19956WAT     H260111   3.650   5.974   4.350
19957WAT      O60112   0.929   1.473   8.835
19957WAT     H160113   0.834   1.445   8.851
19957WAT     H260114   0.968   1.414   8.764
19958WAT      O60115   2.266   1.968   2.835
19958WAT     H160116   2.347   2.004   2.881
19958WAT     H260117   2.252   2.018   2.749
19959WAT      O60118   9.753   3.713   3.415
19959WAT     H160119   9.657   3.738   3.402
19959WAT     H260120   9.806   3.735   3.333
19960WAT      O60121   2.632   4.463   4.366
19960WAT     H160122   2.596   4.406   4.292
19960WAT     H260123   2.572   4.457   4.445
19961WAT      O60124   1.566   4.367   2.770
19961WAT     H160125   1.471   4.340   2.784
19961WAT     H260126   1.582   4.456   2.811
19962WAT      O60127   1.983   1.528   1.625
19962WAT     H160128   1.913   1.549   1.558
19962WAT     H260129   2.072   1.523   1.580
19963WAT      O60130   2.412   0.815   7.243
19963WAT     H160131   2.361   0.848   7.322
19963WAT     H260132   2.405   0.715   7.238
19964WAT      O60133   0.414   8.792   6.444
19964WAT     H160134   0.343   8.799   6.374
19964WAT     H260135   0.475   8.871   6.438
19965WAT      O60136   2.076   3.423   7.903
19965WAT     H160137   2.079   3.498   7.836
19965WAT     H260138   2.020   3.348   7.866
19966WAT      O60139   7.659   7.085   0.505
19966WAT     H160140   7.617   7.108   0.417
19966WAT     H260141   7.736   7.023   0.490
19967WAT      O60142   2.677   3.009   1.033
19967WAT     H160143   2.722   2.948   0.967
19967WAT     H260144   2.658   3.097   0.989
19968WAT      O60145   1.195   2.642   5.173
19968WAT     H160146   1.265   2.605   5.111
19968WAT     H260147   1.146   2.567   5.217
19969WAT      O60148   6.655   4.462   9.792
19969WAT     H160149   6.716   4.405   9.737
19969WAT     H260150   6.562   4.455   9.755
19970WAT      O60151   0.409   5.381   0.212
19970WAT     H160152   0.487   5.413   0.158
19970WAT     H260153   0.335   5.447   0.205
19971WAT      O60154   6.871   7.156   8.608
19971WAT     H160155   6.833   7.143   8.700
19971WAT     H260156   6.797   7.175   8.543
19972WAT      O60157   8.426   9.057   6.465
19972WAT     H160158   8.501   8.998   6.435
19972WAT     H260159   8.339   9.007   6.457
19973WAT      O60160   9.076   0.472   0.063
19973WAT     H160161   9.158   0.415   0.072
19973WAT     H260162   9.095   0.564   0.099
19974WAT      O60163   0.736   9.507   2.934
19974WAT     H160164   0.711   9.428   2.991
19974WAT     H260165   0.835   9.518   2.935
19975WAT      O60166   1.693   9.055   4.645
19975WAT     H160167   1.644   9.089   4.565
19975WAT     H260168   1.750   8.977   4.619
19976WAT      O60169   7.346   0.368   1.050
19976WAT     H160170   7.429   0.402   1.096
19976WAT     H260171   7.268   0.425   1.077
19977WAT      O60172   8.773   6.958   3.550
19977WAT     H160173   8.857   7.010   3.534
19977WAT     H260174   8.696   7.005   3.506
19978WAT      O60175   0.525   2.681   1.422
19978WAT     H160176   0.428   2.676   1.400
19978WAT     H260177   0.575   2.616   1.364
19979WAT      O60178   4.275   6.278   7.145
19979WAT     H160179   4.354   6.237   7.192
19979WAT     H260180   4.225   6.337   7.208
19980WAT      O60181   7.760   8.314   0.956
19980WAT     H160182   7.721   8.241   0.901
19980WAT     H260183   7.725   8.402   0.925
19981WAT      O60184   7.142   7.189   0.062
19981WAT     H160185   7.107   7.132  -0.012
19981WAT     H260186   7.147   7.136   0.146
19982WAT      O60187   9.165   7.742   1.384
19982WAT     H160188   9.087   7.691   1.347
19982WAT     H260189   9.157   7.838   1.358
19983WAT      O60190   6.799   2.862   0.690
19983WAT     H160191   6.848   2.876   0.603
19983WAT     H260192   6.769   2.767   0.696
19984WAT      O60193   6.389   1.267   0.206
19984WAT     H160194   6.418   1.347   0.152
19984WAT     H260195   6.328   1.211   0.150
19985WAT      O60196   5.818   4.149   9.228
19985WAT     H160197   5.910   4.184   9.211
19985WAT     H260198   5.820   4.087   9.307
19986WAT      O60199   4.885   4.285   3.368
19986WAT     H160200   4.815   4.229   3.323
19986WAT     H260201   4.962   4.226   3.394
19987WAT      O60202   8.070   7.145   8.232
19987WAT     H160203   8.149   7.137   8.171
19987WAT     H260204   8.035   7.054   8.253
19988WAT      O60205   5.312   1.995   7.647
19988WAT     H160206   5.315   1.952   7.557
19988WAT     H260207   5.232   2.055   7.652
19989WAT      O60208   6.448   3.934   3.624
19989WAT     H160209   6.528   3.921   3.565
19989WAT     H260210   6.426   3.848   3.669
19990WAT      O60211   5.213   6.264   6.212
19990WAT     H160212   5.135   6.205   6.232
19990WAT     H260213   5.181   6.358   6.202
19991WAT      O60214   2.929   4.673   3.472
19991WAT     H160215   3.007   4.620   3.504
19991WAT     H260216   2.940   4.769   3.499
19992WAT      O60217   7.732   7.324   7.689
19992WAT     H160218   7.633   7.340   7.688
19992WAT     H260219   7.773   7.362   7.606
19993WAT      O60220   5.271   7.962   6.042
19993WAT     H160221   5.207   7.907   5.990
19993WAT     H260222   5.365   7.932   6.024
19994WAT      O60223   0.298   7.226   6.127
19994WAT     H160224   0.306   7.324   6.146
19994WAT     H260225   0.362   7.201   6.053
19995WAT      O60226   0.536   2.649   6.861
19995WAT     H160227   0.492   2.561   6.847
19995WAT     H260228   0.489   2.699   6.934
19996WAT      O60229   1.654   9.218   5.025
19996WAT     H160230   1.742   9.170   5.023
19996WAT     H260231   1.634   9.245   5.120
19997WAT      O60232   3.829   2.879   4.306
19997WAT     H160233   3.825   2.789   4.262
19997WAT     H260234   3.749   2.890   4.365
19998WAT      O60235   8.938   1.499   3.865
19998WAT     H160236   9.028   1.535   3.893
19998WAT     H260237   8.920   1.413   3.913
19999WAT      O60238   2.934   4.322   8.898
19999WAT     H160239   2.931   4.398   8.963
19999WAT     H260240   3.026   4.312   8.862
20000WAT      O60241   3.928   3.180   9.456
20000WAT     H160242   4.009   3.234   9.430
20000WAT     H260243   3.937   3.088   9.419
20001WAT      O60244   9.269   6.959   2.924
20001WAT     H160245   9.258   6.902   2.842
20001WAT     H260246   9.353   7.013   2.915
20002WAT      O60247   8.100   9.191   4.623
20002WAT     H160248   8.109   9.284   4.589
20002WAT     H260249   8.028   9.144   4.572
20003WAT      O60250   0.993   8.625   6.128
20003WAT     H160251   1.088   8.593   6.129
20003WAT     H260252   0.975   8.677   6.212
20004WAT      O60253   4.876   8.448   1.123
20004WAT     H160254   4.933   8.374   1.159
20004WAT     H260255   4.850   8.426   1.029
20005WAT      O60256   6.288   4.787   1.453
20005WAT     H160257   6.367   4.848   1.466
20005WAT     H260258   6.219   4.807   1.523
20006WAT      O60259   6.018   3.932   5.112
20006WAT     H160260   5.987   3.861   5.049
20006WAT     H260261   6.017   3.897   5.205
20007WAT      O60262   1.972   9.267   5.633
20007WAT     H160263   1.936   9.355   5.663
20007WAT     H260264   2.028   9.228   5.706
20008WAT      O60265   0.189   4.566   5.163
20008WAT     H160266   0.190   4.658   5.123
20008WAT     H260267   0.103   4.552   5.213
20009WAT      O60268   7.907   1.992   7.039
20009WAT     H160269   7.848   2.060   7.082
20009WAT     H260270   8.000   2.000   7.076
20010WAT      O60271   4.490   0.654   4.603
20010WAT     H160272   4.589   0.643   4.603
20010WAT     H260273   4.458   0.672   4.696
20011WAT      O60274   7.300   3.913   0.604
20011WAT     H160275   7.387   3.938   0.648
20011WAT     H260276   7.285   3.815   0.614
20012WAT      O60277   8.940   5.767   6.164
20012WAT     H160278   8.908   5.816   6.245
20012WAT     H260279   9.028   5.805   6.135
20013WAT      O60280   6.453   0.323   8.846
20013WAT     H160281   6.367   0.278   8.819
20013WAT     H260282   6.458   0.413   8.803
20014WAT      O60283   1.929   1.599   4.697
20014WAT     H160284   1.881   1.600   4.609
20014WAT     H260285   1.869   1.637   4.767
20015WAT      O60286   6.246   7.414   4.727
20015WAT     H160287   6.234   7.472   4.808
20015WAT     H260288   6.260   7.471   4.646
20016WAT      O60289   7.722   6.925   8.506
20016WAT     H160290   7.693   6.843   8.458
20016WAT     H260291   7.722   6.908   8.605
20017WAT      O60292   2.646   2.942   8.153
20017WAT     H160293   2.549   2.918   8.150
20017WAT     H260294   2.676   2.952   8.248
20018WAT      O60295   7.089   5.262   9.505
20018WAT     H160296   7.135   5.344   9.539
20018WAT     H260297   7.025   5.227   9.574
20019WAT      O60298   8.292   0.360   2.091
20019WAT     H160299   8.377   0.321   2.125
20019WAT     H260300   8.280   0.452   2.130
20020WAT      O60301   6.836   8.637   7.947
20020WAT     H160302   6.741   8.660   7.928
20020WAT     H260303   6.854   8.543   7.921
20021WAT      O60304   4.973   7.111   1.292
20021WAT     H160305   5.063   7.094   1.331
20021WAT     H260306   4.923   7.024   1.285
20022WAT      O60307   3.066   9.370   8.432
20022WAT     H160308   3.044   9.401   8.339
20022WAT     H260309   2.984   9.329   8.473
20023WAT      O60310   0.824   0.512   2.924
20023WAT     H160311   0.883   0.560   2.860
20023WAT     H260312   0.759   0.576   2.964
20024WAT      O60313   3.653   2.505   8.969
20024WAT     H160314   3.555   2.486   8.973
20024WAT     H260315   3.704   2.424   8.999
20025WAT      O60316   5.163   1.941   1.145
20025WAT     H160317   5.200   2.030   1.173
20025WAT     H260318   5.095   1.955   1.073
20026WAT      O60319   2.075   7.536   2.396
20026WAT     H160320   2.099   7.631   2.411
20026WAT     H260321   2.149   7.477   2.431
20027WAT      O60322   1.272   4.654   8.506
20027WAT     H160323   1.366   4.664   8.540
20027WAT     H260324   1.209   4.658   8.583
20028WAT      O60325   8.006   0.009   7.260
20028WAT     H160326   7.937  -0.051   7.220
20028WAT     H260327   8.067  -0.043   7.319
20029WAT      O60328   9.469   9.149   8.193
20029WAT     H160329   9.415   9.080   8.145
20029WAT     H260330   9.557   9.111   8.219
20030WAT      O60331   4.140   7.073   5.406
20030WAT     H160332   4.212   7.029   5.461
20030WAT     H260333   4.113   7.159   5.449
20031WAT      O60334   3.485   2.219   1.768
20031WAT     H160335   3.580   2.229   1.738
20031WAT     H260336   3.476   2.253   1.862
20032WAT      O60337   9.439   6.305   0.106
20032WAT     H160338   9.498   6.348   0.173
20032WAT     H260339   9.344   6.308   0.137
20033WAT      O60340   3.383   6.727   9.236
20033WAT     H160341   3.296   6.695   9.275
20033WAT     H260342   3.438   6.648   9.208
20034WAT      O60343   4.540   6.659   1.489
20034WAT     H160344   4.512   6.752   1.467
20034WAT     H260345   4.470   6.594   1.458
20035WAT      O60346   1.117   1.707   1.640
20035WAT     H160347   1.089   1.615   1.614
20035WAT     H260348   1.110   1.768   1.560
20036WAT      O60349   5.012   8.673   7.366
20036WAT     H160350   5.015   8.741   7.440
20036WAT     H260351   4.940   8.698   7.301
20037WAT      O60352   7.659   3.085   9.372
20037WAT     H160353   7.652   3.131   9.460
20037WAT     H260354   7.689   3.150   9.302
20038WAT      O60355   1.402   0.791   3.440
20038WAT     H160356   1.373   0.865   3.380
20038WAT     H260357   1.387   0.703   3.395
20039WAT      O60358   7.327   2.429   8.706
20039WAT     H160359   7.301   2.333   8.699
20039WAT     H260360   7.424   2.435   8.730
20040WAT      O60361   9.870   9.035   4.453
20040WAT     H160362   9.774   9.062   4.458
20040WAT     H260363   9.886   8.980   4.371
20041WAT      O60364   6.226   9.112   6.071
20041WAT     H160365   6.224   9.192   6.132
20041WAT     H260366   6.145   9.113   6.013
20042WAT      O60367   4.567   3.414   1.124
20042WAT     H160368   4.523   3.325   1.112
20042WAT     H260369   4.644   3.422   1.061
20043WAT      O60370   8.773   8.276   9.260
20043WAT     H160371   8.735   8.193   9.218
20043WAT     H260372   8.858   8.252   9.308
20044WAT      O60373   0.631   6.301   6.214
20044WAT     H160374   0.567   6.370   6.249
20044WAT     H260375   0.644   6.314   6.116
20045WAT      O60376   1.466   0.943   3.690
20045WAT     H160377   1.479   0.908   3.597
20045WAT     H260378   1.451   1.042   3.686
20046WAT      O60379   2.835   7.289   9.032
20046WAT     H160380   2.809   7.385   9.015
20046WAT     H260381   2.752   7.234   9.042
20047WAT      O60382   0.158   3.742   5.055
20047WAT     H160383   0.219   3.821   5.046
20047WAT     H260384   0.069   3.763   5.015
20048WAT      O60385   6.149   0.489   7.399
20048WAT     H160386   6.220   0.556   7.419
20048WAT     H260387   6.192   0.404   7.367
20049WAT      O60388   2.961   2.741   9.610
20049WAT     H160389   3.030   2.687   9.561
20049WAT     H260390   2.892   2.681   9.649
20050WAT      O60391   2.046   7.115   2.037
20050WAT     H160392   2.077   7.024   2.063
20050WAT     H260393   2.080   7.183   2.102
20051WAT      O60394   1.520   1.814   6.977
20051WAT     H160395   1.611   1.849   6.998
20051WAT     H260396   1.454   1.852   7.042
20052WAT      O60397   8.300   1.090   8.450
20052WAT     H160398   8.369   1.060   8.516
20052WAT     H260399   8.247   1.011   8.418
20053WAT      O60400   3.701   1.397   9.713
20053WAT     H160401   3.636   1.449   9.768
20053WAT     H260402   3.771   1.459   9.677
20054WAT      O60403   2.500   8.703   5.129
20054WAT     H160404   2.569   8.772   5.151
20054WAT     H260405   2.544   8.613   5.120
20055WAT      O60406   1.844   4.413   7.737
20055WAT     H160407   1.914   4.440   7.804
20055WAT     H260408   1.808   4.323   7.761
20056WAT      O60409   7.504   6.142   0.398
20056WAT     H160410   7.572   6.080   0.435
20056WAT     H260411   7.517   6.233   0.437
20057WAT      O60412   7.021   7.088   0.652
20057WAT     H160413   6.924   7.114   0.655
20057WAT     H260414   7.068   7.127   0.731
20058WAT      O60415   8.173   8.564   9.701
20058WAT     H160416   8.152   8.661   9.713
20058WAT     H260417   8.269   8.548   9.725
20059WAT      O60418   9.060   9.077   9.843
20059WAT     H160419   9.099   9.149   9.785
20059WAT     H260420   8.961   9.071   9.826
20060WAT      O60421   1.930   6.621   7.237
20060WAT     H160422   1.982   6.542   7.272
20060WAT     H260423   1.887   6.597   7.151
20061WAT      O60424   2.913   8.454   5.579
20061WAT     H160425   2.830   8.400   5.564
20061WAT     H260426   2.990   8.411   5.532
20062WAT      O60427   3.104   5.706   9.313
20062WAT     H160428   3.043   5.673   9.241
20062WAT     H260429   3.083   5.802   9.332
20063WAT      O60430   5.143   5.962   0.926
20063WAT     H160431   5.157   5.985   1.023
20063WAT     H260432   5.127   6.046   0.875
20064WAT      O60433   8.866   6.619   4.029
20064WAT     H160434   8.773   6.651   4.048
20064WAT     H260435   8.861   6.529   3.984
20065WAT      O60436   6.017   1.597   2.103
20065WAT     H160437   5.990   1.612   2.198
20065WAT     H260438   6.063   1.509   2.094
20066WAT      O60439   7.254   0.414   9.825
20066WAT     H160440   7.192   0.339   9.846
20066WAT     H260441   7.220   0.499   9.866
20067WAT      O60442   5.807   1.690   1.128
20067WAT     H160443   5.713   1.704   1.158
20067WAT     H260444   5.833   1.763   1.065
20068WAT      O60445   0.398   9.002   8.190
20068WAT     H160446   0.364   8.968   8.102
20068WAT     H260447   0.439   8.926   8.241
20069WAT      O60448   4.325   8.274   5.828
20069WAT     H160449   4.409   8.227   5.800
20069WAT     H260450   4.337   8.313   5.919
20070WAT      O60451   3.731   7.202   5.933
20070WAT     H160452   3.794   7.133   5.967
20070WAT     H260453   3.774   7.252   5.857
20071WAT      O60454   1.530   6.625   8.111
20071WAT     H160455   1.474   6.705   8.089
20071WAT     H260456   1.495   6.583   8.195
20072WAT      O60457   4.997   0.287   2.737
20072WAT     H160458   4.971   0.312   2.830
20072WAT     H260459   5.097   0.291   2.729
20073WAT      O60460   7.241   9.826   2.504
20073WAT     H160461   7.302   9.856   2.577
20073WAT     H260462   7.175   9.898   2.483
20074WAT      O60463   2.553   4.813   2.509
20074WAT     H160464   2.619   4.883   2.538
20074WAT     H260465   2.511   4.840   2.423
20075WAT      O60466   8.307   9.045   9.778
20075WAT     H160467   8.320   9.056   9.877
20075WAT     H260468   8.387   9.000   9.739
20076WAT      O60469   0.880   6.927   1.058
20076WAT     H160470   0.792   6.958   1.022
20076WAT     H260471   0.881   6.827   1.064
20077WAT      O60472   1.454   8.179   7.548
20077WAT     H160473   1.405   8.259   7.513
20077WAT     H260474   1.456   8.108   7.477
20078WAT      O60475   4.437   5.547   6.133
20078WAT     H160476   4.467   5.496   6.053
20078WAT     H260477   4.423   5.643   6.108
20079WAT      O60478   8.004   4.175   1.588
20079WAT     H160479   8.028   4.268   1.615
20079WAT     H260480   7.931   4.141   1.646
20080WAT      O60481   7.464   3.642   1.532
20080WAT     H160482   7.385   3.629   1.592
20080WAT     H260483   7.463   3.572   1.460
20081WAT      O60484   0.027   6.764   7.158
20081WAT     H160485   0.046   6.862   7.166
20081WAT     H260486  -0.050   6.750   7.096
20082WAT      O60487   3.414   7.084   2.611
20082WAT     H160488   3.393   7.173   2.652
20082WAT     H260489   3.343   7.018   2.634
20083WAT      O60490   4.471   3.238   5.249
20083WAT     H160491   4.375   3.267   5.249
20083WAT     H260492   4.499   3.217   5.343
20084WAT      O60493   7.061   5.682   8.605
20084WAT     H160494   7.004   5.672   8.687
20084WAT     H260495   7.090   5.777   8.596
20085WAT      O60496   1.071   9.463   1.555
20085WAT     H160497   1.091   9.534   1.622
20085WAT     H260498   0.973   9.462   1.535
20086WAT      O60499   2.227   2.307   6.014
20086WAT     H160500   2.130   2.328   6.026
20086WAT     H260501   2.280   2.361   6.080
20087WAT      O60502   8.031   5.900   3.441
20087WAT     H160503   7.972   5.943   3.509
20087WAT     H260504   8.092   5.835   3.486
20088WAT      O60505   6.436   8.263   0.650
20088WAT     H160506   6.513   8.222   0.603
20088WAT     H260507   6.449   8.362   0.656
20089WAT      O60508   8.028   7.551   4.439
20089WAT     H160509   8.053   7.487   4.512
20089WAT     H260510   7.982   7.501   4.366
20090WAT      O60511   1.123   7.394   4.747
20090WAT     H160512   1.051   7.383   4.680
20090WAT     H260513   1.083   7.412   4.837
20091WAT      O60514   9.816   9.786   8.573
20091WAT     H160515   9.728   9.748   8.545
20091WAT     H260516   9.808   9.886   8.578
20092WAT      O60517   0.180   2.628   7.030
20092WAT     H160518   0.261   2.629   7.088
20092WAT     H260519   0.098   2.629   7.087
20093WAT      O60520   1.601   0.232   2.449
20093WAT     H160521   1.669   0.210   2.378
20093WAT     H260522   1.513   0.251   2.406
20094WAT      O60523   0.185   2.147   3.817
20094WAT     H160524   0.100   2.112   3.777
20094WAT     H260525   0.163   2.195   3.903
20095WAT      O60526   8.209   8.618   5.515
20095WAT     H160527   8.248   8.613   5.422
20095WAT     H260528   8.229   8.533   5.563
20096WAT      O60529   3.267   2.161   1.108
20096WAT     H160530   3.278   2.187   1.012
20096WAT     H260531   3.175   2.183   1.139
20097WAT      O60532   1.747   7.351   1.491
20097WAT     H160533   1.732   7.353   1.590
20097WAT     H260534   1.838   7.387   1.470
20098WAT      O60535   8.330   4.730   8.854
20098WAT     H160536   8.337   4.766   8.947
20098WAT     H260537   8.416   4.747   8.805
20099WAT      O60538   2.092   1.227   3.163
20099WAT     H160539   2.077   1.262   3.256
20099WAT     H260540   2.104   1.304   3.100
20100WAT      O60541   7.659   0.753   3.704
20100WAT     H160542   7.746   0.710   3.727
20100WAT     H260543   7.661   0.783   3.608
20101WAT      O60544   7.911   0.785   2.088
20101WAT     H160545   7.931   0.830   2.001
20101WAT     H260546   7.812   0.780   2.102
20102WAT      O60547   5.708   1.983   2.435
20102WAT     H160548   5.623   1.982   2.382
20102WAT     H260549   5.693   1.940   2.524
20103WAT      O60550   3.607   1.043   2.335
20103WAT     H160551   3.534   1.007   2.392
20103WAT     H260552   3.584   1.027   2.238
20104WAT      O60553   3.899   7.009   9.475
20104WAT     H160554   3.957   7.079   9.432
20104WAT     H260555   3.896   6.928   9.416
20105WAT      O60556   8.676   2.907   1.061
20105WAT     H160557   8.584   2.932   1.032
20105WAT     H260558   8.715   2.841   0.997
20106WAT      O60559   6.693   3.937   6.322
20106WAT     H160560   6.755   3.939   6.400
20106WAT     H260561   6.719   3.863   6.260
20107WAT      O60562   1.507   5.479   1.590
20107WAT     H160563   1.536   5.405   1.650
20107WAT     H260564   1.500   5.564   1.643
20108WAT      O60565   6.891   3.561   6.437
20108WAT     H160566   6.981   3.537   6.400
20108WAT     H260567   6.876   3.659   6.427
20109WAT      O60568   3.826   3.813   3.815
20109WAT     H160569   3.813   3.872   3.895
20109WAT     H260570   3.871   3.865   3.743
20110WAT      O60571   2.747   5.322   8.702
20110WAT     H160572   2.788   5.242   8.745
20110WAT     H260573   2.657   5.339   8.743
20111WAT      O60574   5.448   7.171   4.873
20111WAT     H160575   5.402   7.135   4.955
20111WAT     H260576   5.510   7.245   4.900
20112WAT      O60577   2.246   1.573   0.608
20112WAT     H160578   2.284   1.632   0.679
20112WAT     H260579   2.256   1.617   0.519
20113WAT      O60580   4.148   7.635   4.589
20113WAT     H160581   4.091   7.615   4.509
20113WAT     H260582   4.242   7.653   4.559
20114WAT      O60583   0.528   7.231   5.951
20114WAT     H160584   0.573   7.153   5.906
20114WAT     H260585   0.590   7.271   6.018
20115WAT      O60586   7.642   9.336   3.952
20115WAT     H160587   7.554   9.291   3.944
20115WAT     H260588   7.663   9.383   3.866
20116WAT      O60589   1.484   2.476   2.295
20116WAT     H160590   1.452   2.549   2.236
20116WAT     H260591   1.446   2.488   2.387
20117WAT      O60592   7.837   5.843   6.796
20117WAT     H160593   7.765   5.820   6.862
20117WAT     H260594   7.923   5.859   6.845
20118WAT      O60595   9.192   4.430   1.289
20118WAT     H160596   9.290   4.440   1.273
20118WAT     H260597   9.170   4.334   1.305
20119WAT      O60598   7.640   8.761   3.910
20119WAT     H160599   7.661   8.770   4.008
20119WAT     H260600   7.723   8.734   3.861
20120WAT      O60601   2.194   8.249   8.709
20120WAT     H160602   2.116   8.240   8.770
20120WAT     H260603   2.202   8.344   8.678
20121WAT      O60604   5.241   4.780   2.318
20121WAT     H160605   5.187   4.839   2.378
20121WAT     H260606   5.253   4.823   2.229
20122WAT      O60607   7.952   6.243   4.484
20122WAT     H160608   7.854   6.225   4.485
20122WAT     H260609   7.973   6.315   4.550
20123WAT      O60610   2.529   0.958   4.973
20123WAT     H160611   2.515   1.046   5.019
20123WAT     H260612   2.625   0.931   4.984
20124WAT      O60613   3.190   1.720   5.525
20124WAT     H160614   3.149   1.634   5.556
20124WAT     H260615   3.236   1.705   5.437
20125WAT      O60616   5.063   2.473   5.788
20125WAT     H160617   5.090   2.376   5.793
20125WAT     H260618   4.965   2.481   5.809
20126WAT      O60619   3.422   9.348   9.553
20126WAT     H160620   3.508   9.316   9.593
20126WAT     H260621   3.383   9.276   9.495
20127WAT      O60622   5.038   0.402   8.097
20127WAT     H160623   5.044   0.494   8.060
20127WAT     H260624   4.963   0.397   8.163
20128WAT      O60625   9.637   8.624   1.090
20128WAT     H160626   9.716   8.677   1.122
20128WAT     H260627   9.667   8.533   1.061
20129WAT      O60628   6.500   1.345   7.776
20129WAT     H160629   6.564   1.412   7.739
20129WAT     H260630   6.424   1.332   7.713
20130WAT      O60631   2.709   0.045   0.216
20130WAT     H160632   2.669   0.050   0.125
20130WAT     H260633   2.663   0.110   0.277
20131WAT      O60634   2.118   7.090   3.341
20131WAT     H160635   2.173   7.117   3.261
20131WAT     H260636   2.084   6.997   3.328
20132WAT      O60637   6.879   9.342   0.818
20132WAT     H160638   6.811   9.416   0.814
20132WAT     H260639   6.847   9.271   0.880
20133WAT      O60640   8.031   6.611   6.659
20133WAT     H160641   8.021   6.703   6.697
20133WAT     H260642   7.994   6.544   6.724
20134WAT      O60643   2.281   5.992   9.223
20134WAT     H160644   2.244   5.904   9.194
20134WAT     H260645   2.318   6.041   9.144
20135WAT      O60646   4.826   2.915   2.876
20135WAT     H160647   4.737   2.905   2.831
20135WAT     H260648   4.826   2.863   2.961
20136WAT      O60649   4.352   3.736   2.925
20136WAT     H160650   4.273   3.766   2.979
20136WAT     H260651   4.325   3.658   2.868
20137WAT      O60652   5.171   2.926   9.851
20137WAT     H160653   5.097   2.873   9.809
20137WAT     H260654   5.243   2.864   9.882
20138WAT      O60655   7.262   1.865   4.123
20138WAT     H160656   7.196   1.829   4.189
20138WAT     H260657   7.305   1.789   4.075
20139WAT      O60658   2.702   4.623   6.003
20139WAT     H160659   2.675   4.682   6.079
20139WAT     H260660   2.684   4.670   5.917
20140WAT      O60661   9.452   6.572   2.449
20140WAT     H160662   9.363   6.560   2.405
20140WAT     H260663   9.461   6.666   2.481
20141WAT      O60664   7.868   0.485   8.146
20141WAT     H160665   7.865   0.493   8.046
20141WAT     H260666   7.778   0.506   8.184
20142WAT      O60667   5.801   0.626   2.309
20142WAT     H160668   5.873   0.681   2.265
20142WAT     H260669   5.771   0.671   2.393
20143WAT      O60670   7.327   9.074   2.794
20143WAT     H160671   7.391   9.089   2.719
20143WAT     H260672   7.296   9.162   2.830
20144WAT      O60673   0.505   3.385   2.108
20144WAT     H160674   0.541   3.340   2.189
20144WAT     H260675   0.571   3.452   2.074
20145WAT      O60676   3.411   6.658   3.098
20145WAT     H160677   3.381   6.589   3.165
20145WAT     H260678   3.497   6.698   3.128
20146WAT      O60679   1.414   7.323   2.970
20146WAT     H160680   1.434   7.250   3.035
20146WAT     H260681   1.402   7.409   3.019
20147WAT      O60682   2.521   6.006   6.059
20147WAT     H160683   2.457   5.936   6.090
20147WAT     H260684   2.504   6.026   5.962
20148WAT      O60685   5.473   2.880   4.647
20148WAT     H160686   5.528   2.909   4.568
20148WAT     H260687   5.386   2.929   4.646
20149WAT      O60688   5.442   4.050   8.840
20149WAT     H160689   5.424   4.040   8.938
20149WAT     H260690   5.520   4.111   8.827
20150WAT      O60691   5.980   4.389   7.519
20150WAT     H160692   5.974   4.389   7.619
20150WAT     H260693   6.022   4.475   7.488
20151WAT      O60694   7.441   6.346   0.897
20151WAT     H160695   7.521   6.399   0.871
20151WAT     H260696   7.469   6.258   0.934
20152WAT      O60697   7.652   4.522   0.751
20152WAT     H160698   7.629   4.619   0.749
20152WAT     H260699   7.572   4.470   0.782
20153WAT      O60700   8.361   6.993   5.757
20153WAT     H160701   8.457   6.967   5.768
20153WAT     H260702   8.352   7.052   5.677
20154WAT      O60703   4.998   6.491   6.801
20154WAT     H160704   5.086   6.478   6.847
20154WAT     H260705   5.013   6.511   6.704
20155WAT      O60706   3.534   4.920   4.719
20155WAT     H160707   3.602   4.980   4.762
20155WAT     H260708   3.505   4.851   4.785
20156WAT      O60709   1.030   9.311   0.108
20156WAT     H160710   1.075   9.236   0.157
20156WAT     H260711   1.060   9.311   0.012
20157WAT      O60712   7.363   8.501   5.533
20157WAT     H160713   7.363   8.411   5.488
20157WAT     H260714   7.422   8.498   5.613
20158WAT      O60715   2.221   7.547   3.427
20158WAT     H160716   2.207   7.555   3.526
20158WAT     H260717   2.133   7.541   3.381
20159WAT      O60718   3.740   7.292   8.778
20159WAT     H160719   3.818   7.229   8.773
20159WAT     H260720   3.735   7.331   8.870
20160WAT      O60721   6.048   4.506   2.047
20160WAT     H160722   6.145   4.482   2.050
20160WAT     H260723   6.012   4.510   2.140
20161WAT      O60724   8.725   6.920   6.021
20161WAT     H160725   8.825   6.915   6.014
20161WAT     H260726   8.699   6.920   6.117
20162WAT      O60727   5.455   7.405   6.886
20162WAT     H160728   5.468   7.421   6.984
20162WAT     H260729   5.432   7.309   6.870
20163WAT      O60730   5.592   4.596   6.028
20163WAT     H160731   5.680   4.547   6.027
20163WAT     H260732   5.561   4.604   6.123
20164WAT      O60733   7.372   8.782   6.177
20164WAT     H160734   7.279   8.755   6.149
20164WAT     H260735   7.431   8.784   6.096
20165WAT      O60736   2.413   0.613   1.070
20165WAT     H160737   2.428   0.562   0.985
20165WAT     H260738   2.318   0.606   1.098
20166WAT      O60739   5.392   7.568   5.930
20166WAT     H160740   5.319   7.602   5.990
20166WAT     H260741   5.379   7.603   5.838
20167WAT      O60742   8.740   3.585   5.545
20167WAT     H160743   8.726   3.556   5.639
20167WAT     H260744   8.652   3.583   5.496
20168WAT      O60745   0.513   0.882   7.773
20168WAT     H160746   0.517   0.890   7.872
20168WAT     H260747   0.418   0.881   7.742
20169WAT      O60748   3.993   1.953   2.789
20169WAT     H160749   3.922   1.924   2.853
20169WAT     H260750   4.030   2.041   2.817
20170WAT      O60751   7.500   5.457   8.049
20170WAT     H160752   7.485   5.551   8.019
20170WAT     H260753   7.596   5.446   8.075
20171WAT      O60754   3.102   2.814   9.849
20171WAT     H160755   3.053   2.789   9.765
20171WAT     H260756   3.139   2.732   9.892
20172WAT      O60757   8.192   4.393   5.495
20172WAT     H160758   8.157   4.302   5.473
20172WAT     H260759   8.250   4.388   5.576
20173WAT      O60760   5.300   9.709   7.909
20173WAT     H160761   5.249   9.793   7.890
20173WAT     H260762   5.342   9.676   7.825
20174WAT      O60763   2.734   8.863   1.701
20174WAT     H160764   2.759   8.771   1.672
20174WAT     H260765   2.645   8.860   1.748
20175WAT      O60766   5.392   8.656   1.554
20175WAT     H160767   5.463   8.724   1.538
20175WAT     H260768   5.308   8.701   1.584
20176WAT      O60769   0.124   0.321   8.457
20176WAT     H160770   0.034   0.307   8.415
20176WAT     H260771   0.161   0.234   8.487
20177WAT      O60772   9.706   7.277   1.117
20177WAT     H160773   9.693   7.366   1.073
20177WAT     H260774   9.803   7.261   1.132
20178WAT      O60775   7.516   5.108   4.076
20178WAT     H160776   7.508   5.182   4.143
20178WAT     H260777   7.478   5.138   3.989
20179WAT      O60778   9.463   1.619   5.154
20179WAT     H160779   9.452   1.522   5.179
20179WAT     H260780   9.434   1.676   5.231
20180WAT      O60781   7.390   1.916   2.358
20180WAT     H160782   7.379   1.817   2.359
20180WAT     H260783   7.462   1.941   2.293
20181WAT      O60784   6.697   0.320   7.898
20181WAT     H160785   6.598   0.324   7.886
20181WAT     H260786   6.725   0.226   7.916
20182WAT      O60787   5.247   3.500   9.873
20182WAT     H160788   5.279   3.571   9.936
20182WAT     H260789   5.172   3.450   9.916
20183WAT      O60790   0.911   8.216   4.746
20183WAT     H160791   0.908   8.305   4.700
20183WAT     H260792   1.000   8.174   4.731
20184WAT      O60793   7.804   2.518   7.436
20184WAT     H160794   7.709   2.549   7.439
20184WAT     H260795   7.807   2.419   7.420
20185WAT      O60796   8.830   8.572   3.671
20185WAT     H160797   8.892   8.605   3.742
20185WAT     H260798   8.876   8.571   3.583
20186WAT      O60799   8.319   8.834   3.326
20186WAT     H160800   8.321   8.851   3.228
20186WAT     H260801   8.231   8.795   3.352
20187WAT      O60802   6.541   7.679   7.520
20187WAT     H160803   6.488   7.609   7.473
20187WAT     H260804   6.514   7.683   7.616
20188WAT      O60805   0.051   0.250   2.571
20188WAT     H160806   0.023   0.232   2.477
20188WAT     H260807   0.122   0.185   2.598
20189WAT      O60808   7.502   3.148   2.041
20189WAT     H160809   7.504   3.124   1.944
20189WAT     H260810   7.416   3.117   2.081
20190WAT      O60811   0.279   1.677   4.276
20190WAT     H160812   0.189   1.704   4.242
20190WAT     H260813   0.335   1.646   4.199
20191WAT      O60814   3.121   3.079   5.812
20191WAT     H160815   3.137   2.982   5.828
20191WAT     H260816   3.133   3.100   5.715
20192WAT      O60817   5.169   9.545   5.541
20192WAT     H160818   5.207   9.629   5.503
20192WAT     H260819   5.126   9.565   5.630
20193WAT      O60820   2.015   1.432   6.830
20193WAT     H160821   2.086   1.492   6.794
20193WAT     H260822   2.028   1.340   6.792
20194WAT      O60823   2.625   0.625   6.772
20194WAT     H160824   2.613   0.715   6.730
20194WAT     H260825   2.674   0.635   6.859
20195WAT      O60826   6.099   1.196   4.099
20195WAT     H160827   6.098   1.248   4.013
20195WAT     H260828   6.008   1.158   4.116
20196WAT      O60829   4.443   7.526   7.313
20196WAT     H160830   4.440   7.594   7.240
20196WAT     H260831   4.379   7.452   7.293
20197WAT      O60832   0.229   9.666   4.167
20197WAT     H160833   0.161   9.686   4.238
20197WAT     H260834   0.185   9.666   4.078
20198WAT      O60835   5.374   2.077   1.457
20198WAT     H160836   5.304   2.077   1.529
20198WAT     H260837   5.337   2.034   1.375
20199WAT      O60838   8.698   4.599   2.970
20199WAT     H160839   8.637   4.579   3.046
20199WAT     H260840   8.776   4.653   3.002
20200WAT      O60841   3.860   1.410   8.257
20200WAT     H160842   3.883   1.464   8.176
20200WAT     H260843   3.821   1.322   8.229
20201WAT      O60844   2.602   4.260   1.953
20201WAT     H160845   2.701   4.248   1.949
20201WAT     H260846   2.572   4.254   2.048
20202WAT      O60847   4.860   6.829   9.769
20202WAT     H160848   4.868   6.831   9.869
20202WAT     H260849   4.893   6.915   9.731
20203WAT      O60850   3.790   6.008   5.839
20203WAT     H160851   3.726   6.003   5.762
20203WAT     H260852   3.769   5.936   5.905
20204WAT      O60853   0.813   2.769   2.954
20204WAT     H160854   0.848   2.812   3.037
20204WAT     H260855   0.871   2.692   2.929
20205WAT      O60856   4.635   2.180   2.046
20205WAT     H160857   4.683   2.097   2.073
20205WAT     H260858   4.642   2.248   2.119
20206WAT      O60859   4.906   7.248   3.323
20206WAT     H160860   4.919   7.276   3.418
20206WAT     H260861   4.895   7.148   3.318
20207WAT      O60862   1.178   7.470   6.776
20207WAT     H160863   1.148   7.503   6.865
20207WAT     H260864   1.098   7.454   6.717
20208WAT      O60865   5.381   9.802   1.731
20208WAT     H160866   5.356   9.817   1.827
20208WAT     H260867   5.472   9.841   1.714
20209WAT      O60868   5.573   8.130   3.511
20209WAT     H160869   5.561   8.204   3.577
20209WAT     H260870   5.667   8.096   3.515
20210WAT      O60871   6.428   8.158   6.335
20210WAT     H160872   6.502   8.092   6.337
20210WAT     H260873   6.398   8.173   6.241
20211WAT      O60874   6.891   8.963   4.809
20211WAT     H160875   6.793   8.961   4.788
20211WAT     H260876   6.905   8.935   4.904
20212WAT      O60877   0.711   3.968   3.399
20212WAT     H160878   0.658   3.984   3.316
20212WAT     H260879   0.809   3.967   3.377
20213WAT      O60880   2.551   7.814   7.640
20213WAT     H160881   2.577   7.878   7.713
20213WAT     H260882   2.630   7.758   7.615
20214WAT      O60883   4.779   6.653   7.215
20214WAT     H160884   4.801   6.675   7.120
20214WAT     H260885   4.755   6.737   7.264
20215WAT      O60886   3.705   3.632   3.007
20215WAT     H160887   3.805   3.623   3.008
20215WAT     H260888   3.680   3.728   2.996
20216WAT      O60889   0.984   8.554   1.646
20216WAT     H160890   0.907   8.492   1.653
20216WAT     H260891   1.069   8.502   1.632
20217WAT      O60892   8.653   3.169   5.654
20217WAT     H160893   8.571   3.138   5.606
20217WAT     H260894   8.734   3.135   5.608
20218WAT      O60895   0.665   8.372   7.983
20218WAT     H160896   0.575   8.330   7.991
20218WAT     H260897   0.680   8.436   8.058
20219WAT      O60898   6.992   4.538   5.348
20219WAT     H160899   7.011   4.528   5.250
20219WAT     H260900   7.054   4.479   5.400
20220WAT      O60901   5.336   1.361   1.759
20220WAT     H160902   5.242   1.337   1.784
20220WAT     H260903   5.381   1.281   1.719
20221WAT      O60904   0.538   4.561   7.908
20221WAT     H160905   0.585   4.522   7.988
20221WAT     H260906   0.525   4.489   7.839
20222WAT      O60907   0.548   5.433   9.587
20222WAT     H160908   0.620   5.365   9.586
20222WAT     H260909   0.535   5.470   9.495
20223WAT      O60910   3.163   9.430   4.533
20223WAT     H160911   3.229   9.504   4.548
20223WAT     H260912   3.195   9.371   4.459
20224WAT      O60913   2.115   6.256   0.223
20224WAT     H160914   2.136   6.320   0.149
20224WAT     H260915   2.052   6.299   0.288
20225WAT      O60916   1.738   7.129   6.976
20225WAT     H160917   1.799   7.109   7.052
20225WAT     H260918   1.752   7.224   6.947
20226WAT      O60919   9.478   9.122   4.993
20226WAT     H160920   9.456   9.192   4.924
20226WAT     H260921   9.541   9.055   4.954
20227WAT      O60922   5.146   7.639   9.761
20227WAT     H160923   5.242   7.663   9.749
20227WAT     H260924   5.096   7.656   9.676
20228WAT      O60925   5.096   9.302   1.245
20228WAT     H160926   5.181   9.264   1.207
20228WAT     H260927   5.092   9.282   1.343
20229WAT      O60928   6.539   4.493   8.777
20229WAT     H160929   6.560   4.399   8.801
20229WAT     H260930   6.605   4.526   8.709
20230WAT      O60931   4.683   8.988   1.914
20230WAT     H160932   4.755   9.042   1.870
20230WAT     H260933   4.635   8.935   1.844
20231WAT      O60934   0.440   3.674   8.881
20231WAT     H160935   0.381   3.754   8.885
20231WAT     H260936   0.444   3.640   8.787
20232WAT      O60937   1.164   3.190   1.133
20232WAT     H160938   1.218   3.124   1.185
20232WAT     H260939   1.067   3.182   1.159
20233WAT      O60940   4.347   6.852   3.551
20233WAT     H160941   4.425   6.894   3.505
20233WAT     H260942   4.367   6.756   3.570
20234WAT      O60943   6.222   9.180   3.125
20234WAT     H160944   6.309   9.223   3.151
20234WAT     H260945   6.217   9.088   3.165
20235WAT      O60946   0.556   1.820   0.428
20235WAT     H160947   0.500   1.887   0.378
20235WAT     H260948   0.533   1.823   0.525
20236WAT      O60949   1.735   4.624   4.264
20236WAT     H160950   1.763   4.719   4.277
20236WAT     H260951   1.649   4.607   4.311
20237WAT      O60952   9.445   2.877   3.290
20237WAT     H160953   9.526   2.934   3.279
20237WAT     H260954   9.368   2.934   3.317
20238WAT      O60955   0.588   1.973   8.654
20238WAT     H160956   0.549   2.012   8.571
20238WAT     H260957   0.539   1.890   8.679
20239WAT      O60958   1.957   7.002   4.015
20239WAT     H160959   1.895   7.056   3.959
20239WAT     H260960   1.923   6.908   4.021
20240WAT      O60961   7.819   5.145   5.986
20240WAT     H160962   7.742   5.113   5.931
20240WAT     H260963   7.794   5.231   6.030
20241WAT      O60964   3.846   0.436   8.040
20241WAT     H160965   3.928   0.477   8.081
20241WAT     H260966   3.767   0.456   8.097
20242WAT      O60967   1.614   7.902   1.757
20242WAT     H160968   1.615   7.802   1.759
20242WAT     H260969   1.559   7.936   1.834
20243WAT      O60970   0.374   9.703   6.471
20243WAT     H160971   0.381   9.654   6.558
20243WAT     H260972   0.312   9.653   6.410
20244WAT      O60973   9.236   6.189   6.581
20244WAT     H160974   9.163   6.187   6.650
20244WAT     H260975   9.267   6.283   6.569
20245WAT      O60976   9.622   5.305   7.711
20245WAT     H160977   9.637   5.253   7.795
20245WAT     H260978   9.537   5.357   7.718
20246WAT      O60979   0.156   7.012   2.974
20246WAT     H160980   0.128   6.919   2.999
20246WAT     H260981   0.075   7.065   2.948
20247WAT      O60982   3.387   1.701   8.285
20247WAT     H160983   3.335   1.757   8.349
20247WAT     H260984   3.385   1.605   8.315
20248WAT      O60985   5.701   5.248   1.762
20248WAT     H160986   5.729   5.153   1.747
20248WAT     H260987   5.607   5.250   1.797
20249WAT      O60988   1.484   9.369   5.936
20249WAT     H160989   1.385   9.362   5.952
20249WAT     H260990   1.532   9.304   5.996
20250WAT      O60991   3.418   6.465   6.743
20250WAT     H160992   3.379   6.513   6.822
20250WAT     H260993   3.344   6.438   6.681
20251WAT      O60994   8.512   7.017   5.371
20251WAT     H160995   8.518   7.056   5.279
20251WAT     H260996   8.592   6.959   5.388
20252WAT      O60997   0.355   3.938   3.706
20252WAT     H160998   0.261   3.956   3.680
20252WAT     H260999   0.386   3.852   3.664
20253WAT      O61000   0.907   5.501   7.777
20253WAT     H161001   0.947   5.549   7.855
20253WAT     H261002   0.969   5.509   7.698
20254WAT      O61003   9.442   9.014   6.702
20254WAT     H161004   9.345   9.039   6.693
20254WAT     H261005   9.461   8.987   6.797
20255WAT      O61006   7.566   9.147   3.613
20255WAT     H161007   7.510   9.205   3.671
20255WAT     H261008   7.513   9.066   3.586
20256WAT      O61009   8.517   0.094   5.546
20256WAT     H161010   8.465   0.060   5.467
20256WAT     H261011   8.473   0.062   5.631
20257WAT      O61012   8.272   3.086   5.693
20257WAT     H161013   8.310   3.104   5.602
20257WAT     H261014   8.321   3.142   5.761
20258WAT      O61015   6.696   0.944   5.712
20258WAT     H161016   6.785   0.921   5.672
20258WAT     H261017   6.704   1.029   5.764
20259WAT      O61018   9.311   8.199   6.258
20259WAT     H161019   9.356   8.253   6.330
20259WAT     H261020   9.333   8.238   6.169
20260WAT      O61021   8.919   5.280   2.220
20260WAT     H161022   8.976   5.349   2.175
20260WAT     H261023   8.915   5.299   2.318
20261WAT      O61024   3.566   4.413   4.281
20261WAT     H161025   3.531   4.415   4.188
20261WAT     H261026   3.660   4.447   4.282
20262WAT      O61027   5.170   0.495   2.570
20262WAT     H161028   5.168   0.421   2.503
20262WAT     H261029   5.125   0.576   2.531
20263WAT      O61030   1.587   0.493   1.328
20263WAT     H161031   1.640   0.427   1.381
20263WAT     H261032   1.626   0.499   1.236
20264WAT      O61033   5.972   8.984   0.433
20264WAT     H161034   6.043   8.941   0.378
20264WAT     H261035   6.010   9.013   0.521
20265WAT      O61036   9.277   7.718   1.785
20265WAT     H161037   9.312   7.687   1.697
20265WAT     H261038   9.212   7.651   1.821
20266WAT      O61039   7.837   1.037   9.055
20266WAT     H161040   7.791   1.109   9.107
20266WAT     H261041   7.795   1.030   8.964
20267WAT      O61042   6.639   8.246   3.523
20267WAT     H161043   6.601   8.324   3.473
20267WAT     H261044   6.612   8.161   3.478
20268WAT      O61045   7.346   4.028   9.670
20268WAT     H161046   7.344   3.990   9.763
20268WAT     H261047   7.276   4.099   9.661
20269WAT      O61048   5.066   3.238   8.520
20269WAT     H161049   5.143   3.222   8.581
20269WAT     H261050   5.099   3.256   8.427
20270WAT      O61051   1.631   9.756   7.996
20270WAT     H161052   1.578   9.718   7.921
20270WAT     H261053   1.623   9.697   8.076
20271WAT      O61054   4.362   5.134   6.134
20271WAT     H161055   4.329   5.212   6.080
20271WAT     H261056   4.366   5.160   6.231
20272WAT      O61057   7.565   2.623   4.180
20272WAT     H161058   7.617   2.693   4.228
20272WAT     H261059   7.602   2.611   4.088
20273WAT      O61060   7.563   7.006   7.257
20273WAT     H161061   7.645   7.024   7.204
20273WAT     H261062   7.559   7.068   7.335
20274WAT      O61063   0.496   7.470   2.078
20274WAT     H161064   0.535   7.409   2.147
20274WAT     H261065   0.570   7.522   2.035
20275WAT      O61066   3.718   5.942   3.760
20275WAT     H161067   3.661   5.864   3.788
20275WAT     H261068   3.789   5.910   3.697
20276WAT      O61069   4.531   8.172   6.167
20276WAT     H161070   4.511   8.260   6.211
20276WAT     H261071   4.617   8.179   6.116
20277WAT      O61072   2.370   3.837   5.901
20277WAT     H161073   2.305   3.879   5.838
20277WAT     H261074   2.434   3.780   5.850
20278WAT      O61075   0.110   5.709   8.542
20278WAT     H161076   0.130   5.655   8.460
20278WAT     H261077   0.109   5.806   8.518
20279WAT      O61078   5.306   1.333   9.321
20279WAT     H161079   5.288   1.284   9.406
20279WAT     H261080   5.305   1.269   9.244
20280WAT      O61081   2.719   4.799   9.847
20280WAT     H161082   2.625   4.770   9.830
20280WAT     H261083   2.775   4.780   9.767
20281WAT      O61084   4.959   3.402   3.829
20281WAT     H161085   4.887   3.403   3.759
20281WAT     H261086   4.949   3.483   3.887
20282WAT      O61087   6.184   9.391   2.791
20282WAT     H161088   6.273   9.424   2.823
20282WAT     H261089   6.140   9.339   2.863
20283WAT      O61090   6.363   8.175   5.757
20283WAT     H161091   6.457   8.148   5.776
20283WAT     H261092   6.359   8.220   5.668
20284WAT      O61093   9.366   9.728   4.176
20284WAT     H161094   9.304   9.794   4.219
20284WAT     H261095   9.313   9.650   4.142
20285WAT      O61096   1.906   9.555   5.704
20285WAT     H161097   1.859   9.593   5.784
20285WAT     H261098   1.892   9.615   5.625
20286WAT      O61099   2.587   5.166   5.303
20286WAT     H161100   2.628   5.102   5.368
20286WAT     H261101   2.560   5.249   5.352
20287WAT      O61102   0.328   6.431   0.628
20287WAT     H161103   0.308   6.442   0.530
20287WAT     H261104   0.363   6.517   0.665
20288WAT      O61105   8.116   6.568   2.838
20288WAT     H161106   8.104   6.528   2.929
20288WAT     H261107   8.157   6.500   2.777
20289WAT      O61108   2.358   3.582   8.295
20289WAT     H161109   2.389   3.644   8.222
20289WAT     H261110   2.288   3.627   8.350
20290WAT      O61111   7.909   0.737   9.058
20290WAT     H161112   7.942   0.831   9.066
20290WAT     H261113   7.958   0.679   9.123
20291WAT      O61114   7.764   5.743   8.002
20291WAT     H161115   7.738   5.686   8.080
20291WAT     H261116   7.697   5.816   7.991
20292WAT      O61117   0.113   8.107   8.895
20292WAT     H161118   0.116   8.110   8.995
20292WAT     H261119   0.188   8.050   8.861
20293WAT      O61120   2.045   3.269   3.214
20293WAT     H161121   2.103   3.344   3.183
20293WAT     H261122   1.954   3.305   3.238
20294WAT      O61123   6.026   8.559   2.380
20294WAT     H161124   6.053   8.565   2.476
20294WAT     H261125   5.936   8.516   2.374
20295WAT      O61126   8.732   6.444   3.288
20295WAT     H161127   8.816   6.498   3.296
20295WAT     H261128   8.724   6.408   3.196
20296WAT      O61129   7.034   3.078   1.369
20296WAT     H161130   6.996   3.054   1.459
20296WAT     H261131   6.960   3.078   1.301
20297WAT      O61132   6.072   4.356   8.575
20297WAT     H161133   6.158   4.403   8.595
20297WAT     H261134   6.034   4.389   8.489
20298WAT      O61135   9.186   0.683   9.435
20298WAT     H161136   9.120   0.612   9.413
20298WAT     H261137   9.145   0.773   9.416
20299WAT      O61138   4.172   2.548   8.557
20299WAT     H161139   4.162   2.553   8.458
20299WAT     H261140   4.146   2.456   8.588
20300WAT      O61141   4.085   3.136   4.481
20300WAT     H161142   4.054   3.045   4.510
20300WAT     H261143   4.009   3.200   4.491
20301WAT      O61144   2.542   6.558   5.182
20301WAT     H161145   2.624   6.573   5.126
20301WAT     H261146   2.567   6.561   5.279
20302WAT      O61147   0.323   0.624   5.852
20302WAT     H161148   0.378   0.581   5.924
20302WAT     H261149   0.335   0.575   5.766
20303WAT      O61150   2.921   1.301   5.767
20303WAT     H161151   2.951   1.345   5.851
20303WAT     H261152   2.872   1.217   5.788
20304WAT      O61153   1.945   9.760   2.025
20304WAT     H161154   2.000   9.738   2.106
20304WAT     H261155   1.952   9.685   1.959
20305WAT      O61156   6.342   6.658   8.020
20305WAT     H161157   6.346   6.642   7.921
20305WAT     H261158   6.435   6.660   8.057
20306WAT      O61159   3.325   6.157   9.470
20306WAT     H161160   3.239   6.163   9.419
20306WAT     H261161   3.315   6.206   9.557
20307WAT      O61162   5.858   5.488   6.885
20307WAT     H161163   5.912   5.556   6.935
20307WAT     H261164   5.906   5.463   6.801
20308WAT      O61165   4.925   8.965   8.849
20308WAT     H161166   5.005   8.958   8.790
20308WAT     H261167   4.883   8.874   8.859
20309WAT      O61168   4.673   3.049   1.494
20309WAT     H161169   4.620   2.976   1.538
20309WAT     H261170   4.636   3.138   1.522
20310WAT      O61171   8.702   6.647   7.572
20310WAT     H161172   8.765   6.713   7.613
20310WAT     H261173   8.738   6.554   7.586
20311WAT      O61174   9.635   4.534   1.541
20311WAT     H161175   9.576   4.612   1.558
20311WAT     H261176   9.657   4.489   1.628
20312WAT      O61177   0.389   7.967   6.304
20312WAT     H161178   0.419   7.896   6.367
20312WAT     H261179   0.387   7.931   6.211
20313WAT      O61180   4.011   3.482   2.140
20313WAT     H161181   4.059   3.397   2.118
20313WAT     H261182   3.922   3.483   2.095
20314WAT      O61183   6.129   9.423   3.476
20314WAT     H161184   6.047   9.478   3.493
20314WAT     H261185   6.105   9.326   3.480
20315WAT      O61186   3.463   3.716   7.160
20315WAT     H161187   3.476   3.695   7.257
20315WAT     H261188   3.367   3.701   7.136
20316WAT      O61189   1.721   1.547   0.809
20316WAT     H161190   1.754   1.568   0.901
20316WAT     H261191   1.637   1.598   0.791
20317WAT      O61192   5.958   9.628   3.646
20317WAT     H161193   5.886   9.643   3.578
20317WAT     H261194   6.046   9.654   3.607
20318WAT      O61195   4.314   5.452   6.604
20318WAT     H161196   4.327   5.419   6.510
20318WAT     H261197   4.394   5.427   6.658
20319WAT      O61198   6.872   8.064   4.223
20319WAT     H161199   6.807   8.015   4.165
20319WAT     H261200   6.874   8.161   4.196
20320WAT      O61201   0.698   7.291   5.026
20320WAT     H161202   0.687   7.197   5.058
20320WAT     H261203   0.725   7.350   5.102
20321WAT      O61204   4.932   4.342   7.264
20321WAT     H161205   4.949   4.338   7.363
20321WAT     H261206   4.836   4.363   7.247
20322WAT      O61207   4.235   6.528   5.417
20322WAT     H161208   4.156   6.554   5.362
20322WAT     H261209   4.246   6.592   5.493
20323WAT      O61210   3.700   6.282   9.506
20323WAT     H161211   3.698   6.380   9.524
20323WAT     H261212   3.660   6.263   9.416
20324WAT      O61213   7.926   3.616   3.196
20324WAT     H161214   7.924   3.516   3.187
20324WAT     H261215   7.926   3.658   3.105
20325WAT      O61216   2.978   0.107   2.233
20325WAT     H161217   3.046   0.052   2.283
20325WAT     H261218   2.916   0.151   2.297
20326WAT      O61219   6.444   3.251   4.761
20326WAT     H161220   6.432   3.345   4.730
20326WAT     H261221   6.541   3.228   4.763
20327WAT      O61222   2.581   3.939   8.257
20327WAT     H161223   2.533   3.868   8.206
20327WAT     H261224   2.583   4.023   8.203
20328WAT      O61225   0.908   2.765   3.907
20328WAT     H161226   0.864   2.723   3.828
20328WAT     H261227   0.939   2.857   3.883
20329WAT      O61228   6.743   0.264   3.288
20329WAT     H161229   6.722   0.297   3.196
20329WAT     H261230   6.820   0.316   3.325
20330WAT      O61231   2.084   5.283   3.350
20330WAT     H161232   1.986   5.260   3.351
20330WAT     H261233   2.107   5.327   3.263
20331WAT      O61234   9.029   5.268   1.339
20331WAT     H161235   8.997   5.255   1.433
20331WAT     H261236   9.115   5.318   1.339
20332WAT      O61237   3.682   6.745   6.793
20332WAT     H161238   3.756   6.810   6.777
20332WAT     H261239   3.671   6.686   6.713
20333WAT      O61240   6.501   6.716   2.913
20333WAT     H161241   6.441   6.794   2.933
20333WAT     H261242   6.448   6.643   2.872
20334WAT      O61243   8.134   4.953   6.894
20334WAT     H161244   8.172   4.897   6.820
20334WAT     H261245   8.140   5.050   6.867
20335WAT      O61246   0.558   6.627   6.443
20335WAT     H161247   0.653   6.655   6.450
20335WAT     H261248   0.535   6.610   6.347
20336WAT      O61249   3.517   6.120   0.798
20336WAT     H161250   3.562   6.177   0.729
20336WAT     H261251   3.546   6.025   0.787
20337WAT      O61252   6.800   2.991   9.098
20337WAT     H161253   6.776   2.909   9.150
20337WAT     H261254   6.871   3.041   9.147
20338WAT      O61255   4.865   2.215   5.595
20338WAT     H161256   4.935   2.144   5.603
20338WAT     H261257   4.885   2.273   5.516
20339WAT      O61258   8.687   2.737   6.044
20339WAT     H161259   8.624   2.760   6.118
20339WAT     H261260   8.776   2.710   6.083
20340WAT      O61261   4.792   0.406   3.934
20340WAT     H161262   4.752   0.330   3.985
20340WAT     H261263   4.726   0.439   3.866
20341WAT      O61264   6.967   2.611   4.206
20341WAT     H161265   6.898   2.636   4.274
20341WAT     H261266   7.058   2.628   4.243
20342WAT      O61267   5.182   5.332   8.496
20342WAT     H161268   5.146   5.240   8.486
20342WAT     H261269   5.244   5.352   8.420
20343WAT      O61270   9.241   9.317   2.504
20343WAT     H161271   9.311   9.276   2.562
20343WAT     H261272   9.284   9.373   2.434
20344WAT      O61273   4.707   7.109   0.048
20344WAT     H161274   4.691   7.154   0.135
20344WAT     H261275   4.773   7.161  -0.005
20345WAT      O61276   4.023   7.214   4.050
20345WAT     H161277   3.985   7.160   3.975
20345WAT     H261278   4.086   7.283   4.013
20346WAT      O61279   8.002   9.318   6.996
20346WAT     H161280   8.057   9.282   7.071
20346WAT     H261281   7.917   9.267   6.989
20347WAT      O61282   0.520   0.641   9.245
20347WAT     H161283   0.599   0.588   9.215
20347WAT     H261284   0.442   0.621   9.185
20348WAT      O61285   9.575   3.914   7.248
20348WAT     H161286   9.496   3.967   7.281
20348WAT     H261287   9.542   3.830   7.204
20349WAT      O61288   8.543   9.538   8.895
20349WAT     H161289   8.520   9.453   8.941
20349WAT     H261290   8.461   9.575   8.851
20350WAT      O61291   7.816   5.154   2.591
20350WAT     H161292   7.816   5.103   2.677
20350WAT     H261293   7.850   5.247   2.607
20351WAT      O61294   8.537   5.446   5.550
20351WAT     H161295   8.495   5.358   5.572
20351WAT     H261296   8.574   5.487   5.634
20352WAT      O61297   9.481   9.714   6.197
20352WAT     H161298   9.397   9.739   6.246
20352WAT     H261299   9.458   9.685   6.104
20353WAT      O61300   1.163   8.977   7.552
20353WAT     H161301   1.086   9.015   7.603
20353WAT     H261302   1.210   8.909   7.608
20354WAT      O61303   3.130   4.178   2.705
20354WAT     H161304   3.081   4.156   2.790
20354WAT     H261305   3.071   4.234   2.647
20355WAT      O61306   8.261   6.706   1.638
20355WAT     H161307   8.290   6.719   1.543
20355WAT     H261308   8.327   6.648   1.686
20356WAT      O61309   8.866   6.207   8.318
20356WAT     H161310   8.881   6.301   8.288
20356WAT     H261311   8.842   6.150   8.239
20357WAT      O61312   2.896   2.816   7.301
20357WAT     H161313   2.903   2.846   7.396
20357WAT     H261314   2.865   2.892   7.243
20358WAT      O61315   1.516   6.609   7.670
20358WAT     H161316   1.474   6.529   7.627
20358WAT     H261317   1.583   6.580   7.737
20359WAT      O61318   6.898   5.346   7.040
20359WAT     H161319   6.882   5.299   6.953
20359WAT     H261320   6.894   5.279   7.115
20360WAT      O61321   1.195   3.185   8.118
20360WAT     H161322   1.217   3.260   8.179
20360WAT     H261323   1.096   3.167   8.120
20361WAT      O61324   4.996   4.263   6.492
20361WAT     H161325   5.068   4.271   6.561
20361WAT     H261326   4.911   4.232   6.535
20362WAT      O61327   7.327   8.045   3.432
20362WAT     H161328   7.250   8.068   3.372
20362WAT     H261329   7.332   7.945   3.443
20363WAT      O61330   8.575   7.740   7.720
20363WAT     H161331   8.523   7.774   7.798
20363WAT     H261332   8.538   7.651   7.692
20364WAT      O61333   6.745   1.062   9.347
20364WAT     H161334   6.777   1.119   9.271
20364WAT     H261335   6.823   1.015   9.388
20365WAT      O61336   8.885   3.204   7.819
20365WAT     H161337   8.971   3.218   7.868
20365WAT     H261338   8.881   3.265   7.740
20366WAT      O61339   6.848   6.580   5.816
20366WAT     H161340   6.910   6.517   5.769
20366WAT     H261341   6.874   6.586   5.913
20367WAT      O61342   6.447   8.244   4.151
20367WAT     H161343   6.544   8.246   4.126
20367WAT     H261344   6.437   8.271   4.247
20368WAT      O61345   9.404   7.221   2.997
20368WAT     H161346   9.405   7.192   3.093
20368WAT     H261347   9.311   7.247   2.971
20369WAT      O61348   7.624   3.437   5.334
20369WAT     H161349   7.628   3.453   5.433
20369WAT     H261350   7.609   3.340   5.317
20370WAT      O61351   7.272   7.951   0.015
20370WAT     H161352   7.260   8.046   0.043
20370WAT     H261353   7.293   7.895   0.094
20371WAT      O61354   9.141   8.503   2.079
20371WAT     H161355   9.201   8.426   2.058
20371WAT     H261356   9.197   8.582   2.105
20372WAT      O61357   6.866   1.255   7.072
20372WAT     H161358   6.864   1.171   7.126
20372WAT     H261359   6.798   1.319   7.108
20373WAT      O61360   7.934   6.594   8.601
20373WAT     H161361   7.849   6.647   8.600
20373WAT     H261362   7.930   6.526   8.673
20374WAT      O61363   4.283   1.514   2.014
20374WAT     H161364   4.335   1.600   2.009
20374WAT     H261365   4.241   1.507   2.104
20375WAT      O61366   1.315   2.766   9.308
20375WAT     H161367   1.287   2.842   9.250
20375WAT     H261368   1.322   2.682   9.253
20376WAT      O61369   5.798   1.398   0.028
20376WAT     H161370   5.864   1.352  -0.031
20376WAT     H261371   5.756   1.331   0.090
20377WAT      O61372   1.190   9.186   0.844
20377WAT     H161373   1.197   9.245   0.764
20377WAT     H261374   1.271   9.196   0.901
20378WAT      O61375   2.044   6.626   3.916
20378WAT     H161376   2.038   6.701   3.850
20378WAT     H261377   2.132   6.580   3.907
20379WAT      O61378   3.100   4.926   9.725
20379WAT     H161379   3.024   4.932   9.789
20379WAT     H261380   3.175   4.874   9.767
20380WAT      O61381   2.124   7.110   4.862
20380WAT     H161382   2.211   7.069   4.834
20380WAT     H261383   2.101   7.184   4.799
20381WAT      O61384   6.750   4.020   0.978
20381WAT     H161385   6.654   3.993   0.969
20381WAT     H261386   6.755   4.111   1.020
20382WAT      O61387   8.066   4.841   0.816
20382WAT     H161388   8.048   4.772   0.887
20382WAT     H261389   7.989   4.843   0.752
20383WAT      O61390   9.342   2.983   6.497
20383WAT     H161391   9.342   3.083   6.499
20383WAT     H261392   9.343   2.948   6.590
20384WAT      O61393   7.129   2.150   1.734
20384WAT     H161394   7.104   2.080   1.668
20384WAT     H261395   7.173   2.227   1.687
20385WAT      O61396   9.858   7.138   5.856
20385WAT     H161397   9.870   7.211   5.789
20385WAT     H261398   9.886   7.171   5.946
20386WAT      O61399   3.305   0.168   0.584
20386WAT     H161400   3.344   0.158   0.675
20386WAT     H261401   3.219   0.217   0.589
20387WAT      O61402   6.162   3.930   6.942
20387WAT     H161403   6.135   3.839   6.975
20387WAT     H261404   6.252   3.924   6.899
20388WAT      O61405   5.413   5.839   9.204
20388WAT     H161406   5.315   5.837   9.222
20388WAT     H261407   5.432   5.903   9.129
20389WAT      O61408   1.510   6.334   2.782
20389WAT     H161409   1.517   6.322   2.683
20389WAT     H261410   1.413   6.335   2.808
20390WAT      O61411   1.398   7.080   8.182
20390WAT     H161412   1.389   7.109   8.278
20390WAT     H261413   1.454   7.146   8.132
20391WAT      O61414   0.013   5.502   4.140
20391WAT     H161415   0.014   5.406   4.167
20391WAT     H261416  -0.012   5.510   4.044
20392WAT      O61417   9.387   8.016   7.861
20392WAT     H161418   9.329   8.065   7.796
20392WAT     H261419   9.406   8.075   7.939
20393WAT      O61420   5.410   1.855   4.361
20393WAT     H161421   5.314   1.876   4.380
20393WAT     H261422   5.442   1.914   4.287
20394WAT      O61423   6.364   9.660   3.670
20394WAT     H161424   6.372   9.735   3.735
20394WAT     H261425   6.357   9.573   3.720
20395WAT      O61426   5.242   2.208   1.132
20395WAT     H161427   5.209   2.295   1.170
20395WAT     H261428   5.340   2.214   1.114
20396WAT      O61429   8.753   5.063   8.939
20396WAT     H161430   8.832   5.059   9.000
20396WAT     H261431   8.692   5.137   8.968
20397WAT      O61432   7.645   8.844   3.625
20397WAT     H161433   7.616   8.844   3.721
20397WAT     H261434   7.650   8.749   3.592
20398WAT      O61435   6.968   1.443   0.202
20398WAT     H161436   6.940   1.357   0.161
20398WAT     H261437   7.060   1.435   0.239
20399WAT      O61438   3.425   2.019   4.949
20399WAT     H161439   3.371   1.963   4.885
20399WAT     H261440   3.374   2.102   4.970
20400WAT      O61441   1.441   6.034   2.735
20400WAT     H161442   1.406   6.127   2.751
20400WAT     H261443   1.369   5.977   2.696
20401WAT      O61444   2.817   6.422   9.623
20401WAT     H161445   2.810   6.483   9.544
20401WAT     H261446   2.889   6.455   9.684
20402WAT      O61447   8.039   6.446   4.648
20402WAT     H161448   8.102   6.519   4.621
20402WAT     H261449   7.956   6.486   4.687
20403WAT      O61450   6.463   5.660   9.548
20403WAT     H161451   6.375   5.686   9.507
20403WAT     H261452   6.460   5.678   9.647
20404WAT      O61453   2.291   2.071   3.431
20404WAT     H161454   2.348   2.077   3.513
20404WAT     H261455   2.309   1.985   3.383
20405WAT      O61456   0.878   7.153   1.202
20405WAT     H161457   0.890   7.064   1.160
20405WAT     H261458   0.948   7.216   1.168
20406WAT      O61459   9.365   6.295   3.358
20406WAT     H161460   9.375   6.343   3.270
20406WAT     H261461   9.451   6.300   3.409
20407WAT      O61462   7.154   9.551   2.524
20407WAT     H161463   7.176   9.645   2.498
20407WAT     H261464   7.237   9.495   2.520
20408WAT      O61465   7.831   0.260   4.234
20408WAT     H161466   7.736   0.273   4.263
20408WAT     H261467   7.850   0.317   4.155
20409WAT      O61468   7.306   0.727   5.084
20409WAT     H161469   7.272   0.775   5.165
20409WAT     H261470   7.247   0.647   5.066
20410WAT      O61471   7.087   7.471   3.714
20410WAT     H161472   7.185   7.471   3.696
20410WAT     H261473   7.067   7.411   3.791
20411WAT      O61474   4.769   2.381   4.711
20411WAT     H161475   4.764   2.429   4.623
20411WAT     H261476   4.837   2.426   4.769
20412WAT      O61477   8.965   1.727   1.825
20412WAT     H161478   8.921   1.817   1.827
20412WAT     H261479   8.908   1.665   1.771
20413WAT      O61480   0.535   2.671   3.945
20413WAT     H161481   0.509   2.683   3.850
20413WAT     H261482   0.496   2.745   4.000
20414WAT      O61483   1.604   3.264   9.267
20414WAT     H161484   1.568   3.354   9.245
20414WAT     H261485   1.692   3.250   9.220
20415WAT      O61486   8.872   2.992   5.627
20415WAT     H161487   8.962   3.034   5.639
20415WAT     H261488   8.856   2.926   5.700
20416WAT      O61489   0.447   4.145   5.889
20416WAT     H161490   0.457   4.071   5.823
20416WAT     H261491   0.511   4.130   5.964
20417WAT      O61492   0.111   0.266   0.895
20417WAT     H161493   0.141   0.333   0.828
20417WAT     H261494   0.156   0.178   0.877
20418WAT      O61495   4.653   2.855   2.530
20418WAT     H161496   4.742   2.810   2.525
20418WAT     H261497   4.581   2.789   2.507
20419WAT      O61498   7.562   7.813   8.536
20419WAT     H161499   7.598   7.903   8.563
20419WAT     H261500   7.475   7.796   8.582
20420WAT      O61501   0.366   9.538   8.370
20420WAT     H161502   0.266   9.537   8.366
20420WAT     H261503   0.397   9.620   8.418
20421WAT      O61504   3.005   6.738   7.937
20421WAT     H161505   3.075   6.764   8.004
20421WAT     H261506   2.922   6.793   7.953
20422WAT      O61507   9.292   2.988   8.890
20422WAT     H161508   9.315   3.032   8.977
20422WAT     H261509   9.370   2.996   8.827
20423WAT      O61510   4.540   7.359   2.587
20423WAT     H161511   4.562   7.278   2.533
20423WAT     H261512   4.464   7.408   2.544
20424WAT      O61513   7.044   2.792   0.076
20424WAT     H161514   6.987   2.721   0.035
20424WAT     H261515   7.114   2.750   0.134
20425WAT      O61516   6.969   6.996   3.308
20425WAT     H161517   6.908   7.029   3.235
20425WAT     H261518   6.913   6.962   3.384
20426WAT      O61519   2.480   0.216   1.635
20426WAT     H161520   2.535   0.246   1.558
20426WAT     H261521   2.534   0.221   1.719
20427WAT      O61522   9.551   3.217   0.102
20427WAT     H161523   9.602   3.303   0.105
20427WAT     H261524   9.571   3.169   0.016
20428WAT      O61525   6.622   4.680   9.144
20428WAT     H161526   6.716   4.681   9.108
20428WAT     H261527   6.623   4.706   9.240
20429WAT      O61528   6.003   1.633   3.523
20429WAT     H161529   6.073   1.611   3.591
20429WAT     H261530   5.912   1.614   3.562
20430WAT      O61531   0.183   1.791   8.271
20430WAT     H161532   0.101   1.816   8.323
20430WAT     H261533   0.159   1.779   8.174
20431WAT      O61534   5.267   3.126   1.662
20431WAT     H161535   5.352   3.094   1.704
20431WAT     H261536   5.275   3.223   1.641
20432WAT      O61537   8.718   4.676   1.581
20432WAT     H161538   8.721   4.745   1.654
20432WAT     H261539   8.796   4.690   1.519
20433WAT      O61540   6.413   8.150   9.509
20433WAT     H161541   6.463   8.228   9.546
20433WAT     H261542   6.471   8.069   9.512
20434WAT      O61543   2.429   4.855   4.927
20434WAT     H161544   2.482   4.843   5.011
20434WAT     H261545   2.454   4.784   4.861
20435WAT      O61546   6.977   4.630   8.122
20435WAT     H161547   6.912   4.698   8.088
20435WAT     H261548   6.984   4.638   8.221
20436WAT      O61549   7.775   2.068   8.875
20436WAT     H161550   7.746   2.163   8.865
20436WAT     H261551   7.836   2.060   8.954
20437WAT      O61552   0.026   7.532   6.049
20437WAT     H161553  -0.022   7.614   6.020
20437WAT     H261554   0.077   7.551   6.133
20438WAT      O61555   9.144   8.068   3.387
20438WAT     H161556   9.152   8.167   3.375
20438WAT     H261557   9.081   8.048   3.462
20439WAT      O61558   4.820   9.014   3.647
20439WAT     H161559   4.774   9.000   3.735
20439WAT     H261560   4.819   8.929   3.595
20440WAT      O61561   6.942   0.363   9.164
20440WAT     H161562   6.864   0.315   9.206
20440WAT     H261563   6.955   0.329   9.071
20441WAT      O61564   1.185   1.426   3.346
20441WAT     H161565   1.125   1.444   3.424
20441WAT     H261566   1.208   1.512   3.301
20442WAT      O61567   3.582   3.238   6.648
20442WAT     H161568   3.486   3.214   6.638
20442WAT     H261569   3.591   3.319   6.705
20443WAT      O61570   3.586   9.432   4.073
20443WAT     H161571   3.527   9.353   4.058
20443WAT     H261572   3.544   9.492   4.142
20444WAT      O61573   2.549   9.109   2.281
20444WAT     H161574   2.633   9.160   2.260
20444WAT     H261575   2.567   9.045   2.355
20445WAT      O61576   2.275   2.646   7.772
20445WAT     H161577   2.361   2.666   7.818
20445WAT     H261578   2.261   2.547   7.767
20446WAT      O61579   2.802   1.857   6.652
20446WAT     H161580   2.812   1.758   6.641
20446WAT     H261581   2.838   1.885   6.741
20447WAT      O61582   7.165   0.388   0.242
20447WAT     H161583   7.157   0.448   0.321
20447WAT     H261584   7.074   0.368   0.205
20448WAT      O61585   4.554   5.737   9.531
20448WAT     H161586   4.513   5.787   9.607
20448WAT     H261587   4.487   5.726   9.458
20449WAT      O61588   4.975   3.150   9.487
20449WAT     H161589   4.983   3.139   9.388
20449WAT     H261590   4.924   3.073   9.525
20450WAT      O61591   0.352   4.292   0.401
20450WAT     H161592   0.355   4.194   0.420
20450WAT     H261593   0.324   4.342   0.483
20451WAT      O61594   2.096   2.325   4.992
20451WAT     H161595   2.101   2.349   4.895
20451WAT     H261596   2.122   2.405   5.047
20452WAT      O61597   8.895   0.902   0.142
20452WAT     H161598   8.959   0.966   0.101
20452WAT     H261599   8.844   0.948   0.215
20453WAT      O61600   1.294   1.633   2.201
20453WAT     H161601   1.286   1.585   2.114
20453WAT     H261602   1.306   1.731   2.185
20454WAT      O61603   5.459   5.742   0.010
20454WAT     H161604   5.397   5.820   0.016
20454WAT     H261605   5.416   5.669  -0.043
20455WAT      O61606   3.686   1.628   6.554
20455WAT     H161607   3.697   1.717   6.511
20455WAT     H261608   3.597   1.589   6.528
20456WAT      O61609   5.838   7.042   3.520
20456WAT     H161610   5.766   7.020   3.454
20456WAT     H261611   5.927   7.037   3.475
20457WAT      O61612   6.216   1.643   3.702
20457WAT     H161613   6.264   1.566   3.744
20457WAT     H261614   6.282   1.700   3.653
20458WAT      O61615   1.138   4.765   3.968
20458WAT     H161616   1.057   4.708   3.967
20458WAT     H261617   1.125   4.843   3.907
20459WAT      O61618   2.025   9.271   7.434
20459WAT     H161619   1.943   9.234   7.390
20459WAT     H261620   2.029   9.370   7.420
20460WAT      O61621   9.413   7.326   4.922
20460WAT     H161622   9.432   7.389   4.847
20460WAT     H261623   9.462   7.240   4.907
20461WAT      O61624   8.819   2.841   3.464
20461WAT     H161625   8.825   2.855   3.563
20461WAT     H261626   8.893   2.890   3.419
20462WAT      O61627   2.171   2.923   2.706
20462WAT     H161628   2.129   3.014   2.705
20462WAT     H261629   2.117   2.862   2.763
20463WAT      O61630   9.415   2.789   3.878
20463WAT     H161631   9.348   2.724   3.842
20463WAT     H261632   9.407   2.875   3.828
20464WAT      O61633   1.688   2.615   1.580
20464WAT     H161634   1.670   2.587   1.486
20464WAT     H261635   1.724   2.709   1.581
20465WAT      O61636   8.692   2.664   6.405
20465WAT     H161637   8.768   2.729   6.398
20465WAT     H261638   8.707   2.588   6.342
20466WAT      O61639   8.301   5.813   5.745
20466WAT     H161640   8.213   5.790   5.785
20466WAT     H261641   8.306   5.779   5.651
20467WAT      O61642   1.595   0.957   0.831
20467WAT     H161643   1.513   1.009   0.852
20467WAT     H261644   1.669   0.985   0.891
20468WAT      O61645   4.095   0.694   9.176
20468WAT     H161646   4.084   0.710   9.274
20468WAT     H261647   4.186   0.722   9.147
20469WAT      O61648   0.283   2.740   6.125
20469WAT     H161649   0.245   2.732   6.217
20469WAT     H261650   0.221   2.697   6.060
20470WAT      O61651   7.381   7.539   2.896
20470WAT     H161652   7.344   7.454   2.860
20470WAT     H261653   7.472   7.555   2.856
20471WAT      O61654   2.114   5.005   4.142
20471WAT     H161655   2.143   4.944   4.216
20471WAT     H261656   2.189   5.067   4.118
20472WAT      O61657   8.248   0.554   9.433
20472WAT     H161658   8.161   0.515   9.461
20472WAT     H261659   8.266   0.637   9.486
20473WAT      O61660   2.037   4.593   5.023
20473WAT     H161661   2.078   4.519   4.970
20473WAT     H261662   2.108   4.659   5.048
20474WAT      O61663   7.046   8.514   3.553
20474WAT     H161664   7.102   8.461   3.490
20474WAT     H261665   7.044   8.609   3.524
20475WAT      O61666   0.440   7.048   2.644
20475WAT     H161667   0.366   7.101   2.603
20475WAT     H261668   0.437   7.058   2.744
20476WAT      O61669   5.271   2.768   7.005
20476WAT     H161670   5.229   2.796   7.092
20476WAT     H261671   5.293   2.849   6.951
20477WAT      O61672   0.217   6.954   1.887
20477WAT     H161673   0.236   6.976   1.791
20477WAT     H261674   0.229   7.035   1.943
20478WAT      O61675   9.887   5.127   1.224
20478WAT     H161676   9.884   5.099   1.128
20478WAT     H261677   9.928   5.054   1.279
20479WAT      O61678   7.462   6.118   1.289
20479WAT     H161679   7.473   6.021   1.313
20479WAT     H261680   7.489   6.131   1.193
20480WAT      O61681   1.595   0.462   9.391
20480WAT     H161682   1.661   0.516   9.339
20480WAT     H261683   1.513   0.517   9.409
20481WAT      O61684   0.187   5.537   1.752
20481WAT     H161685   0.259   5.548   1.820
20481WAT     H261686   0.114   5.603   1.769
20482WAT      O61687   6.074   3.033   0.409
20482WAT     H161688   6.093   2.965   0.480
20482WAT     H261689   6.067   2.987   0.320
20483WAT      O61690   7.516   6.198   6.434
20483WAT     H161691   7.498   6.140   6.355
20483WAT     H261692   7.445   6.184   6.503
20484WAT      O61693   9.278   6.773   1.977
20484WAT     H161694   9.188   6.811   2.001
20484WAT     H261695   9.324   6.834   1.913
20485WAT      O61696   1.991   0.170   5.255
20485WAT     H161697   1.970   0.153   5.351
20485WAT     H261698   1.935   0.109   5.198
20486WAT      O61699   7.628   1.474   0.961
20486WAT     H161700   7.691   1.423   1.020
20486WAT     H261701   7.673   1.497   0.875
20487WAT      O61702   6.657   7.492   1.103
20487WAT     H161703   6.707   7.541   1.175
20487WAT     H261704   6.707   7.501   1.017
20488WAT      O61705   9.850   6.113   4.830
20488WAT     H161706   9.816   6.196   4.875
20488WAT     H261707   9.779   6.077   4.769
20489WAT      O61708   6.756   9.671   0.076
20489WAT     H161709   6.724   9.586   0.119
20489WAT     H261710   6.834   9.707   0.126
20490WAT      O61711   7.953   5.811   1.664
20490WAT     H161712   7.940   5.820   1.566
20490WAT     H261713   7.926   5.719   1.693
20491WAT      O61714   3.146   0.119   7.035
20491WAT     H161715   3.121   0.059   6.960
20491WAT     H261716   3.073   0.186   7.050
20492WAT      O61717   7.477   0.905   7.711
20492WAT     H161718   7.546   0.957   7.763
20492WAT     H261719   7.467   0.814   7.751
20493WAT      O61720   0.719   1.371   1.064
20493WAT     H161721   0.708   1.314   1.146
20493WAT     H261722   0.798   1.339   1.012
20494WAT      O61723   9.149   7.780   5.595
20494WAT     H161724   9.154   7.687   5.558
20494WAT     H261725   9.063   7.822   5.566
20495WAT      O61726   5.699   3.191   7.761
20495WAT     H161727   5.678   3.139   7.678
20495WAT     H261728   5.679   3.136   7.842
20496WAT      O61729   6.462   1.530   5.100
20496WAT     H161730   6.453   1.431   5.092
20496WAT     H261731   6.554   1.552   5.132
20497WAT      O61732   9.285   0.631   9.007
20497WAT     H161733   9.299   0.600   9.101
20497WAT     H261734   9.234   0.717   9.008
20498WAT      O61735   7.230   8.144   4.629
20498WAT     H161736   7.317   8.100   4.651
20498WAT     H261737   7.166   8.075   4.595
20499WAT      O61738   3.459   8.354   2.112
20499WAT     H161739   3.439   8.282   2.045
20499WAT     H261740   3.415   8.439   2.083
20500WAT      O61741   8.269   6.470   6.624
20500WAT     H161742   8.280   6.446   6.527
20500WAT     H261743   8.202   6.544   6.632
20501WAT      O61744   8.864   9.488   2.102
20501WAT     H161745   8.905   9.438   2.178
20501WAT     H261746   8.937   9.522   2.041
20502WAT      O61747   8.781   0.231   4.465
20502WAT     H161748   8.772   0.319   4.418
20502WAT     H261749   8.694   0.182   4.459
20503WAT      O61750   1.298   5.816   7.409
20503WAT     H161751   1.239   5.817   7.328
20503WAT     H261752   1.243   5.795   7.490
20504WAT      O61753   1.687   1.243   3.492
20504WAT     H161754   1.701   1.148   3.466
20504WAT     H261755   1.674   1.298   3.410
20505WAT      O61756   9.585   8.134   8.256
20505WAT     H161757   9.678   8.118   8.288
20505WAT     H261758   9.521   8.077   8.308
20506WAT      O61759   8.419   2.479   1.166
20506WAT     H161760   8.338   2.434   1.205
20506WAT     H261761   8.412   2.480   1.067
20507WAT      O61762   2.876   6.439   8.413
20507WAT     H161763   2.815   6.496   8.357
20507WAT     H261764   2.824   6.365   8.455
20508WAT      O61765   7.782   1.993   0.577
20508WAT     H161766   7.726   2.003   0.495
20508WAT     H261767   7.850   2.066   0.579
20509WAT      O61768   5.156   4.874   7.974
20509WAT     H161769   5.209   4.798   7.937
20509WAT     H261770   5.215   4.954   7.983
20510WAT      O61771   8.346   5.219   0.021
20510WAT     H161772   8.282   5.287   0.053
20510WAT     H261773   8.382   5.246  -0.069
20511WAT      O61774   5.057   9.411   4.271
20511WAT     H161775   5.059   9.487   4.207
20511WAT     H261776   5.139   9.355   4.260
20512WAT      O61777   3.209   1.333   6.131
20512WAT     H161778   3.123   1.378   6.105
20512WAT     H261779   3.227   1.257   6.069
20513WAT      O61780   2.322   7.008   8.367
20513WAT     H161781   2.284   6.932   8.314
20513WAT     H261782   2.306   7.094   8.319
20514WAT      O61783   5.025   5.942   3.884
20514WAT     H161784   5.106   5.976   3.933
20514WAT     H261785   5.050   5.923   3.789
20515WAT      O61786   0.568   6.948   9.177
20515WAT     H161787   0.634   6.906   9.115
20515WAT     H261788   0.480   6.960   9.130
20516WAT      O61789   0.679   7.372   6.130
20516WAT     H161790   0.659   7.470   6.134
20516WAT     H261791   0.773   7.356   6.160
20517WAT      O61792   1.717   9.672   5.201
20517WAT     H161793   1.754   9.591   5.155
20517WAT     H261794   1.626   9.652   5.235
20518WAT      O61795   2.234   0.884   3.410
20518WAT     H161796   2.188   0.957   3.461
20518WAT     H261797   2.322   0.863   3.454
20519WAT      O61798   8.868   8.752   7.135
20519WAT     H161799   8.911   8.777   7.222
20519WAT     H261800   8.811   8.670   7.149
20520WAT      O61801   2.761   7.208   0.020
20520WAT     H161802   2.680   7.152   0.037
20520WAT     H261803   2.836   7.177   0.079
20521WAT      O61804   7.547   7.487   6.643
20521WAT     H161805   7.535   7.582   6.616
20521WAT     H261806   7.532   7.478   6.741
20522WAT      O61807   3.826   3.848   4.322
20522WAT     H161808   3.816   3.752   4.348
20522WAT     H261809   3.920   3.877   4.338
20523WAT      O61810   3.390   6.971   8.852
20523WAT     H161811   3.480   6.992   8.890
20523WAT     H261812   3.319   7.015   8.907
20524WAT      O61813   0.878   3.462   2.999
20524WAT     H161814   0.872   3.534   2.930
20524WAT     H261815   0.867   3.502   3.090
20525WAT      O61816   7.516   1.535   8.180
20525WAT     H161817   7.572   1.545   8.262
20525WAT     H261818   7.541   1.450   8.133
20526WAT      O61819   9.551   4.213   7.400
20526WAT     H161820   9.521   4.302   7.432
20526WAT     H261821   9.544   4.209   7.300
20527WAT      O61822   0.536   2.040   8.279
20527WAT     H161823   0.555   2.034   8.182
20527WAT     H261824   0.494   1.955   8.311
20528WAT      O61825   9.373   0.859   0.677
20528WAT     H161826   9.348   0.832   0.771
20528WAT     H261827   9.344   0.787   0.614
20529WAT      O61828   6.785   5.037   3.063
20529WAT     H161829   6.783   5.122   3.010
20529WAT     H261830   6.778   5.058   3.160
20530WAT      O61831   0.048   5.244   4.711
20530WAT     H161832   0.122   5.304   4.680
20530WAT     H261833   0.038   5.169   4.646
20531WAT      O61834   5.860   5.019   6.997
20531WAT     H161835   5.827   5.114   6.995
20531WAT     H261836   5.940   5.010   6.937
20532WAT      O61837   6.874   9.474   8.373
20532WAT     H161838   6.882   9.543   8.445
20532WAT     H261839   6.838   9.389   8.411
20533WAT      O61840   3.796   8.779   1.449
20533WAT     H161841   3.832   8.686   1.458
20533WAT     H261842   3.791   8.803   1.352
20534WAT      O61843   4.520   5.430   1.933
20534WAT     H161844   4.595   5.493   1.911
20534WAT     H261845   4.493   5.442   2.029
20535WAT      O61846   9.088   1.180   3.832
20535WAT     H161847   9.178   1.153   3.864
20535WAT     H261848   9.098   1.239   3.752
20536WAT      O61849   0.084   8.210   4.020
20536WAT     H161850   0.044   8.233   4.108
20536WAT     H261851   0.012   8.208   3.950
20537WAT      O61852   3.872   8.417   5.792
20537WAT     H161853   3.801   8.467   5.840
20537WAT     H261854   3.833   8.336   5.748
20538WAT      O61855   4.336   9.446   4.621
20538WAT     H161856   4.353   9.489   4.709
20538WAT     H261857   4.419   9.402   4.588
20539WAT      O61858   0.984   0.040   0.817
20539WAT     H161859   1.069  -0.012   0.801
20539WAT     H261860   0.906  -0.018   0.795
20540WAT      O61861   4.167   4.214   8.105
20540WAT     H161862   4.085   4.162   8.129
20540WAT     H261863   4.162   4.243   8.009
20541WAT      O61864   2.013   4.589   5.925
20541WAT     H161865   2.012   4.490   5.937
20541WAT     H261866   1.933   4.629   5.969
20542WAT      O61867   3.767   2.030   5.709
20542WAT     H161868   3.680   1.987   5.733
20542WAT     H261869   3.836   2.003   5.775
20543WAT      O61870   2.447   7.700   6.380
20543WAT     H161871   2.486   7.637   6.313
20543WAT     H261872   2.353   7.672   6.402
20544WAT      O61873   0.790   7.262   8.133
20544WAT     H161874   0.819   7.225   8.044
20544WAT     H261875   0.840   7.215   8.206
20545WAT      O61876   5.694   8.874   5.551
20545WAT     H161877   5.733   8.785   5.574
20545WAT     H261878   5.599   8.862   5.520
20546WAT      O61879   5.836   0.907   5.585
20546WAT     H161880   5.791   0.948   5.506
20546WAT     H261881   5.767   0.860   5.642
20547WAT      O61882   5.125   1.753   6.020
20547WAT     H161883   5.052   1.812   5.986
20547WAT     H261884   5.103   1.723   6.113
20548WAT      O61885   4.487   1.551   7.128
20548WAT     H161886   4.541   1.600   7.196
20548WAT     H261887   4.426   1.615   7.081
20549WAT      O61888   1.111   3.247   9.746
20549WAT     H161889   1.172   3.315   9.703
20549WAT     H261890   1.150   3.156   9.734
20550WAT      O61891   9.709   6.421   7.231
20550WAT     H161892   9.801   6.381   7.232
20550WAT     H261893   9.643   6.352   7.202
20551WAT      O61894   0.077   4.004   2.986
20551WAT     H161895   0.107   3.975   2.895
20551WAT     H261896  -0.014   3.966   3.004
20552WAT      O61897   9.867   5.552   6.186
20552WAT     H161898   9.871   5.469   6.130
20552WAT     H261899   9.952   5.605   6.173
20553WAT      O61900   2.172   0.447   3.943
20553WAT     H161901   2.203   0.491   3.858
20553WAT     H261902   2.189   0.509   4.020
20554WAT      O61903   3.995   5.843   4.575
20554WAT     H161904   4.027   5.870   4.484
20554WAT     H261905   3.935   5.764   4.567
20555WAT      O61906   0.835   4.593   4.856
20555WAT     H161907   0.753   4.560   4.809
20555WAT     H261908   0.831   4.693   4.862
20556WAT      O61909   3.889   3.013   2.404
20556WAT     H161910   3.863   2.929   2.451
20556WAT     H261911   3.852   3.012   2.310
20557WAT      O61912   8.478   7.514   7.603
20557WAT     H161913   8.513   7.428   7.639
20557WAT     H261914   8.433   7.498   7.515
20558WAT      O61915   4.538   4.763   7.896
20558WAT     H161916   4.540   4.709   7.980
20558WAT     H261917   4.617   4.741   7.840
20559WAT      O61918   6.429   9.400   7.788
20559WAT     H161919   6.502   9.331   7.789
20559WAT     H261920   6.469   9.490   7.774
20560WAT      O61921   5.001   4.225   7.944
20560WAT     H161922   5.033   4.282   7.869
20560WAT     H261923   4.962   4.141   7.907
20561WAT      O61924   6.342   6.119   1.179
20561WAT     H161925   6.303   6.123   1.271
20561WAT     H261926   6.351   6.212   1.143
20562WAT      O61927   9.291   2.039   4.357
20562WAT     H161928   9.238   2.114   4.320
20562WAT     H261929   9.343   2.071   4.436
20563WAT      O61930   5.157   3.571   8.436
20563WAT     H161931   5.124   3.658   8.401
20563WAT     H261932   5.149   3.570   8.536
20564WAT      O61933   7.443   3.120   0.766
20564WAT     H161934   7.405   3.076   0.685
20564WAT     H261935   7.530   3.162   0.743
20565WAT      O61936   6.122   2.350   2.660
20565WAT     H161937   6.112   2.252   2.641
20565WAT     H261938   6.208   2.366   2.709
20566WAT      O61939   5.874   3.381   9.201
20566WAT     H161940   5.834   3.409   9.288
20566WAT     H261941   5.936   3.453   9.168
20567WAT      O61942   2.667   7.311   0.793
20567WAT     H161943   2.694   7.222   0.757
20567WAT     H261944   2.574   7.332   0.766
20568WAT      O61945   3.567   2.811   1.371
20568WAT     H161946   3.661   2.799   1.402
20568WAT     H261947   3.551   2.753   1.291
20569WAT      O61948   0.207   2.847   7.477
20569WAT     H161949   0.158   2.760   7.479
20569WAT     H261950   0.288   2.840   7.536
20570WAT      O61951   4.352   6.169   0.708
20570WAT     H161952   4.295   6.089   0.691
20570WAT     H261953   4.335   6.238   0.638
20571WAT      O61954   3.436   3.614   4.255
20571WAT     H161955   3.484   3.534   4.219
20571WAT     H261956   3.478   3.697   4.219
20572WAT      O61957   5.082   5.095   8.432
20572WAT     H161958   5.066   5.124   8.338
20572WAT     H261959   5.029   5.012   8.451
20573WAT      O61960   2.741   9.545   3.339
20573WAT     H161961   2.784   9.516   3.425
20573WAT     H261962   2.698   9.635   3.352
20574WAT      O61963   9.874   0.755   4.079
20574WAT     H161964   9.836   0.721   3.993
20574WAT     H261965   9.951   0.698   4.107
20575WAT      O61966   5.274   4.066   7.801
20575WAT     H161967   5.342   4.136   7.778
20575WAT     H261968   5.317   3.994   7.856
20576WAT      O61969   8.814   3.377   1.258
20576WAT     H161970   8.911   3.351   1.255
20576WAT     H261971   8.803   3.457   1.317
20577WAT      O61972   8.581   8.772   5.332
20577WAT     H161973   8.559   8.727   5.245
20577WAT     H261974   8.497   8.806   5.374
20578WAT      O61975   2.764   6.582   6.828
20578WAT     H161976   2.707   6.662   6.848
20578WAT     H261977   2.820   6.601   6.747
20579WAT      O61978   5.644   7.174   0.401
20579WAT     H161979   5.630   7.080   0.372
20579WAT     H261980   5.707   7.219   0.337
20580WAT      O61981   8.037   0.828   4.829
20580WAT     H161982   8.117   0.884   4.808
20580WAT     H261983   8.010   0.776   4.748
20581WAT      O61984   3.928   9.465   3.684
20581WAT     H161985   3.845   9.439   3.635
20581WAT     H261986   3.905   9.533   3.754
20582WAT      O61987   6.911   2.093   0.519
20582WAT     H161988   7.007   2.069   0.536
20582WAT     H261989   6.858   2.080   0.602
20583WAT      O61990   0.925   3.380   5.847
20583WAT     H161991   1.013   3.420   5.872
20583WAT     H261992   0.937   3.315   5.772
20584WAT      O61993   7.402   0.550   6.553
20584WAT     H161994   7.393   0.579   6.648
20584WAT     H261995   7.422   0.453   6.548
20585WAT      O61996   0.075   9.477   2.611
20585WAT     H161997   0.042   9.557   2.560
20585WAT     H261998   0.146   9.505   2.675
20586WAT      O61999   5.817   0.716   3.040
20586WAT     H162000   5.867   0.641   3.083
20586WAT     H262001   5.829   0.713   2.941
20587WAT      O62002   0.281   8.477   0.108
20587WAT     H162003   0.269   8.533   0.026
20587WAT     H262004   0.376   8.448   0.115
20588WAT      O62005   8.060   4.816   8.010
20588WAT     H162006   8.019   4.724   8.013
20588WAT     H262007   8.105   4.829   7.921
20589WAT      O62008   6.819   2.442   6.543
20589WAT     H162009   6.759   2.382   6.596
20589WAT     H262010   6.850   2.394   6.461
20590WAT      O62011   6.228   1.308   5.047
20590WAT     H162012   6.149   1.368   5.037
20590WAT     H262013   6.289   1.318   4.969
20591WAT      O62014   7.169   9.428   7.894
20591WAT     H162015   7.128   9.386   7.813
20591WAT     H262016   7.268   9.435   7.881
20592WAT      O62017   1.726   2.589   9.351
20592WAT     H162018   1.664   2.512   9.340
20592WAT     H262019   1.788   2.571   9.427
20593WAT      O62020   2.664   0.231   7.985
20593WAT     H162021   2.738   0.296   7.972
20593WAT     H262022   2.594   0.270   8.046
20594WAT      O62023   8.014   9.150   1.729
20594WAT     H162024   8.073   9.089   1.676
20594WAT     H262025   8.005   9.238   1.682
20595WAT      O62026   0.149   9.000   3.168
20595WAT     H162027   0.141   9.012   3.069
20595WAT     H262028   0.239   8.962   3.190
20596WAT      O62029   7.436   2.873   1.198
20596WAT     H162030   7.526   2.914   1.213
20596WAT     H262031   7.415   2.810   1.272
20597WAT      O62032   9.142   6.486   6.598
20597WAT     H162033   9.143   6.581   6.569
20597WAT     H262034   9.112   6.428   6.522
20598WAT      O62035   9.837   4.670   2.050
20598WAT     H162036   9.761   4.727   2.019
20598WAT     H262037   9.846   4.591   1.990
20599WAT      O62038   3.224   0.506   2.438
20599WAT     H162039   3.255   0.539   2.527
20599WAT     H262040   3.125   0.495   2.439
20600WAT      O62041   6.431   3.530   9.795
20600WAT     H162042   6.497   3.602   9.775
20600WAT     H262043   6.399   3.488   9.710
20601WAT      O62044   9.283   4.394   9.164
20601WAT     H162045   9.320   4.483   9.191
20601WAT     H262046   9.283   4.332   9.243
20602WAT      O62047   2.766   8.072   1.463
20602WAT     H162048   2.840   8.099   1.401
20602WAT     H262049   2.759   7.973   1.465
20603WAT      O62050   7.685   6.346   5.441
20603WAT     H162051   7.673   6.437   5.401
20603WAT     H262052   7.742   6.290   5.381
20604WAT      O62053   8.928   5.601   3.415
20604WAT     H162054   8.849   5.662   3.407
20604WAT     H262055   8.982   5.605   3.330
20605WAT      O62056   3.109   4.159   0.321
20605WAT     H162057   3.060   4.120   0.243
20605WAT     H262058   3.163   4.088   0.366
20606WAT      O62059   5.275   9.050   0.859
20606WAT     H162060   5.206   8.990   0.816
20606WAT     H262061   5.324   8.999   0.929
20607WAT      O62062   6.884   3.969   6.495
20607WAT     H162063   6.878   3.987   6.594
20607WAT     H262064   6.980   3.962   6.468
20608WAT      O62065   8.845   0.556   8.941
20608WAT     H162066   8.765   0.609   8.912
20608WAT     H262067   8.918   0.565   8.872
20609WAT      O62068   0.496   3.287   9.164
20609WAT     H162069   0.525   3.359   9.102
20609WAT     H262070   0.498   3.321   9.258
20610WAT      O62071   2.213   0.080   3.458
20610WAT     H162072   2.208   0.164   3.511
20610WAT     H262073   2.170   0.094   3.369
20611WAT      O62074   3.642   8.767   3.341
20611WAT     H162075   3.669   8.862   3.330
20611WAT     H262076   3.574   8.743   3.272
20612WAT      O62077   5.760   5.071   7.456
20612WAT     H162078   5.825   5.012   7.504
20612WAT     H262079   5.805   5.114   7.378
20613WAT      O62080   2.571   9.150   2.882
20613WAT     H162081   2.555   9.246   2.907
20613WAT     H262082   2.662   9.122   2.913
20614WAT      O62083   1.933   3.126   0.545
20614WAT     H162084   2.023   3.088   0.522
20614WAT     H262085   1.904   3.188   0.472
20615WAT      O62086   7.381   0.176   5.390
20615WAT     H162087   7.401   0.194   5.293
20615WAT     H262088   7.339   0.085   5.398
20616WAT      O62089   8.496   7.401   9.759
20616WAT     H162090   8.436   7.424   9.683
20616WAT     H262091   8.551   7.480   9.785
20617WAT      O62092   1.935   0.117   1.821
20617WAT     H162093   1.956   0.042   1.759
20617WAT     H262094   1.922   0.081   1.914
20618WAT      O62095   1.388   1.481   4.437
20618WAT     H162096   1.363   1.431   4.520
20618WAT     H262097   1.350   1.573   4.441
20619WAT      O62098   3.808   2.269   1.296
20619WAT     H162099   3.743   2.272   1.220
20619WAT     H262100   3.896   2.233   1.263
20620WAT      O62101   5.733   4.649   2.385
20620WAT     H162102   5.634   4.634   2.377
20620WAT     H262103   5.781   4.562   2.374
20621WAT      O62104   4.344   5.957   1.966
20621WAT     H162105   4.262   5.900   1.966
20621WAT     H262106   4.320   6.049   1.996
20622WAT      O62107   8.708   2.391   6.835
20622WAT     H162108   8.781   2.353   6.892
20622WAT     H262109   8.691   2.486   6.862
20623WAT      O62110   1.251   1.526   7.617
20623WAT     H162111   1.296   1.499   7.701
20623WAT     H262112   1.152   1.524   7.630
20624WAT      O62113   0.873   3.587   1.789
20624WAT     H162114   0.935   3.587   1.711
20624WAT     H262115   0.918   3.628   1.868
20625WAT      O62116   0.050   9.555   8.661
20625WAT     H162117  -0.012   9.631   8.642
20625WAT     H262118   0.091   9.567   8.751
20626WAT      O62119   6.120   8.982   9.401
20626WAT     H162120   6.059   8.999   9.324
20626WAT     H262121   6.213   8.968   9.367
20627WAT      O62122   9.664   9.113   7.881
20627WAT     H162123   9.749   9.088   7.927
20627WAT     H262124   9.644   9.047   7.809
20628WAT      O62125   2.333   1.796   4.298
20628WAT     H162126   2.236   1.774   4.294
20628WAT     H262127   2.347   1.892   4.272
20629WAT      O62128   4.621   3.248   7.635
20629WAT     H162129   4.667   3.325   7.591
20629WAT     H262130   4.606   3.268   7.731
20630WAT      O62131   9.231   5.334   8.912
20630WAT     H162132   9.259   5.270   8.841
20630WAT     H262133   9.276   5.311   8.998
20631WAT      O62134   3.245   2.585   6.152
20631WAT     H162135   3.205   2.669   6.188
20631WAT     H262136   3.270   2.525   6.228
20632WAT      O62137   1.659   4.444   0.859
20632WAT     H162138   1.592   4.380   0.895
20632WAT     H262139   1.741   4.443   0.917
20633WAT      O62140   8.241   2.944   0.058
20633WAT     H162141   8.205   3.010   0.124
20633WAT     H262142   8.201   2.961  -0.032
20634WAT      O62143   2.133   9.407   5.933
20634WAT     H162144   2.150   9.320   5.888
20634WAT     H262145   2.162   9.482   5.873
20635WAT      O62146   6.629   0.784   0.845
20635WAT     H162147   6.695   0.843   0.800
20635WAT     H262148   6.635   0.692   0.808
20636WAT      O62149   7.052   0.669   1.404
20636WAT     H162150   7.039   0.673   1.503
20636WAT     H262151   7.106   0.748   1.375
20637WAT      O62152   0.921   7.737   4.212
20637WAT     H162153   0.858   7.743   4.134
20637WAT     H262154   1.015   7.737   4.178
20638WAT      O62155   6.389   3.738   2.640
20638WAT     H162156   6.454   3.763   2.568
20638WAT     H262157   6.419   3.654   2.684
20639WAT      O62158   6.528   6.129   9.494
20639WAT     H162159   6.539   6.197   9.422
20639WAT     H262160   6.479   6.169   9.571
20640WAT      O62161   8.730   9.341   6.107
20640WAT     H162162   8.643   9.302   6.077
20640WAT     H262163   8.805   9.280   6.081
20641WAT      O62164   6.865   2.930   0.228
20641WAT     H162165   6.891   2.927   0.325
20641WAT     H262166   6.929   2.874   0.175
20642WAT      O62167   1.686   5.618   5.148
20642WAT     H162168   1.746   5.610   5.069
20642WAT     H262169   1.601   5.665   5.121
20643WAT      O62170   0.921   4.389   2.086
20643WAT     H162171   1.014   4.352   2.080
20643WAT     H262172   0.876   4.382   1.997
20644WAT      O62173   0.705   1.297   3.599
20644WAT     H162174   0.745   1.307   3.690
20644WAT     H262175   0.778   1.285   3.532
20645WAT      O62176   6.209   7.599   9.851
20645WAT     H162177   6.196   7.646   9.938
20645WAT     H262178   6.250   7.510   9.867
20646WAT      O62179   2.484   1.094   8.469
20646WAT     H162180   2.494   1.186   8.433
20646WAT     H262181   2.388   1.077   8.491
20647WAT      O62182   2.782   2.786   7.984
20647WAT     H162183   2.722   2.851   8.030
20647WAT     H262184   2.859   2.763   8.042
20648WAT      O62185   4.692   2.122   0.320
20648WAT     H162186   4.636   2.039   0.322
20648WAT     H262187   4.643   2.194   0.272
20649WAT      O62188   0.900   2.992   4.135
20649WAT     H162189   0.828   3.061   4.144
20649WAT     H262190   0.896   2.929   4.212
20650WAT      O62191   4.598   5.234   9.613
20650WAT     H162192   4.558   5.321   9.643
20650WAT     H262193   4.568   5.214   9.520
20651WAT      O62194   8.206   1.902   2.223
20651WAT     H162195   8.174   1.810   2.244
20651WAT     H262196   8.142   1.947   2.161
20652WAT      O62197   5.947   1.332   0.800
20652WAT     H162198   5.985   1.320   0.892
20652WAT     H262199   5.913   1.244   0.767
20653WAT      O62200   3.636   5.303   8.744
20653WAT     H162201   3.542   5.337   8.741
20653WAT     H262202   3.655   5.268   8.836
20654WAT      O62203   8.783   7.741   6.144
20654WAT     H162204   8.819   7.815   6.087
20654WAT     H262205   8.781   7.770   6.240
20655WAT      O62206   6.937   6.104   3.204
20655WAT     H162207   6.842   6.111   3.234
20655WAT     H262208   6.989   6.049   3.269
20656WAT      O62209   6.987   3.728   7.988
20656WAT     H162210   7.048   3.688   8.056
20656WAT     H262211   6.897   3.684   7.993
20657WAT      O62212   0.498   1.506   7.578
20657WAT     H162213   0.480   1.449   7.658
20657WAT     H262214   0.562   1.460   7.518
20658WAT      O62215   4.903   2.139   9.480
20658WAT     H162216   4.945   2.230   9.478
20658WAT     H262217   4.901   2.101   9.388
20659WAT      O62218   3.054   9.177   7.970
20659WAT     H162219   3.136   9.232   7.986
20659WAT     H262220   3.019   9.196   7.878
20660WAT      O62221   0.811   3.793   3.091
20660WAT     H162222   0.841   3.718   3.150
20660WAT     H262223   0.731   3.764   3.038
20661WAT      O62224   7.173   7.689   2.607
20661WAT     H162225   7.175   7.712   2.509
20661WAT     H262226   7.139   7.596   2.619
20662WAT      O62227   0.235   1.777   0.977
20662WAT     H162228   0.259   1.815   0.888
20662WAT     H262229   0.285   1.826   1.049
20663WAT      O62230   8.747   7.243   1.310
20663WAT     H162231   8.715   7.148   1.312
20663WAT     H262232   8.789   7.261   1.221
20664WAT      O62233   7.992   1.806   0.380
20664WAT     H162234   8.009   1.881   0.316
20664WAT     H262235   7.911   1.755   0.350
20665WAT      O62236   0.997   0.529   9.265
20665WAT     H162237   1.042   0.615   9.244
20665WAT     H262238   1.066   0.459   9.285
20666WAT      O62239   5.769   7.823   9.513
20666WAT     H162240   5.863   7.818   9.478
20666WAT     H262241   5.717   7.891   9.461
20667WAT      O62242   6.045   0.902   4.308
20667WAT     H162243   5.987   0.825   4.279
20667WAT     H262244   6.111   0.922   4.236
20668WAT      O62245   6.485   5.725   0.850
20668WAT     H162246   6.422   5.749   0.777
20668WAT     H262247   6.579   5.746   0.821
20669WAT      O62248   1.594   2.510   6.097
20669WAT     H162249   1.557   2.578   6.034
20669WAT     H262250   1.535   2.503   6.177
20670WAT      O62251   1.493   7.753   9.247
20670WAT     H162252   1.397   7.728   9.234
20670WAT     H262253   1.535   7.772   9.158
20671WAT      O62254   9.369   9.084   1.639
20671WAT     H162255   9.292   9.139   1.670
20671WAT     H262256   9.338   8.991   1.619
20672WAT      O62257   2.079   5.939   8.995
20672WAT     H162258   2.100   5.862   8.934
20672WAT     H262259   2.156   6.002   8.997
20673WAT      O62260   2.606   6.813   6.850
20673WAT     H162261   2.566   6.816   6.941
20673WAT     H262262   2.550   6.756   6.790
20674WAT      O62263   9.627   7.772   4.858
20674WAT     H162264   9.663   7.860   4.827
20674WAT     H262265   9.703   7.715   4.890
20675WAT      O62266   0.481   8.089   5.858
20675WAT     H162267   0.560   8.065   5.802
20675WAT     H262268   0.501   8.172   5.911
20676WAT      O62269   5.891   5.382   5.997
20676WAT     H162270   5.951   5.338   6.065
20676WAT     H262271   5.932   5.372   5.906
20677WAT      O62272   7.617   5.205   0.318
20677WAT     H162273   7.662   5.170   0.236
20677WAT     H262274   7.585   5.299   0.300
20678WAT      O62275   3.383   5.813   6.617
20678WAT     H162276   3.448   5.738   6.601
20678WAT     H262277   3.403   5.856   6.704
20679WAT      O62278   6.944   9.074   7.093
20679WAT     H162279   6.892   8.989   7.084
20679WAT     H262280   6.975   9.104   7.002
20680WAT      O62281   3.267   7.469   5.556
20680WAT     H162282   3.216   7.388   5.586
20680WAT     H262283   3.206   7.549   5.556
20681WAT      O62284   4.347   3.076   1.239
20681WAT     H162285   4.343   2.979   1.215
20681WAT     H262286   4.291   3.130   1.176
20682WAT      O62287   4.030   1.577   6.953
20682WAT     H162288   3.944   1.526   6.948
20682WAT     H262289   4.094   1.543   6.884
20683WAT      O62290   2.740   0.815   4.278
20683WAT     H162291   2.692   0.902   4.266
20683WAT     H262292   2.751   0.797   4.376
20684WAT      O62293   2.454   1.396   9.391
20684WAT     H162294   2.433   1.489   9.420
20684WAT     H262295   2.404   1.331   9.450
20685WAT      O62296   4.711   5.017   9.748
20685WAT     H162297   4.797   5.002   9.700
20685WAT     H262298   4.653   5.079   9.695
20686WAT      O62299   4.204   1.202   7.116
20686WAT     H162300   4.277   1.251   7.069
20686WAT     H262301   4.141   1.163   7.049
20687WAT      O62302   1.328   6.971   0.764
20687WAT     H162303   1.334   7.021   0.677
20687WAT     H262304   1.368   6.881   0.753
20688WAT      O62305   1.518   9.316   8.319
20688WAT     H162306   1.556   9.401   8.355
20688WAT     H262307   1.562   9.295   8.231
20689WAT      O62308   4.505   4.172   4.434
20689WAT     H162309   4.544   4.182   4.525
20689WAT     H262310   4.550   4.236   4.371
20690WAT      O62311   9.319   1.960   6.735
20690WAT     H162312   9.330   2.035   6.671
20690WAT     H262313   9.406   1.910   6.744
20691WAT      O62314   6.705   2.379   4.518
20691WAT     H162315   6.783   2.329   4.556
20691WAT     H262316   6.658   2.427   4.592
20692WAT      O62317   0.369   9.274   9.537
20692WAT     H162318   0.353   9.301   9.632
20692WAT     H262319   0.284   9.237   9.499
20693WAT      O62320   0.771   4.818   3.248
20693WAT     H162321   0.773   4.719   3.263
20693WAT     H262322   0.690   4.857   3.291
20694WAT      O62323   0.180   6.464   4.566
20694WAT     H162324   0.235   6.537   4.605
20694WAT     H262325   0.234   6.380   4.563
20695WAT      O62326   6.384   5.689   2.522
20695WAT     H162327   6.390   5.743   2.606
20695WAT     H262328   6.473   5.645   2.505
20696WAT      O62329   6.230   6.253   1.469
20696WAT     H162330   6.194   6.329   1.414
20696WAT     H262331   6.243   6.283   1.563
20697WAT      O62332   6.307   3.925   8.432
20697WAT     H162333   6.231   3.977   8.470
20697WAT     H262334   6.304   3.931   8.332
20698WAT      O62335   7.513   8.236   6.654
20698WAT     H162336   7.568   8.156   6.632
20698WAT     H262337   7.522   8.304   6.581
20699WAT      O62338   5.915   7.801   8.273
20699WAT     H162339   5.879   7.717   8.313
20699WAT     H262340   6.001   7.825   8.318
20700WAT      O62341   3.337   3.214   2.098
20700WAT     H162342   3.306   3.120   2.078
20700WAT     H262343   3.331   3.269   2.015
20701WAT      O62344   9.548   6.147   1.921
20701WAT     H162345   9.623   6.127   1.983
20701WAT     H262346   9.583   6.192   1.839
20702WAT      O62347   3.706   3.688   9.417
20702WAT     H162348   3.658   3.604   9.443
20702WAT     H262349   3.763   3.671   9.336
20703WAT      O62350   4.679   0.109   3.747
20703WAT     H162351   4.629   0.081   3.829
20703WAT     H262352   4.776   0.089   3.758
20704WAT      O62353   5.616   7.542   0.309
20704WAT     H162354   5.709   7.533   0.345
20704WAT     H262355   5.555   7.572   0.383
20705WAT      O62356   5.276   0.181   9.875
20705WAT     H162357   5.230   0.260   9.835
20705WAT     H262358   5.271   0.186   9.975
20706WAT      O62359   2.317   3.457   4.475
20706WAT     H162360   2.398   3.481   4.421
20706WAT     H262361   2.237   3.505   4.438
20707WAT      O62362   3.015   9.517   8.162
20707WAT     H162363   2.965   9.465   8.092
20707WAT     H262364   2.954   9.587   8.201
20708WAT      O62365   2.358   2.357   9.145
20708WAT     H162366   2.425   2.414   9.097
20708WAT     H262367   2.284   2.331   9.083
20709WAT      O62368   0.206   0.520   1.645
20709WAT     H162369   0.109   0.502   1.633
20709WAT     H262370   0.238   0.473   1.728
20710WAT      O62371   1.005   3.397   9.289
20710WAT     H162372   1.006   3.306   9.329
20710WAT     H262373   0.912   3.433   9.290
20711WAT      O62374   4.958   0.766   1.275
20711WAT     H162375   5.034   0.800   1.220
20711WAT     H262376   4.912   0.693   1.225
20712WAT      O62377   5.103   8.483   9.325
20712WAT     H162378   5.144   8.531   9.403
20712WAT     H262379   5.175   8.433   9.276
20713WAT      O62380   9.723   6.360   3.891
20713WAT     H162381   9.640   6.353   3.835
20713WAT     H262382   9.796   6.399   3.835
20714WAT      O62383   8.428   2.950   3.800
20714WAT     H162384   8.373   3.025   3.763
20714WAT     H262385   8.517   2.985   3.829
20715WAT      O62386   9.353   8.486   7.036
20715WAT     H162387   9.368   8.582   7.062
20715WAT     H262388   9.423   8.458   6.970
20716WAT      O62389   2.916   7.553   8.481
20716WAT     H162390   2.943   7.478   8.420
20716WAT     H262391   2.938   7.640   8.439
20717WAT      O62392   8.432   6.159   0.633
20717WAT     H162393   8.390   6.216   0.703
20717WAT     H262394   8.363   6.134   0.564
20718WAT      O62395   0.481   1.113   9.203
20718WAT     H162396   0.413   1.137   9.134
20718WAT     H262397   0.559   1.175   9.196
20719WAT      O62398   2.432   9.194   7.954
20719WAT     H162399   2.366   9.250   8.005
20719WAT     H262400   2.519   9.192   8.003
20720WAT      O62401   3.054   1.097   0.132
20720WAT     H162402   2.982   1.140   0.187
20720WAT     H262403   3.022   1.089   0.037
20721WAT      O62404   9.657   4.922   1.664
20721WAT     H162405   9.621   5.013   1.685
20721WAT     H262406   9.719   4.893   1.737
20722WAT      O62407   8.901   8.106   6.786
20722WAT     H162408   8.995   8.124   6.814
20722WAT     H262409   8.900   8.046   6.706
20723WAT      O62410   1.990   6.368   5.768
20723WAT     H162411   1.941   6.416   5.841
20723WAT     H262412   1.965   6.409   5.680
20724WAT      O62413   6.673   0.486   5.293
20724WAT     H162414   6.731   0.447   5.365
20724WAT     H262415   6.587   0.517   5.333
20725WAT      O62416   4.509   3.054   2.642
20725WAT     H162417   4.574   3.128   2.662
20725WAT     H262418   4.557   2.975   2.604
20726WAT      O62419   0.528   6.937   9.448
20726WAT     H162420   0.616   6.955   9.490
20726WAT     H262421   0.540   6.924   9.349
20727WAT      O62422   4.256   8.651   5.290
20727WAT     H162423   4.195   8.592   5.343
20727WAT     H262424   4.202   8.711   5.231
20728WAT      O62425   6.239   9.180   7.228
20728WAT     H162426   6.210   9.250   7.162
20728WAT     H262427   6.265   9.097   7.179
20729WAT      O62428   2.309   4.732   2.144
20729WAT     H162429   2.269   4.820   2.170
20729WAT     H262430   2.397   4.747   2.099
20730WAT      O62431   0.749   8.120   4.939
20730WAT     H162432   0.650   8.130   4.931
20730WAT     H262433   0.794   8.167   4.863
20731WAT      O62434   2.949   5.690   0.696
20731WAT     H162435   2.995   5.603   0.678
20731WAT     H262436   2.962   5.716   0.792
20732WAT      O62437   6.366   2.149   6.969
20732WAT     H162438   6.417   2.148   6.883
20732WAT     H262439   6.285   2.091   6.961
20733WAT      O62440   5.104   3.827   6.432
20733WAT     H162441   5.169   3.899   6.409
20733WAT     H262442   5.147   3.738   6.423
20734WAT      O62443   8.368   5.907   3.074
20734WAT     H162444   8.437   5.835   3.064
20734WAT     H262445   8.334   5.933   2.984
20735WAT      O62446   2.752   3.013   7.731
20735WAT     H162447   2.799   3.045   7.649
20735WAT     H262448   2.785   3.063   7.811
20736WAT      O62449   6.319   9.725   0.558
20736WAT     H162450   6.308   9.807   0.614
20736WAT     H262451   6.231   9.677   0.551
20737WAT      O62452   9.055   5.046   4.365
20737WAT     H162453   8.996   5.030   4.286
20737WAT     H262454   9.104   4.962   4.388
20738WAT      O62455   6.876   0.460   3.884
20738WAT     H162456   6.888   0.424   3.976
20738WAT     H262457   6.821   0.543   3.888
20739WAT      O62458   9.134   0.221   2.448
20739WAT     H162459   9.110   0.190   2.541
20739WAT     H262460   9.116   0.147   2.384
20740WAT      O62461   4.418   0.908   0.181
20740WAT     H162462   4.348   0.941   0.118
20740WAT     H262463   4.425   0.808   0.174
20741WAT      O62464   6.909   6.615   2.603
20741WAT     H162465   6.845   6.578   2.670
20741WAT     H262466   6.996   6.635   2.647
20742WAT      O62467   3.856   2.557   4.339
20742WAT     H162468   3.871   2.521   4.247
20742WAT     H262469   3.943   2.585   4.378
20743WAT      O62470   9.616   3.314   0.495
20743WAT     H162471   9.645   3.225   0.458
20743WAT     H262472   9.661   3.387   0.444
20744WAT      O62473   6.512   7.920   6.170
20744WAT     H162474   6.581   7.860   6.212
20744WAT     H262475   6.421   7.884   6.188
20745WAT      O62476   1.554   2.221   3.813
20745WAT     H162477   1.563   2.174   3.900
20745WAT     H262478   1.585   2.315   3.821
20746WAT      O62479   3.870   7.901   9.647
20746WAT     H162480   3.898   7.807   9.666
20746WAT     H262481   3.951   7.958   9.630
20747WAT      O62482   5.109   9.741   3.010
20747WAT     H162483   5.171   9.819   3.002
20747WAT     H262484   5.018   9.772   3.038
20748WAT      O62485   4.675   0.344   4.344
20748WAT     H162486   4.726   0.324   4.428
20748WAT     H262487   4.595   0.400   4.366
20749WAT      O62488   1.813   2.601   6.786
20749WAT     H162489   1.856   2.628   6.872
20749WAT     H262490   1.771   2.511   6.796
20750WAT      O62491   8.276   2.580   5.955
20750WAT     H162492   8.182   2.591   5.987
20750WAT     H262493   8.337   2.569   6.033
20751WAT      O62494   9.602   9.798   5.130
20751WAT     H162495   9.687   9.797   5.078
20751WAT     H262496   9.531   9.748   5.079
20752WAT      O62497   6.285   5.419   7.820
20752WAT     H162498   6.329   5.449   7.905
20752WAT     H262499   6.220   5.488   7.790
20753WAT      O62500   7.784   6.163   4.967
20753WAT     H162501   7.790   6.262   4.978
20753WAT     H262502   7.868   6.129   4.925
20754WAT      O62503   8.343   9.211   3.629
20754WAT     H162504   8.418   9.251   3.681
20754WAT     H262505   8.294   9.145   3.685
20755WAT      O62506   8.343   0.026   2.011
20755WAT     H162507   8.350   0.029   2.111
20755WAT     H262508   8.278   0.095   1.980
20756WAT      O62509   8.789   2.472   6.228
20756WAT     H162510   8.744   2.433   6.148
20756WAT     H262511   8.887   2.480   6.210
20757WAT      O62512   6.017   9.475   5.552
20757WAT     H162513   6.050   9.497   5.461
20757WAT     H262514   6.060   9.537   5.619
20758WAT      O62515   5.043   8.420   6.186
20758WAT     H162516   4.988   8.437   6.268
20758WAT     H262517   4.984   8.411   6.106
20759WAT      O62518   3.907   9.067   5.752
20759WAT     H162519   4.006   9.050   5.753
20759WAT     H262520   3.861   8.991   5.707
20760WAT      O62521   7.699   0.299   3.114
20760WAT     H162522   7.713   0.337   3.205
20760WAT     H262523   7.676   0.202   3.122
20761WAT      O62524   6.670   2.298   2.958
20761WAT     H162525   6.653   2.292   3.056
20761WAT     H262526   6.767   2.282   2.940
20762WAT      O62527   8.207   4.418   8.248
20762WAT     H162528   8.225   4.378   8.338
20762WAT     H262529   8.110   4.407   8.225
20763WAT      O62530   1.346   3.214   4.718
20763WAT     H162531   1.368   3.145   4.649
20763WAT     H262532   1.298   3.171   4.794
20764WAT      O62533   5.656   5.177   9.605
20764WAT     H162534   5.706   5.255   9.567
20764WAT     H262535   5.689   5.093   9.563
20765WAT      O62536   4.997   0.335   4.722
20765WAT     H162537   5.052   0.338   4.805
20765WAT     H262538   5.004   0.245   4.680
20766WAT      O62539   8.919   3.118   2.197
20766WAT     H162540   8.949   3.201   2.244
20766WAT     H262541   8.958   3.038   2.243
20767WAT      O62542   2.245   9.047   5.368
20767WAT     H162543   2.293   9.007   5.290
20767WAT     H262544   2.219   9.141   5.346
20768WAT      O62545   7.800   3.015   0.914
20768WAT     H162546   7.745   3.082   0.964
20768WAT     H262547   7.786   2.924   0.953
20769WAT      O62548   9.620   4.092   6.256
20769WAT     H162549   9.678   4.174   6.249
20769WAT     H262550   9.665   4.016   6.210
20770WAT      O62551   9.689   7.933   2.587
20770WAT     H162552   9.734   7.964   2.670
20770WAT     H262553   9.750   7.946   2.509
20771WAT      O62554   4.451   0.169   8.202
20771WAT     H162555   4.485   0.250   8.249
20771WAT     H262556   4.508   0.090   8.226
20772WAT      O62557   6.976   9.739   2.115
20772WAT     H162558   6.994   9.658   2.171
20772WAT     H262559   6.924   9.712   2.034
20773WAT      O62560   0.253   6.384   8.008
20773WAT     H162561   0.245   6.290   8.040
20773WAT     H262562   0.180   6.403   7.942
20774WAT      O62563   2.403   3.454   6.451
20774WAT     H162564   2.304   3.461   6.447
20774WAT     H262565   2.443   3.545   6.464
20775WAT      O62566   8.622   4.021   3.916
20775WAT     H162567   8.660   4.080   3.845
20775WAT     H262568   8.565   4.075   3.978
20776WAT      O62569   3.864   1.791   2.313
20776WAT     H162570   3.782   1.752   2.270
20776WAT     H262571   3.842   1.824   2.405
20777WAT      O62572   1.493   7.184   3.537
20777WAT     H162573   1.443   7.100   3.559
20777WAT     H262574   1.588   7.162   3.518
20778WAT      O62575   5.911   1.608   9.349
20778WAT     H162576   5.820   1.639   9.377
20778WAT     H262577   5.916   1.508   9.352
20779WAT      O62578   8.977   5.874   4.913
20779WAT     H162579   9.026   5.937   4.973
20779WAT     H262580   8.892   5.845   4.957
20780WAT      O62581   9.083   1.268   5.462
20780WAT     H162582   9.019   1.343   5.482
20780WAT     H262583   9.031   1.188   5.430
20781WAT      O62584   6.504   8.720   3.638
20781WAT     H162585   6.555   8.741   3.722
20781WAT     H262586   6.421   8.670   3.662
20782WAT      O62587   5.350   2.107   0.745
20782WAT     H162588   5.359   2.017   0.789
20782WAT     H262589   5.301   2.097   0.659
20783WAT      O62590   3.834   3.558   8.764
20783WAT     H162591   3.738   3.578   8.787
20783WAT     H262592   3.843   3.548   8.665
20784WAT      O62593   0.984   6.666   5.628
20784WAT     H162594   0.999   6.577   5.585
20784WAT     H262595   0.887   6.689   5.624
20785WAT      O62596   3.020   6.035   1.890
20785WAT     H162597   3.090   5.963   1.890
20785WAT     H262598   2.944   6.007   1.949
20786WAT      O62599   8.398   0.729   0.293
20786WAT     H162600   8.447   0.697   0.212
20786WAT     H262601   8.460   0.729   0.371
20787WAT      O62602   9.878   4.414   8.904
20787WAT     H162603   9.830   4.413   8.816
20787WAT     H262604   9.885   4.320   8.939
20788WAT      O62605   7.386   3.308   4.120
20788WAT     H162606   7.436   3.315   4.034
20788WAT     H262607   7.446   3.274   4.192
20789WAT      O62608   7.194   4.108   3.837
20789WAT     H162609   7.248   4.080   3.916
20789WAT     H262610   7.177   4.030   3.778
20790WAT      O62611   5.331   0.920   2.143
20790WAT     H162612   5.369   1.005   2.106
20790WAT     H262613   5.327   0.851   2.071
20791WAT      O62614   9.596   1.276   7.540
20791WAT     H162615   9.686   1.309   7.568
20791WAT     H262616   9.563   1.210   7.607
20792WAT      O62617   0.589   9.011   6.478
20792WAT     H162618   0.491   9.033   6.469
20792WAT     H262619   0.642   9.095   6.471
20793WAT      O62620   5.445   0.795   7.242
20793WAT     H162621   5.512   0.829   7.177
20793WAT     H262622   5.407   0.871   7.294
20794WAT      O62623   5.646   0.402   1.633
20794WAT     H162624   5.619   0.498   1.632
20794WAT     H262625   5.612   0.357   1.551
20795WAT      O62626   7.024   4.912   1.560
20795WAT     H162627   6.993   4.819   1.538
20795WAT     H262628   6.950   4.977   1.541
20796WAT      O62629   7.025   8.492   6.734
20796WAT     H162630   6.997   8.512   6.828
20796WAT     H262631   7.103   8.429   6.735
20797WAT      O62632   3.435   4.238   0.065
20797WAT     H162633   3.531   4.246   0.092
20797WAT     H262634   3.380   4.299   0.122
20798WAT      O62635   5.189   6.519   1.113
20798WAT     H162636   5.182   6.456   1.036
20798WAT     H262637   5.117   6.588   1.106
20799WAT      O62638   1.312   5.986   3.124
20799WAT     H162639   1.353   5.973   3.214
20799WAT     H262640   1.317   5.900   3.073
20800WAT      O62641   4.846   0.688   7.956
20800WAT     H162642   4.802   0.609   7.914
20800WAT     H262643   4.945   0.672   7.961
20801WAT      O62644   2.490   2.094   0.538
20801WAT     H162645   2.574   2.122   0.492
20801WAT     H262646   2.450   2.016   0.491
20802WAT      O62647   4.353   3.207   3.962
20802WAT     H162648   4.372   3.209   4.060
20802WAT     H262649   4.255   3.219   3.947
20803WAT      O62650   1.750   4.742   3.574
20803WAT     H162651   1.658   4.749   3.613
20803WAT     H262652   1.760   4.654   3.527
20804WAT      O62653   8.160   6.176   0.046
20804WAT     H162654   8.071   6.223   0.040
20804WAT     H262655   8.145   6.078   0.051
20805WAT      O62656   8.159   5.480   0.420
20805WAT     H162657   8.066   5.458   0.450
20805WAT     H262658   8.224   5.438   0.483
20806WAT      O62659   2.395   8.948   4.584
20806WAT     H162660   2.307   8.966   4.539
20806WAT     H262661   2.381   8.889   4.663
20807WAT      O62662   4.921   6.572   6.556
20807WAT     H162663   4.857   6.649   6.552
20807WAT     H262664   4.985   6.578   6.480
20808WAT      O62665   6.721   2.628   8.685
20808WAT     H162666   6.656   2.686   8.636
20808WAT     H262667   6.728   2.660   8.780
20809WAT      O62668   6.689   4.833   9.364
20809WAT     H162669   6.627   4.906   9.337
20809WAT     H262670   6.784   4.864   9.355
20810WAT      O62671   7.277   1.275   3.996
20810WAT     H162672   7.202   1.280   4.061
20810WAT     H262673   7.336   1.197   4.018
20811WAT      O62674   9.428   4.489   4.839
20811WAT     H162675   9.331   4.510   4.845
20811WAT     H262676   9.479   4.574   4.822
20812WAT      O62677   3.250   3.445   3.315
20812WAT     H162678   3.206   3.362   3.350
20812WAT     H262679   3.349   3.438   3.329
20813WAT      O62680   9.522   6.059   5.785
20813WAT     H162681   9.466   6.089   5.862
20813WAT     H262682   9.470   6.067   5.700
20814WAT      O62683   0.558   3.077   7.951
20814WAT     H162684   0.619   3.111   8.022
20814WAT     H262685   0.515   2.992   7.982
20815WAT      O62686   8.430   6.124   8.672
20815WAT     H162687   8.461   6.064   8.745
20815WAT     H262688   8.481   6.210   8.675
20816WAT      O62689   0.580   1.565   8.545
20816WAT     H162690   0.490   1.541   8.508
20816WAT     H262691   0.648   1.499   8.514
20817WAT      O62692   4.992   2.177   6.045
20817WAT     H162693   4.939   2.261   6.053
20817WAT     H262694   5.021   2.148   6.136
20818WAT      O62695   8.729   5.500   7.491
20818WAT     H162696   8.805   5.559   7.463
20818WAT     H262697   8.676   5.474   7.411
20819WAT      O62698   8.744   4.765   2.278
20819WAT     H162699   8.709   4.741   2.187
20819WAT     H262700   8.828   4.818   2.269
20820WAT      O62701   0.838   4.179   3.587
20820WAT     H162702   0.936   4.180   3.610
20820WAT     H262703   0.819   4.100   3.528
20821WAT      O62704   1.704   1.620   9.015
20821WAT     H162705   1.730   1.569   8.933
20821WAT     H262706   1.611   1.654   9.006
20822WAT      O62707   9.034   6.422   3.078
20822WAT     H162708   9.081   6.480   3.012
20822WAT     H262709   9.035   6.327   3.046
20823WAT      O62710   4.020   1.240   0.370
20823WAT     H162711   3.980   1.325   0.406
20823WAT     H262712   4.120   1.247   0.373
20824WAT      O62713   9.739   0.873   4.306
20824WAT     H162714   9.786   0.823   4.233
20824WAT     H262715   9.681   0.944   4.267
20825WAT      O62716   8.074   9.814   7.773
20825WAT     H162717   7.988   9.791   7.819
20825WAT     H262718   8.099   9.908   7.796
20826WAT      O62719   3.478   5.210   8.190
20826WAT     H162720   3.527   5.284   8.236
20826WAT     H262721   3.537   5.170   8.120
20827WAT      O62722   6.820   3.028   6.883
20827WAT     H162723   6.846   2.938   6.848
20827WAT     H262724   6.766   3.017   6.966
20828WAT      O62725   8.040   1.277   7.048
20828WAT     H162726   7.961   1.216   7.057
20828WAT     H262727   8.017   1.352   6.986
20829WAT      O62728   0.545   7.915   3.790
20829WAT     H162729   0.477   7.851   3.756
20829WAT     H262730   0.528   8.006   3.751
20830WAT      O62731   8.524   3.609   0.547
20830WAT     H162732   8.510   3.680   0.616
20830WAT     H262733   8.573   3.532   0.587
20831WAT      O62734   8.168   8.518   7.878
20831WAT     H162735   8.201   8.493   7.969
20831WAT     H262736   8.227   8.477   7.809
20832WAT      O62737   4.570   6.311   8.346
20832WAT     H162738   4.481   6.343   8.313
20832WAT     H262739   4.621   6.269   8.271
20833WAT      O62740   6.967   8.894   3.966
20833WAT     H162741   6.958   8.817   3.903
20833WAT     H262742   6.923   8.871   4.053
20834WAT      O62743   9.382   1.492   9.461
20834WAT     H162744   9.442   1.516   9.537
20834WAT     H262745   9.297   1.454   9.497
20835WAT      O62746   4.574   9.345   5.066
20835WAT     H162747   4.620   9.287   5.133
20835WAT     H262748   4.493   9.385   5.107
20836WAT      O62749   8.016   7.978   0.080
20836WAT     H162750   8.022   7.879   0.068
20836WAT     H262751   7.944   8.014   0.021
20837WAT      O62752   9.021   6.231   5.446
20837WAT     H162753   9.024   6.133   5.425
20837WAT     H262754   9.042   6.245   5.543
20838WAT      O62755   0.037   0.074   5.529
20838WAT     H162756   0.028   0.158   5.583
20838WAT     H262757   0.019  -0.005   5.586
20839WAT      O62758   4.466   2.539   6.579
20839WAT     H162759   4.447   2.578   6.489
20839WAT     H262760   4.455   2.440   6.575
20840WAT      O62761   6.105   9.423   3.188
20840WAT     H162762   6.059   9.423   3.277
20840WAT     H262763   6.102   9.332   3.148
20841WAT      O62764   2.245   7.452   5.732
20841WAT     H162765   2.232   7.470   5.635
20841WAT     H262766   2.299   7.525   5.773
20842WAT      O62767   2.300   2.346   8.540
20842WAT     H162768   2.393   2.332   8.574
20842WAT     H262769   2.295   2.317   8.444
20843WAT      O62770   6.458   9.300   0.023
20843WAT     H162771   6.470   9.203   0.046
20843WAT     H262772   6.473   9.355   0.105
20844WAT      O62773   6.407   1.554   2.300
20844WAT     H162774   6.334   1.524   2.362
20844WAT     H262775   6.494   1.512   2.329
20845WAT      O62776   1.665   1.575   5.327
20845WAT     H162777   1.638   1.480   5.342
20845WAT     H262778   1.610   1.635   5.384
20846WAT      O62779   1.254   8.562   6.114
20846WAT     H162780   1.326   8.526   6.055
20846WAT     H262781   1.290   8.637   6.169
20847WAT      O62782   9.648   6.353   1.743
20847WAT     H162783   9.576   6.412   1.779
20847WAT     H262784   9.731   6.407   1.728
20848WAT      O62785   2.498   8.071   6.849
20848WAT     H162786   2.499   8.005   6.774
20848WAT     H262787   2.406   8.078   6.887
20849WAT      O62788   6.948   0.542   4.239
20849WAT     H162789   6.926   0.454   4.198
20849WAT     H262790   6.864   0.593   4.256
20850WAT      O62791   2.059   3.257   8.958
20850WAT     H162792   1.994   3.293   8.892
20850WAT     H262793   2.058   3.157   8.955
20851WAT      O62794   5.063   2.353   7.034
20851WAT     H162795   4.992   2.403   7.083
20851WAT     H262796   5.135   2.417   7.007
20852WAT      O62797   3.473   5.581   7.261
20852WAT     H162798   3.472   5.678   7.287
20852WAT     H262799   3.424   5.527   7.329
20853WAT      O62800   8.254   1.136   0.552
20853WAT     H162801   8.242   1.227   0.512
20853WAT     H262802   8.181   1.076   0.519
20854WAT      O62803   4.691   2.249   2.521
20854WAT     H162804   4.774   2.202   2.553
20854WAT     H262805   4.673   2.328   2.580
20855WAT      O62806   7.243   4.027   4.532
20855WAT     H162807   7.167   3.963   4.539
20855WAT     H262808   7.329   3.977   4.522
20856WAT      O62809   9.341   8.927   7.892
20856WAT     H162810   9.384   8.858   7.950
20856WAT     H262811   9.254   8.955   7.932
20857WAT      O62812   2.187   5.805   6.364
20857WAT     H162813   2.244   5.741   6.415
20857WAT     H262814   2.122   5.754   6.308
20858WAT      O62815   7.254   7.493   8.937
20858WAT     H162816   7.162   7.530   8.932
20858WAT     H262817   7.312   7.555   8.990
20859WAT      O62818   0.922   0.602   3.700
20859WAT     H162819   0.879   0.690   3.682
20859WAT     H262820   0.894   0.568   3.789
20860WAT      O62821   4.734   8.183   8.139
20860WAT     H162822   4.717   8.280   8.121
20860WAT     H262823   4.828   8.160   8.115
20861WAT      O62824   9.003   1.582   4.420
20861WAT     H162825   9.065   1.595   4.342
20861WAT     H262826   9.034   1.637   4.497
20862WAT      O62827   9.666   7.085   4.897
20862WAT     H162828   9.729   7.016   4.934
20862WAT     H262829   9.717   7.151   4.842
20863WAT      O62830   8.201   7.656   5.502
20863WAT     H162831   8.250   7.670   5.588
20863WAT     H262832   8.250   7.701   5.428
20864WAT      O62833   6.074   0.401   8.425
20864WAT     H162834   6.037   0.447   8.506
20864WAT     H262835   5.998   0.373   8.366
20865WAT      O62836   5.179   0.656   1.079
20865WAT     H162837   5.248   0.645   1.150
20865WAT     H262838   5.148   0.566   1.048
20866WAT      O62839   1.072   0.551   0.138
20866WAT     H162840   1.076   0.647   0.111
20866WAT     H262841   1.157   0.506   0.111
20867WAT      O62842   4.615   5.583   8.046
20867WAT     H162843   4.581   5.544   7.961
20867WAT     H262844   4.614   5.683   8.040
20868WAT      O62845   6.478   0.026   7.167
20868WAT     H162846   6.578   0.025   7.166
20868WAT     H262847   6.446   0.047   7.260
20869WAT      O62848   8.888   6.887   2.217
20869WAT     H162849   8.955   6.928   2.155
20869WAT     H262850   8.932   6.864   2.304
20870WAT      O62851   7.611   8.067   4.482
20870WAT     H162852   7.651   8.113   4.403
20870WAT     H262853   7.596   8.133   4.555
20871WAT      O62854   8.025   1.475   9.394
20871WAT     H162855   8.006   1.516   9.305
20871WAT     H262856   8.016   1.375   9.387
20872WAT      O62857   8.875   8.831  -0.004
20872WAT     H162858   8.970   8.844   0.025
20872WAT     H262859   8.823   8.791   0.071
20873WAT      O62860   1.396   7.076   9.121
20873WAT     H162861   1.332   7.136   9.170
20873WAT     H262862   1.371   6.980   9.137
20874WAT      O62863   7.664   8.857   2.207
20874WAT     H162864   7.596   8.925   2.180
20874WAT     H262865   7.657   8.778   2.146
20875WAT      O62866   9.082   9.686   3.340
20875WAT     H162867   9.166   9.734   3.313
20875WAT     H262868   9.096   9.641   3.428
20876WAT      O62869   5.469   3.908   2.290
20876WAT     H162870   5.399   3.952   2.346
20876WAT     H262871   5.559   3.934   2.323
20877WAT      O62872   9.098   0.162   2.747
20877WAT     H162873   9.079   0.064   2.747
20877WAT     H262874   9.194   0.177   2.725
20878WAT      O62875   6.240   6.900   7.056
20878WAT     H162876   6.306   6.974   7.043
20878WAT     H262877   6.244   6.838   6.979
20879WAT      O62878   4.167   4.163   0.679
20879WAT     H162879   4.158   4.077   0.729
20879WAT     H262880   4.209   4.231   0.738
20880WAT      O62881   1.614   1.745   4.322
20880WAT     H162882   1.515   1.750   4.310
20880WAT     H262883   1.644   1.817   4.385
20881WAT      O62884   7.109   5.020   0.819
20881WAT     H162885   7.131   4.935   0.868
20881WAT     H262886   7.020   5.054   0.850
20882WAT      O62887   7.541   8.318   2.680
20882WAT     H162888   7.512   8.229   2.714
20882WAT     H262889   7.502   8.333   2.589
20883WAT      O62890   3.810   8.576   6.782
20883WAT     H162891   3.726   8.589   6.728
20883WAT     H262892   3.794   8.605   6.876
20884WAT      O62893   7.695   4.023   7.150
20884WAT     H162894   7.740   3.985   7.231
20884WAT     H262895   7.708   4.122   7.149
20885WAT      O62896   8.611   2.559   2.669
20885WAT     H162897   8.523   2.519   2.696
20885WAT     H262898   8.681   2.532   2.735
20886WAT      O62899   2.720   3.279   7.191
20886WAT     H162900   2.709   3.337   7.271
20886WAT     H262901   2.680   3.324   7.111
20887WAT      O62902   0.343   1.501   7.961
20887WAT     H162903   0.438   1.473   7.944
20887WAT     H262904   0.282   1.446   7.904
20888WAT      O62905   2.288   3.906   9.262
20888WAT     H162906   2.308   4.003   9.274
20888WAT     H262907   2.369   3.859   9.226
20889WAT      O62908   9.290   3.254   6.568
20889WAT     H162909   9.195   3.249   6.599
20889WAT     H262910   9.294   3.309   6.484
20890WAT      O62911   1.090   1.514   0.787
20890WAT     H162912   1.010   1.554   0.742
20890WAT     H262913   1.085   1.414   0.781
20891WAT      O62914   8.088   2.501   8.418
20891WAT     H162915   8.014   2.567   8.424
20891WAT     H262916   8.050   2.410   8.401
20892WAT      O62917   2.361   5.174   6.096
20892WAT     H162918   2.298   5.247   6.070
20892WAT     H262919   2.421   5.152   6.019
20893WAT      O62920   8.024   0.771   6.105
20893WAT     H162921   7.935   0.759   6.061
20893WAT     H262922   8.081   0.691   6.087
20894WAT      O62923   2.572   7.422   7.480
20894WAT     H162924   2.616   7.506   7.511
20894WAT     H262925   2.599   7.346   7.540
20895WAT      O62926   8.833   0.891   3.432
20895WAT     H162927   8.861   0.818   3.370
20895WAT     H262928   8.914   0.930   3.477
20896WAT      O62929   3.297   4.679   9.488
20896WAT     H162930   3.243   4.608   9.534
20896WAT     H262931   3.318   4.650   9.395
20897WAT      O62932   2.486   4.905   7.737
20897WAT     H162933   2.493   4.851   7.653
20897WAT     H262934   2.527   4.855   7.813
20898WAT      O62935   2.718   1.247   8.768
20898WAT     H162936   2.801   1.237   8.824
20898WAT     H262937   2.730   1.198   8.682
20899WAT      O62938   0.659   0.972   1.665
20899WAT     H162939   0.614   1.048   1.617
20899WAT     H262940   0.612   0.887   1.644
20900WAT      O62941   9.871   0.585   8.736
20900WAT     H162942   9.875   0.505   8.796
20900WAT     H262943   9.853   0.667   8.791
20901WAT      O62944   3.844   2.733   7.826
20901WAT     H162945   3.941   2.717   7.843
20901WAT     H262946   3.812   2.807   7.885
20902WAT      O62947   0.626   0.583   5.349
20902WAT     H162948   0.706   0.539   5.309
20902WAT     H262949   0.565   0.512   5.386
20903WAT      O62950   3.793   5.581   8.801
20903WAT     H162951   3.765   5.518   8.729
20903WAT     H262952   3.718   5.592   8.866
20904WAT      O62953   8.854   8.616   7.464
20904WAT     H162954   8.838   8.598   7.561
20904WAT     H262955   8.771   8.596   7.412
20905WAT      O62956   7.712   1.096   0.383
20905WAT     H162957   7.732   1.137   0.472
20905WAT     H262958   7.617   1.065   0.382
20906WAT      O62959   0.678   8.936   2.402
20906WAT     H162960   0.745   8.863   2.414
20906WAT     H262961   0.723   9.024   2.415
20907WAT      O62962   4.136   2.601   9.202
20907WAT     H162963   4.229   2.583   9.233
20907WAT     H262964   4.071   2.568   9.270
20908WAT      O62965   5.967   4.042   6.810
20908WAT     H162966   5.995   4.136   6.828
20908WAT     H262967   6.033   3.979   6.851
20909WAT      O62968   7.143   5.548   0.577
20909WAT     H162969   7.146   5.454   0.543
20909WAT     H262970   7.054   5.588   0.557
20910WAT      O62971   6.673   4.007   0.319
20910WAT     H162972   6.729   3.996   0.400
20910WAT     H262973   6.598   3.940   0.320
20911WAT      O62974   5.953   9.075   6.609
20911WAT     H162975   6.002   9.155   6.575
20911WAT     H262976   5.866   9.066   6.561
20912WAT      O62977   1.510   0.329   3.897
20912WAT     H162978   1.584   0.286   3.948
20912WAT     H262979   1.548   0.399   3.836
20913WAT      O62980   6.940   1.803   7.461
20913WAT     H162981   6.971   1.873   7.397
20913WAT     H262982   6.918   1.845   7.549
20914WAT      O62983   5.946   9.045   9.198
20914WAT     H162984   5.951   8.951   9.163
20914WAT     H262985   5.858   9.059   9.244
20915WAT      O62986   2.218   1.590   4.773
20915WAT     H162987   2.296   1.624   4.721
20915WAT     H262988   2.135   1.596   4.717
20916WAT      O62989   8.571   7.296   5.985
20916WAT     H162990   8.507   7.324   5.913
20916WAT     H262991   8.594   7.375   6.042
20917WAT      O62992   9.290   2.790   7.118
20917WAT     H162993   9.306   2.817   7.213
20917WAT     H262994   9.291   2.871   7.059
20918WAT      O62995   7.326   7.809   1.395
20918WAT     H162996   7.296   7.767   1.481
20918WAT     H262997   7.290   7.755   1.318
20919WAT      O62998   8.928   4.349   3.419
20919WAT     H162999   8.972   4.437   3.401
20919WAT     H263000   8.841   4.364   3.468
20920WAT      O63001   8.090   6.275   8.982
20920WAT     H163002   8.162   6.253   9.047
20920WAT     H263003   8.072   6.196   8.924
20921WAT      O63004   5.783   5.904   5.302
20921WAT     H163005   5.767   5.837   5.230
20921WAT     H263006   5.776   5.996   5.264
20922WAT      O63007   5.306   2.766   9.071
20922WAT     H163008   5.214   2.728   9.064
20922WAT     H263009   5.361   2.713   9.135
20923WAT      O63010   3.364   9.441   2.321
20923WAT     H163011   3.297   9.476   2.387
20923WAT     H263012   3.325   9.449   2.229
20924WAT      O63013   3.694   8.484   8.575
20924WAT     H163014   3.779   8.488   8.522
20924WAT     H263015   3.631   8.555   8.544
20925WAT      O63016   0.621   5.543   3.372
20925WAT     H163017   0.580   5.577   3.456
20925WAT     H263018   0.641   5.445   3.382
20926WAT      O63019   6.702   7.372   6.029
20926WAT     H163020   6.630   7.431   6.063
20926WAT     H263021   6.662   7.294   5.980
20927WAT      O63022   8.723   8.736   4.115
20927WAT     H163023   8.744   8.691   4.203
20927WAT     H263024   8.807   8.775   4.077
20928WAT      O63025   3.740   5.497   6.962
20928WAT     H163026   3.822   5.441   6.967
20928WAT     H263027   3.759   5.579   6.909
20929WAT      O63028   9.173   2.665   8.396
20929WAT     H163029   9.218   2.575   8.400
20929WAT     H263030   9.136   2.679   8.305
20930WAT      O63031   7.976   7.720   6.095
20930WAT     H163032   7.903   7.675   6.147
20930WAT     H263033   7.956   7.817   6.087
20931WAT      O63034   5.238   0.581   4.914
20931WAT     H163035   5.240   0.666   4.967
20931WAT     H263036   5.188   0.595   4.829
20932WAT      O63037   0.869   0.415   3.393
20932WAT     H163038   0.883   0.440   3.489
20932WAT     H263039   0.779   0.373   3.382
20933WAT      O63040   4.639   2.370   7.924
20933WAT     H163041   4.729   2.352   7.885
20933WAT     H263042   4.570   2.323   7.868
20934WAT      O63043   7.288   2.627   4.486
20934WAT     H163044   7.306   2.611   4.389
20934WAT     H263045   7.280   2.725   4.503
20935WAT      O63046   6.873   0.085   5.982
20935WAT     H163047   6.809   0.125   6.048
20935WAT     H263048   6.943   0.032   6.032
20936WAT      O63049   8.799   4.827   4.583
20936WAT     H163050   8.894   4.798   4.569
20936WAT     H263051   8.792   4.926   4.571
20937WAT      O63052   1.044   2.869   5.106
20937WAT     H163053   1.084   2.788   5.150
20937WAT     H263054   1.033   2.852   5.008
20938WAT      O63055   7.569   5.827   2.951
20938WAT     H163056   7.550   5.868   2.862
20938WAT     H263057   7.504   5.862   3.018
20939WAT      O63058   1.764   8.889   3.311
20939WAT     H163059   1.666   8.894   3.293
20939WAT     H263060   1.780   8.833   3.392
20940WAT      O63061   2.670   5.011   7.045
20940WAT     H163062   2.679   5.110   7.053
20940WAT     H263063   2.642   4.972   7.133
20941WAT      O63064   7.699   8.797   2.942
20941WAT     H163065   7.712   8.810   2.844
20941WAT     H263066   7.655   8.709   2.958
20942WAT      O63067   8.371   1.351   3.078
20942WAT     H163068   8.377   1.343   3.178
20942WAT     H263069   8.344   1.444   3.054
20943WAT      O63070   3.795   5.668   4.506
20943WAT     H163071   3.746   5.621   4.434
20943WAT     H263072   3.730   5.704   4.573
20944WAT      O63073   2.306   3.004   5.987
20944WAT     H163074   2.230   2.962   6.038
20944WAT     H263075   2.385   3.015   6.047
20945WAT      O63076   7.268   0.842   2.310
20945WAT     H163077   7.257   0.913   2.379
20945WAT     H263078   7.297   0.883   2.224
20946WAT      O63079   0.321   1.086   7.373
20946WAT     H163080   0.402   1.082   7.314
20946WAT     H263081   0.287   1.179   7.375
20947WAT      O63082   6.014   4.321   4.099
20947WAT     H163083   6.032   4.229   4.133
20947WAT     H263084   6.008   4.319   3.999
20948WAT      O63085   8.703   8.083   6.182
20948WAT     H163086   8.654   8.146   6.122
20948WAT     H263087   8.780   8.043   6.132
20949WAT      O63088   2.923   9.028   2.298
20949WAT     H163089   2.870   8.971   2.235
20949WAT     H263090   2.921   8.987   2.389
20950WAT      O63091   8.258   4.312   9.357
20950WAT     H163092   8.179   4.348   9.406
20950WAT     H263093   8.307   4.388   9.313
20951WAT      O63094   0.969   9.124   7.680
20951WAT     H163095   0.927   9.124   7.770
20951WAT     H263096   1.013   9.212   7.663
20952WAT      O63097   2.284   2.398   5.275
20952WAT     H163098   2.365   2.362   5.229
20952WAT     H263099   2.311   2.442   5.360
20953WAT      O63100   0.872   7.837   1.352
20953WAT     H163101   0.968   7.815   1.335
20953WAT     H263102   0.859   7.854   1.450
20954WAT      O63103   6.181   3.324   2.871
20954WAT     H163104   6.112   3.290   2.808
20954WAT     H263105   6.225   3.247   2.918
20955WAT      O63106   1.735   6.386   4.230
20955WAT     H163107   1.706   6.298   4.268
20955WAT     H263108   1.797   6.431   4.294
20956WAT      O63109   7.519   0.820   2.521
20956WAT     H163110   7.480   0.866   2.442
20956WAT     H263111   7.512   0.880   2.601
20957WAT      O63112   5.020   8.624   5.590
20957WAT     H163113   5.001   8.721   5.573
20957WAT     H263114   5.022   8.575   5.504
20958WAT      O63115   1.400   8.629   5.370
20958WAT     H163116   1.478   8.635   5.307
20958WAT     H263117   1.366   8.535   5.373
20959WAT      O63118   3.304   8.256   0.995
20959WAT     H163119   3.402   8.271   0.984
20959WAT     H263120   3.283   8.159   0.986
20960WAT      O63121   9.075   9.669   5.765
20960WAT     H163122   9.019   9.751   5.771
20960WAT     H263123   9.144   9.680   5.693
20961WAT      O63124   4.689   4.340   1.078
20961WAT     H163125   4.755   4.276   1.038
20961WAT     H263126   4.615   4.289   1.121
20962WAT      O63127   7.828   1.326   2.727
20962WAT     H163128   7.827   1.227   2.716
20962WAT     H263129   7.777   1.369   2.652
20963WAT      O63130   0.675   9.006   8.018
20963WAT     H163131   0.651   9.081   8.078
20963WAT     H263132   0.612   9.003   7.940
20964WAT      O63133   1.278   6.471   6.993
20964WAT     H163134   1.349   6.527   7.037
20964WAT     H263135   1.313   6.379   6.978
20965WAT      O63136   2.585   6.335   5.426
20965WAT     H163137   2.631   6.255   5.387
20965WAT     H263138   2.652   6.392   5.474
20966WAT      O63139   7.514   1.201   2.143
20966WAT     H163140   7.435   1.240   2.097
20966WAT     H263141   7.598   1.233   2.100
20967WAT      O63142   8.704   3.758   2.325
20967WAT     H163143   8.634   3.818   2.364
20967WAT     H263144   8.672   3.663   2.327
20968WAT      O63145   9.323   7.549   9.077
20968WAT     H163146   9.404   7.551   9.135
20968WAT     H263147   9.314   7.458   9.036
20969WAT      O63148   5.438   4.048   4.364
20969WAT     H163149   5.487   4.117   4.311
20969WAT     H263150   5.403   3.978   4.303
20970WAT      O63151   9.162   6.520   1.520
20970WAT     H163152   9.162   6.520   1.620
20970WAT     H263153   9.237   6.464   1.486
20971WAT      O63154   8.066   4.508   6.533
20971WAT     H163155   8.063   4.525   6.631
20971WAT     H263156   8.160   4.522   6.499
20972WAT      O63157   8.335   0.618   4.768
20972WAT     H163158   8.394   0.684   4.721
20972WAT     H263159   8.309   0.655   4.857
20973WAT      O63160   7.690   8.364   7.483
20973WAT     H163161   7.652   8.330   7.397
20973WAT     H263162   7.695   8.289   7.549
20974WAT      O63163   4.762   3.456   7.552
20974WAT     H163164   4.776   3.550   7.585
20974WAT     H263165   4.758   3.457   7.452
20975WAT      O63166   2.160   1.562   1.173
20975WAT     H163167   2.117   1.592   1.088
20975WAT     H263168   2.229   1.493   1.152
20976WAT      O63169   5.146   8.271   0.505
20976WAT     H163170   5.055   8.233   0.487
20976WAT     H263171   5.138   8.353   0.562
20977WAT      O63172   4.308   6.888   6.985
20977WAT     H163173   4.261   6.803   7.009
20977WAT     H263174   4.257   6.966   7.021
20978WAT      O63175   3.636   3.764   8.390
20978WAT     H163176   3.570   3.695   8.362
20978WAT     H263177   3.662   3.820   8.312
20979WAT      O63178   8.589   4.212   8.528
20979WAT     H163179   8.664   4.172   8.475
20979WAT     H263180   8.626   4.279   8.593
20980WAT      O63181   2.642   0.151   8.341
20980WAT     H163182   2.728   0.134   8.292
20980WAT     H263183   2.591   0.066   8.349
20981WAT      O63184   3.764   5.547   3.945
20981WAT     H163185   3.751   5.628   4.003
20981WAT     H263186   3.774   5.466   4.003
20982WAT      O63187   8.818   7.739   6.534
20982WAT     H163188   8.822   7.641   6.513
20982WAT     H263189   8.740   7.757   6.594
20983WAT      O63190   1.503   0.758   8.029
20983WAT     H163191   1.574   0.807   8.078
20983WAT     H263192   1.541   0.720   7.944
20984WAT      O63193   7.529   2.946   5.185
20984WAT     H163194   7.552   3.003   5.106
20984WAT     H263195   7.578   2.859   5.179
20985WAT      O63196   0.469   9.181   4.924
20985WAT     H163197   0.521   9.261   4.895
20985WAT     H263198   0.485   9.163   5.021
20986WAT      O63199   1.571   2.236   7.654
20986WAT     H163200   1.594   2.188   7.739
20986WAT     H263201   1.569   2.334   7.670
20987WAT      O63202   8.902   8.990   2.246
20987WAT     H163203   8.962   9.062   2.213
20987WAT     H263204   8.949   8.937   2.317
20988WAT      O63205   6.637   0.311   4.255
20988WAT     H163206   6.587   0.389   4.219
20988WAT     H263207   6.573   0.237   4.276
20989WAT      O63208   8.965   6.308   9.093
20989WAT     H163209   8.936   6.214   9.079
20989WAT     H263210   8.986   6.323   9.190
20990WAT      O63211   6.105   1.767   4.456
20990WAT     H163212   6.019   1.733   4.418
20990WAT     H263213   6.092   1.861   4.489
20991WAT      O63214   1.412   2.061   3.257
20991WAT     H163215   1.428   1.962   3.257
20991WAT     H263216   1.357   2.085   3.337
20992WAT      O63217   3.785   2.481   1.455
20992WAT     H163218   3.799   2.397   1.402
20992WAT     H263219   3.698   2.476   1.504
20993WAT      O63220   9.407   1.133   1.278
20993WAT     H163221   9.312   1.151   1.300
20993WAT     H263222   9.466   1.167   1.351
20994WAT      O63223   4.922   3.762   6.665
20994WAT     H163224   4.925   3.819   6.747
20994WAT     H263225   4.973   3.808   6.591
20995WAT      O63226   3.521   3.310   9.734
20995WAT     H163227   3.461   3.348   9.804
20995WAT     H263228   3.617   3.323   9.762
20996WAT      O63229   9.541   8.757   6.810
20996WAT     H163230   9.601   8.819   6.759
20996WAT     H263231   9.451   8.754   6.767
20997WAT      O63232   7.307   3.332   1.940
20997WAT     H163233   7.389   3.321   1.997
20997WAT     H263234   7.322   3.289   1.851
20998WAT      O63235   4.020   6.090   6.650
20998WAT     H163236   4.046   6.163   6.713
20998WAT     H263237   3.987   6.011   6.702
20999WAT      O63238   5.627   8.110   5.659
20999WAT     H163239   5.582   8.078   5.576
20999WAT     H263240   5.723   8.129   5.640
21000WAT      O63241   2.689   7.054   0.699
21000WAT     H163242   2.608   7.005   0.731
21000WAT     H263243   2.765   6.989   0.688
21001WAT      O63244   1.013   0.056   6.862
21001WAT     H163245   1.101   0.010   6.847
21001WAT     H263246   1.024   0.125   6.934
21002WAT      O63247   0.949   0.625   1.234
21002WAT     H163248   1.032   0.576   1.262
21002WAT     H263249   0.962   0.661   1.141
21003WAT      O63250   1.653   4.928   0.456
21003WAT     H163251   1.587   4.872   0.406
21003WAT     H263252   1.617   4.949   0.547
21004WAT      O63253   4.883   6.055   1.063
21004WAT     H163254   4.942   5.989   1.109
21004WAT     H263255   4.787   6.030   1.076
21005WAT      O63256   6.349   4.205   7.594
21005WAT     H163257   6.350   4.141   7.671
21005WAT     H263258   6.434   4.196   7.542
21006WAT      O63259   0.430   7.705   1.874
21006WAT     H163260   0.417   7.738   1.968
21006WAT     H263261   0.344   7.668   1.839
21007WAT      O63262   1.455   5.428   2.444
21007WAT     H163263   1.438   5.397   2.350
21007WAT     H263264   1.391   5.383   2.506
21008WAT      O63265   8.838   3.533   6.194
21008WAT     H163266   8.900   3.477   6.138
21008WAT     H263267   8.803   3.609   6.139
21009WAT      O63268   7.601   3.576   6.161
21009WAT     H163269   7.577   3.529   6.245
21009WAT     H263270   7.565   3.669   6.163
21010WAT      O63271   6.168   9.541   5.978
21010WAT     H163272   6.139   9.515   6.070
21010WAT     H263273   6.261   9.578   5.982
21011WAT      O63274   8.826   7.229   0.275
21011WAT     H163275   8.809   7.303   0.209
21011WAT     H263276   8.790   7.143   0.239
21012WAT      O63277   4.767   8.640   6.889
21012WAT     H163278   4.836   8.569   6.873
21012WAT     H263279   4.676   8.598   6.886
21013WAT      O63280   1.762   7.014   6.037
21013WAT     H163281   1.685   7.067   6.001
21013WAT     H263282   1.778   6.934   5.978
21014WAT      O63283   7.854   7.655   2.393
21014WAT     H163284   7.927   7.645   2.460
21014WAT     H263285   7.827   7.564   2.359
21015WAT      O63286   4.851   6.750   0.146
21015WAT     H163287   4.920   6.786   0.209
21015WAT     H263288   4.760   6.775   0.179
21016WAT      O63289   9.235   0.251   1.204
21016WAT     H163290   9.245   0.169   1.148
21016WAT     H263291   9.321   0.271   1.250
21017WAT      O63292   7.569   4.127   8.479
21017WAT     H163293   7.563   4.226   8.493
21017WAT     H263294   7.479   4.093   8.451
21018WAT      O63295   3.086   7.939   8.998
21018WAT     H163296   3.186   7.938   8.991
21018WAT     H263297   3.054   7.850   9.031
21019WAT      O63298   3.616   1.724   2.239
21019WAT     H163299   3.611   1.824   2.231
21019WAT     H263300   3.537   1.692   2.292
21020WAT      O63301   1.333   8.633   2.207
21020WAT     H163302   1.412   8.650   2.267
21020WAT     H263303   1.329   8.536   2.185
21021WAT      O63304   2.052   2.726   8.627
21021WAT     H163305   2.010   2.649   8.580
21021WAT     H263306   2.134   2.696   8.674
21022WAT      O63307   0.314   3.075   1.959
21022WAT     H163308   0.298   3.164   1.916
21022WAT     H263309   0.332   3.088   2.057
21023WAT      O63310   8.730   7.804   9.586
21023WAT     H163311   8.758   7.849   9.671
21023WAT     H263312   8.806   7.805   9.521
21024WAT      O63313   9.004   5.916   7.526
21024WAT     H163314   8.928   5.952   7.580
21024WAT     H263315   9.072   5.988   7.511
21025WAT      O63316   0.322   3.196   8.420
21025WAT     H163317   0.305   3.100   8.396
21025WAT     H263318   0.239   3.249   8.406
21026WAT      O63319   2.536   8.032   0.100
21026WAT     H163320   2.574   8.053   0.190
21026WAT     H263321   2.611   8.026   0.034
21027WAT      O63322   9.552   6.366   3.061
21027WAT     H163323   9.525   6.453   3.103
21027WAT     H263324   9.650   6.353   3.075
21028WAT      O63325   9.431   5.211   3.419
21028WAT     H163326   9.466   5.124   3.452
21028WAT     H263327   9.355   5.241   3.478
21029WAT      O63328   5.200   8.787   1.223
21029WAT     H163329   5.108   8.756   1.245
21029WAT     H263330   5.236   8.732   1.147
21030WAT      O63331   0.149   7.040   0.300
21030WAT     H163332   0.122   6.985   0.378
21030WAT     H263333   0.247   7.059   0.304
21031WAT      O63334   8.467   9.753   9.337
21031WAT     H163335   8.556   9.789   9.307
21031WAT     H263336   8.405   9.830   9.352
21032WAT      O63337   6.225   2.824   2.033
21032WAT     H163338   6.188   2.914   2.011
21032WAT     H263339   6.325   2.828   2.032
21033WAT      O63340   8.281   0.445   5.554
21033WAT     H163341   8.314   0.411   5.466
21033WAT     H263342   8.346   0.512   5.590
21034WAT      O63343   7.935   3.802   9.281
21034WAT     H163344   7.989   3.719   9.271
21034WAT     H263345   7.841   3.786   9.251
21035WAT      O63346   1.310   6.443   5.601
21035WAT     H163347   1.307   6.417   5.697
21035WAT     H263348   1.402   6.429   5.565
21036WAT      O63349   9.551   0.465   9.864
21036WAT     H163350   9.614   0.539   9.891
21036WAT     H263351   9.557   0.450   9.765
21037WAT      O63352   4.290   5.809   9.759
21037WAT     H163353   4.266   5.774   9.669
21037WAT     H263354   4.358   5.882   9.749
21038WAT      O63355   4.589   2.142   9.856
21038WAT     H163356   4.575   2.234   9.893
21038WAT     H263357   4.684   2.114   9.871
21039WAT      O63358   1.268   6.595   9.016
21039WAT     H163359   1.298   6.532   9.087
21039WAT     H263360   1.317   6.575   8.931
21040WAT      O63361   7.885   3.928   0.152
21040WAT     H163362   7.797   3.963   0.183
21040WAT     H263363   7.874   3.834   0.119
21041WAT      O63364   3.196   9.392   1.117
21041WAT     H163365   3.288   9.354   1.114
21041WAT     H263366   3.179   9.443   1.032
21042WAT      O63367   7.009   7.497   3.443
21042WAT     H163368   7.086   7.533   3.392
21042WAT     H263369   7.036   7.483   3.539
21043WAT      O63370   4.150   4.856   3.441
21043WAT     H163371   4.225   4.799   3.472
21043WAT     H263372   4.163   4.879   3.344
21044WAT      O63373   8.436   3.675   8.264
21044WAT     H163374   8.358   3.691   8.324
21044WAT     H263375   8.406   3.630   8.180
21045WAT      O63376   2.673   4.549   2.448
21045WAT     H163377   2.625   4.464   2.429
21045WAT     H263378   2.608   4.619   2.477
21046WAT      O63379   6.252   4.932   3.237
21046WAT     H163380   6.311   4.869   3.288
21046WAT     H263381   6.181   4.969   3.297
21047WAT      O63382   0.937   5.487   4.386
21047WAT     H163383   0.924   5.471   4.288
21047WAT     H263384   1.034   5.501   4.405
21048WAT      O63385   7.604   8.193   1.219
21048WAT     H163386   7.696   8.169   1.190
21048WAT     H263387   7.586   8.290   1.198
21049WAT      O63388   5.805   7.360   4.007
21049WAT     H163389   5.803   7.366   4.106
21049WAT     H263390   5.894   7.323   3.978
21050WAT      O63391   2.765   3.796   8.845
21050WAT     H163392   2.670   3.821   8.864
21050WAT     H263393   2.826   3.852   8.901
21051WAT      O63394   7.102   0.463   1.214
21051WAT     H163395   7.021   0.408   1.193
21051WAT     H263396   7.078   0.537   1.277
21052WAT      O63397   1.010   7.974   6.436
21052WAT     H163398   1.019   8.047   6.368
21052WAT     H263399   0.957   7.899   6.397
21053WAT      O63400   0.162   4.790   4.158
21053WAT     H163401   0.104   4.716   4.192
21053WAT     H263402   0.193   4.767   4.065
21054WAT      O63403   2.002   1.035   5.214
21054WAT     H163404   2.092   1.040   5.258
21054WAT     H263405   1.978   1.124   5.178
21055WAT      O63406   6.622   1.864   8.081
21055WAT     H163407   6.666   1.817   8.157
21055WAT     H263408   6.558   1.802   8.036
21056WAT      O63409   1.647   2.056   2.128
21056WAT     H163410   1.705   2.104   2.062
21056WAT     H263411   1.591   2.122   2.177
21057WAT      O63412   7.432   7.314   2.012
21057WAT     H163413   7.409   7.401   2.056
21057WAT     H263414   7.526   7.316   1.979
21058WAT      O63415   4.804   0.880   1.477
21058WAT     H163416   4.868   0.848   1.407
21058WAT     H263417   4.783   0.976   1.460
21059WAT      O63418   7.094   8.190   6.473
21059WAT     H163419   7.113   8.270   6.417
21059WAT     H263420   6.997   8.186   6.494
21060WAT      O63421   6.538   2.209   0.033
21060WAT     H163422   6.627   2.241   0.065
21060WAT     H263423   6.530   2.227  -0.066
21061WAT      O63424   3.248   9.577   4.113
21061WAT     H163425   3.335   9.569   4.163
21061WAT     H263426   3.197   9.656   4.148
21062WAT      O63427   3.174   3.097   2.893
21062WAT     H163428   3.255   3.143   2.929
21062WAT     H263429   3.136   3.150   2.818
21063WAT      O63430   7.616   3.372   8.252
21063WAT     H163431   7.574   3.415   8.332
21063WAT     H263432   7.590   3.276   8.248
21064WAT      O63433   0.846   8.528   6.592
21064WAT     H163434   0.748   8.523   6.571
21064WAT     H263435   0.868   8.461   6.662
21065WAT      O63436   2.933   9.194   1.471
21065WAT     H163437   2.910   9.248   1.551
21065WAT     H263438   3.033   9.188   1.463
21066WAT      O63439   1.874   8.324   5.774
21066WAT     H163440   1.787   8.374   5.784
21066WAT     H263441   1.902   8.290   5.864
21067WAT      O63442   7.543   0.479   8.638
21067WAT     H163443   7.592   0.554   8.682
21067WAT     H263444   7.451   0.509   8.613
21068WAT      O63445   6.913   6.455   7.024
21068WAT     H163446   6.866   6.373   7.057
21068WAT     H263447   6.956   6.435   6.936
21069WAT      O63448   4.371   7.235   5.561
21069WAT     H163449   4.436   7.225   5.636
21069WAT     H263450   4.296   7.294   5.590
21070WAT      O63451   4.734   2.692   6.283
21070WAT     H163452   4.694   2.605   6.312
21070WAT     H263453   4.679   2.768   6.319
21071WAT      O63454   1.423   2.381   1.652
21071WAT     H163455   1.485   2.325   1.597
21071WAT     H263456   1.477   2.439   1.714
21072WAT      O63457   4.783   0.416   1.388
21072WAT     H163458   4.728   0.499   1.394
21072WAT     H263459   4.764   0.369   1.302
21073WAT      O63460   0.721   9.413   5.465
21073WAT     H163461   0.656   9.398   5.390
21073WAT     H263462   0.795   9.346   5.460
21074WAT      O63463   5.243   9.477   1.001
21074WAT     H163464   5.306   9.420   1.054
21074WAT     H263465   5.192   9.537   1.063
21075WAT      O63466   0.632   5.177   4.492
21075WAT     H163467   0.580   5.244   4.438
21075WAT     H263468   0.694   5.226   4.554
21076WAT      O63469   2.415   0.207   1.320
21076WAT     H163470   2.502   0.201   1.271
21076WAT     H263471   2.385   0.116   1.347
21077WAT      O63472   7.882   8.207   1.159
21077WAT     H163473   7.961   8.255   1.198
21077WAT     H263474   7.842   8.261   1.085
21078WAT      O63475   0.769   4.711   6.907
21078WAT     H163476   0.830   4.695   6.984
21078WAT     H263477   0.767   4.629   6.849
21079WAT      O63478   8.056   2.305   6.384
21079WAT     H163479   7.987   2.243   6.347
21079WAT     H263480   8.035   2.325   6.480
21080WAT      O63481   0.007   3.482   7.317
21080WAT     H163482  -0.000   3.392   7.274
21080WAT     H263483   0.093   3.489   7.366
21081WAT      O63484   0.089   3.495   9.047
21081WAT     H163485   0.132   3.586   9.050
21081WAT     H263486   0.039   3.479   9.132
21082WAT      O63487   6.874   4.703   6.745
21082WAT     H163488   6.812   4.646   6.692
21082WAT     H263489   6.958   4.718   6.693
21083WAT      O63490   8.168   8.135   1.485
21083WAT     H163491   8.130   8.190   1.560
21083WAT     H263492   8.146   8.039   1.499
21084WAT      O63493   6.875   1.836   0.832
21084WAT     H163494   6.828   1.921   0.811
21084WAT     H263495   6.896   1.787   0.748
21085WAT      O63496   0.816   4.838   1.385
21085WAT     H163497   0.870   4.848   1.469
21085WAT     H263498   0.781   4.927   1.357
21086WAT      O63499   6.476   2.687   1.436
21086WAT     H163500   6.540   2.640   1.376
21086WAT     H263501   6.523   2.760   1.485
21087WAT      O63502   7.106   4.725   7.824
21087WAT     H163503   7.030   4.672   7.787
21087WAT     H263504   7.135   4.794   7.757
21088WAT      O63505   1.233   0.711   7.683
21088WAT     H163506   1.261   0.624   7.724
21088WAT     H263507   1.169   0.757   7.744
21089WAT      O63508   8.477   2.615   7.233
21089WAT     H163509   8.471   2.516   7.235
21089WAT     H263510   8.573   2.643   7.241
21090WAT      O63511   9.067   2.374   0.332
21090WAT     H163512   9.165   2.364   0.347
21090WAT     H263513   9.019   2.294   0.369
21091WAT      O63514   7.271   3.105   1.196
21091WAT     H163515   7.338   3.035   1.221
21091WAT     H263516   7.181   3.080   1.231
21092WAT      O63517   1.104   2.375   5.255
21092WAT     H163518   1.100   2.361   5.354
21092WAT     H263519   1.141   2.293   5.211
21093WAT      O63520   7.590   6.077   3.644
21093WAT     H163521   7.675   6.040   3.607
21093WAT     H263522   7.547   6.009   3.704
21094WAT      O63523   6.831   1.894   7.703
21094WAT     H163524   6.862   1.982   7.738
21094WAT     H263525   6.837   1.825   7.776
21095WAT      O63526   2.240   6.944   8.617
21095WAT     H163527   2.248   6.845   8.631
21095WAT     H263528   2.281   6.968   8.529
21096WAT      O63529   4.563   4.757   0.262
21096WAT     H163530   4.616   4.704   0.197
21096WAT     H263531   4.518   4.695   0.327
21097WAT      O63532   5.033   0.961   8.258
21097WAT     H163533   5.065   0.946   8.164
21097WAT     H263534   4.961   1.030   8.257
21098WAT      O63535   2.006   5.712   4.401
21098WAT     H163536   2.069   5.763   4.458
21098WAT     H263537   2.028   5.727   4.304
21099WAT      O63538   3.755   7.984   4.485
21099WAT     H163539   3.833   7.996   4.424
21099WAT     H263540   3.752   8.059   4.550
21100WAT      O63541   6.293   2.627   1.156
21100WAT     H163542   6.212   2.576   1.184
21100WAT     H263543   6.373   2.594   1.207
21101WAT      O63544   1.386   0.525   3.305
21101WAT     H163545   1.289   0.503   3.308
21101WAT     H263546   1.433   0.482   3.382
21102WAT      O63547   9.211   7.127   0.999
21102WAT     H163548   9.134   7.142   1.061
21102WAT     H263549   9.185   7.157   0.907
21103WAT      O63550   4.033   0.754   6.660
21103WAT     H163551   4.101   0.795   6.599
21103WAT     H263552   4.071   0.672   6.703
21104WAT      O63553   5.009   7.990   1.455
21104WAT     H163554   5.051   7.948   1.374
21104WAT     H263555   5.075   7.993   1.530
21105WAT      O63556   0.686   7.639   1.701
21105WAT     H163557   0.781   7.608   1.707
21105WAT     H263558   0.644   7.636   1.791
21106WAT      O63559   8.511   1.024   0.097
21106WAT     H163560   8.571   0.953   0.060
21106WAT     H263561   8.490   1.003   0.193
21107WAT      O63562   1.821   4.166   0.353
21107WAT     H163563   1.879   4.151   0.433
21107WAT     H263564   1.729   4.132   0.373
21108WAT      O63565   4.069   4.864   1.580
21108WAT     H163566   3.987   4.835   1.630
21108WAT     H263567   4.131   4.786   1.571
21109WAT      O63568   5.171   4.058   9.103
21109WAT     H163569   5.175   4.015   9.193
21109WAT     H263570   5.190   3.989   9.032
21110WAT      O63571   4.271   7.356   3.219
21110WAT     H163572   4.177   7.323   3.229
21110WAT     H263573   4.330   7.280   3.191
21111WAT      O63574   8.960   7.242   3.862
21111WAT     H163575   9.007   7.256   3.949
21111WAT     H263576   9.016   7.182   3.804
21112WAT      O63577   6.384   0.520   8.211
21112WAT     H163578   6.376   0.609   8.166
21112WAT     H263579   6.355   0.528   8.306
21113WAT      O63580   1.544   5.371   0.296
21113WAT     H163581   1.585   5.446   0.348
21113WAT     H263582   1.573   5.284   0.337
21114WAT      O63583   3.820   6.238   7.223
21114WAT     H163584   3.785   6.152   7.260
21114WAT     H263585   3.894   6.272   7.280
21115WAT      O63586   2.321   0.427   5.268
21115WAT     H163587   2.315   0.521   5.303
21115WAT     H263588   2.406   0.417   5.215
21116WAT      O63589   9.240   7.878   7.259
21116WAT     H163590   9.310   7.853   7.325
21116WAT     H263591   9.193   7.961   7.290
21117WAT      O63592   3.250   0.204   9.563
21117WAT     H163593   3.282   0.298   9.567
21117WAT     H263594   3.321   0.147   9.522
21118WAT      O63595   0.927   7.144   6.998
21118WAT     H163596   0.958   7.137   7.093
21118WAT     H263597   0.862   7.220   6.991
21119WAT      O63598   2.778   7.157   4.963
21119WAT     H163599   2.703   7.110   5.008
21119WAT     H263600   2.743   7.227   4.902
21120WAT      O63601   0.615   7.848   9.765
21120WAT     H163602   0.523   7.817   9.742
21120WAT     H263603   0.675   7.769   9.777
21121WAT      O63604   5.209   1.911   3.611
21121WAT     H163605   5.205   1.889   3.513
21121WAT     H263606   5.270   1.989   3.625
21122WAT      O63607   0.195   3.426   5.969
21122WAT     H163608   0.163   3.364   5.897
21122WAT     H263609   0.151   3.515   5.960
21123WAT      O63610   8.399   9.202   7.536
21123WAT     H163611   8.304   9.184   7.564
21123WAT     H263612   8.449   9.116   7.532
21124WAT      O63613   1.053   7.808   6.853
21124WAT     H163614   1.054   7.745   6.931
21124WAT     H263615   1.146   7.836   6.831
21125WAT      O63616   7.060   9.365   3.852
21125WAT     H163617   7.060   9.453   3.899
21125WAT     H263618   7.054   9.291   3.919
21126WAT      O63619   8.339   2.525   0.106
21126WAT     H163620   8.246   2.491   0.122
21126WAT     H263621   8.397   2.450   0.074
21127WAT      O63622   5.062   3.341   0.120
21127WAT     H163623   5.093   3.266   0.180
21127WAT     H263624   5.041   3.304   0.030
21128WAT      O63625   7.117   5.107   0.286
21128WAT     H163626   7.021   5.114   0.258
21128WAT     H263627   7.156   5.022   0.251
21129WAT      O63628   8.882   1.070   2.854
21129WAT     H163629   8.826   1.113   2.925
21129WAT     H263630   8.919   0.983   2.889
21130WAT      O63631   5.950   9.709   4.760
21130WAT     H163632   5.966   9.756   4.846
21130WAT     H263633   5.908   9.773   4.695
21131WAT      O63634   5.910   7.530   8.044
21131WAT     H163635   5.941   7.597   7.976
21131WAT     H263636   5.832   7.479   8.008
21132WAT      O63637   4.341   3.142   5.610
21132WAT     H163638   4.329   3.238   5.587
21132WAT     H263639   4.264   3.111   5.667
21133WAT      O63640   9.130   8.840   4.872
21133WAT     H163641   9.135   8.776   4.796
21133WAT     H263642   9.048   8.821   4.926
21134WAT      O63643   3.147   3.733   1.516
21134WAT     H163644   3.063   3.694   1.554
21134WAT     H263645   3.224   3.706   1.572
21135WAT      O63646   6.805   4.775   7.981
21135WAT     H163647   6.718   4.825   7.989
21135WAT     H263648   6.829   4.765   7.885
21136WAT      O63649   9.283   6.409   6.194
21136WAT     H163650   9.193   6.389   6.157
21136WAT     H263651   9.350   6.414   6.119
21137WAT      O63652   2.888   7.470   2.169
21137WAT     H163653   2.843   7.388   2.203
21137WAT     H263654   2.894   7.467   2.069
21138WAT      O63655   2.277   6.888   7.220
21138WAT     H163656   2.359   6.933   7.184
21138WAT     H263657   2.294   6.790   7.227
21139WAT      O63658   2.657   3.350   8.255
21139WAT     H163659   2.665   3.252   8.275
21139WAT     H263660   2.662   3.364   8.156
21140WAT      O63661   6.653   0.862   9.084
21140WAT     H163662   6.591   0.940   9.090
21140WAT     H263663   6.740   0.891   9.044
21141WAT      O63664   3.495   1.018   0.917
21141WAT     H163665   3.527   1.063   0.834
21141WAT     H263666   3.520   1.072   0.997
21142WAT      O63667   2.981   5.383   9.812
21142WAT     H163668   3.057   5.321   9.794
21142WAT     H263669   2.984   5.413   9.907
21143WAT      O63670   3.217   2.398   6.845
21143WAT     H163671   3.310   2.420   6.877
21143WAT     H263672   3.222   2.325   6.777
21144WAT      O63673   2.685   3.842   4.965
21144WAT     H163674   2.727   3.927   4.934
21144WAT     H263675   2.754   3.784   5.008
21145WAT      O63676   2.289   1.217   9.516
21145WAT     H163677   2.297   1.124   9.550
21145WAT     H263678   2.232   1.218   9.434
21146WAT      O63679   3.926   6.559   0.579
21146WAT     H163680   3.899   6.555   0.675
21146WAT     H263681   3.844   6.561   0.522
21147WAT      O63682   7.545   7.371   9.221
21147WAT     H163683   7.590   7.372   9.132
21147WAT     H263684   7.612   7.352   9.292
21148WAT      O63685   1.402   4.901   7.266
21148WAT     H163686   1.399   5.000   7.279
21148WAT     H263687   1.458   4.859   7.337
21149WAT      O63688   7.073   4.036   7.287
21149WAT     H163689   7.086   4.068   7.193
21149WAT     H263690   7.091   4.112   7.350
21150WAT      O63691   3.957   2.526   7.532
21150WAT     H163692   3.896   2.493   7.605
21150WAT     H263693   3.962   2.626   7.535
21151WAT      O63694   7.013   9.104   1.363
21151WAT     H163695   7.063   9.068   1.442
21151WAT     H263696   7.015   9.204   1.366
21152WAT      O63697   0.882   7.547   9.048
21152WAT     H163698   0.917   7.535   8.955
21152WAT     H263699   0.784   7.528   9.049
21153WAT      O63700   4.303   0.284   6.744
21153WAT     H163701   4.365   0.213   6.780
21153WAT     H263702   4.307   0.284   6.644
21154WAT      O63703   4.383   4.088   0.944
21154WAT     H163704   4.328   4.017   0.987
21154WAT     H263705   4.334   4.175   0.947
21155WAT      O63706   5.402   4.424   5.136
21155WAT     H163707   5.433   4.442   5.230
21155WAT     H263708   5.402   4.510   5.084
21156WAT      O63709   1.841   5.491   6.339
21156WAT     H163710   1.879   5.514   6.428
21156WAT     H263711   1.799   5.400   6.342
21157WAT      O63712   5.634   9.321   3.863
21157WAT     H163713   5.536   9.307   3.852
21157WAT     H263714   5.654   9.342   3.959
21158WAT      O63715   2.190   3.123   7.628
21158WAT     H163716   2.167   3.040   7.577
21158WAT     H263717   2.131   3.130   7.709
21159WAT      O63718   4.530   5.102   7.789
21159WAT     H163719   4.457   5.036   7.805
21159WAT     H263720   4.565   5.137   7.876
21160WAT      O63721   2.903   2.265   7.878
21160WAT     H163722   2.808   2.276   7.850
21160WAT     H263723   2.963   2.303   7.807
21161WAT      O63724   7.265   8.118   1.631
21161WAT     H163725   7.228   8.053   1.565
21161WAT     H263726   7.229   8.098   1.722
21162WAT      O63727   5.375   4.641   4.883
21162WAT     H163728   5.353   4.583   4.805
21162WAT     H263729   5.459   4.691   4.865
21163WAT      O63730   2.302   7.950   4.443
21163WAT     H163731   2.236   7.884   4.479
21163WAT     H263732   2.253   8.028   4.403
21164WAT      O63733   9.504   1.392   7.093
21164WAT     H163734   9.539   1.337   7.168
21164WAT     H263735   9.580   1.430   7.040
21165WAT      O63736   6.768   5.565   8.299
21165WAT     H163737   6.692   5.502   8.310
21165WAT     H263738   6.784   5.581   8.202
21166WAT      O63739   5.740   3.416   8.483
21166WAT     H163740   5.759   3.318   8.490
21166WAT     H263741   5.762   3.448   8.391
21167WAT      O63742   5.189   8.978   5.295
21167WAT     H163743   5.111   9.013   5.242
21167WAT     H263744   5.189   8.878   5.292
21168WAT      O63745   0.586   6.322   9.603
21168WAT     H163746   0.670   6.311   9.550
21168WAT     H263747   0.539   6.406   9.574
21169WAT      O63748   0.454   1.439   3.535
21169WAT     H163749   0.403   1.369   3.484
21169WAT     H263750   0.543   1.402   3.561
21170WAT      O63751   6.249   6.720   6.854
21170WAT     H163752   6.340   6.681   6.843
21170WAT     H263753   6.188   6.683   6.785
21171WAT      O63754   0.768   3.613   2.782
21171WAT     H163755   0.724   3.677   2.845
21171WAT     H263756   0.796   3.661   2.699
21172WAT      O63757   5.042   5.255   0.324
21172WAT     H163758   5.120   5.215   0.373
21172WAT     H263759   5.075   5.315   0.251
21173WAT      O63760   1.988   8.915   7.564
21173WAT     H163761   2.037   8.841   7.610
21173WAT     H263762   1.901   8.881   7.529
21174WAT      O63763   7.726   9.775   8.322
21174WAT     H163764   7.757   9.857   8.274
21174WAT     H263765   7.641   9.795   8.371
21175WAT      O63766   7.678   9.408   9.027
21175WAT     H163767   7.688   9.309   9.042
21175WAT     H263768   7.583   9.428   9.002
21176WAT      O63769   2.204   0.503   7.904
21176WAT     H163770   2.234   0.433   7.839
21176WAT     H263771   2.267   0.580   7.901
21177WAT      O63772   1.906   8.733   8.710
21177WAT     H163773   1.979   8.801   8.722
21177WAT     H263774   1.841   8.765   8.641
21178WAT      O63775   8.696   2.829   2.304
21178WAT     H163776   8.596   2.829   2.303
21178WAT     H263777   8.729   2.903   2.363
21179WAT      O63778   0.408   5.090   2.308
21179WAT     H163779   0.408   5.187   2.285
21179WAT     H263780   0.316   5.061   2.332
21180WAT      O63781   6.431   2.550   0.263
21180WAT     H163782   6.368   2.473   0.252
21180WAT     H263783   6.481   2.540   0.349
21181WAT      O63784   3.189   1.082   7.220
21181WAT     H163785   3.128   1.098   7.298
21181WAT     H263786   3.172   0.990   7.183
21182WAT      O63787   4.570   4.600   6.284
21182WAT     H163788   4.668   4.583   6.281
21182WAT     H263789   4.534   4.606   6.191
21183WAT      O63790   5.508   9.438   4.235
21183WAT     H163791   5.600   9.432   4.195
21183WAT     H263792   5.488   9.533   4.257
21184WAT      O63793   0.691   0.820   9.763
21184WAT     H163794   0.673   0.723   9.775
21184WAT     H263795   0.699   0.841   9.666
21185WAT      O63796   4.282   7.242   1.937
21185WAT     H163797   4.233   7.273   2.018
21185WAT     H263798   4.378   7.271   1.942
21186WAT      O63799   2.658   3.761   9.329
21186WAT     H163800   2.602   3.811   9.264
21186WAT     H263801   2.748   3.742   9.289
21187WAT      O63802   3.199   3.834   9.551
21187WAT     H163803   3.227   3.813   9.644
21187WAT     H263804   3.166   3.929   9.547
21188WAT      O63805   0.604   7.973   9.156
21188WAT     H163806   0.526   7.936   9.207
21188WAT     H263807   0.623   8.066   9.187
21189WAT      O63808   8.867   8.137   6.399
21189WAT     H163809   8.919   8.208   6.353
21189WAT     H263810   8.785   8.115   6.346
21190WAT      O63811   5.258   7.129   8.263
21190WAT     H163812   5.347   7.166   8.235
21190WAT     H263813   5.210   7.196   8.320
21191WAT      O63814   0.229   4.645   3.565
21191WAT     H163815   0.267   4.630   3.473
21191WAT     H263816   0.267   4.578   3.628
21192WAT      O63817   9.213   8.452   0.490
21192WAT     H163818   9.122   8.490   0.504
21192WAT     H263819   9.272   8.475   0.567
21193WAT      O63820   5.454   2.015   1.073
21193WAT     H163821   5.534   2.063   1.036
21193WAT     H263822   5.417   1.954   1.004
21194WAT      O63823   0.626   0.602   0.739
21194WAT     H163824   0.565   0.527   0.766
21194WAT     H263825   0.720   0.570   0.737
21195WAT      O63826   8.097   3.135   4.017
21195WAT     H163827   8.100   3.035   4.009
21195WAT     H263828   8.189   3.170   4.029
21196WAT      O63829   9.786   1.689   3.964
21196WAT     H163830   9.761   1.724   4.054
21196WAT     H263831   9.741   1.743   3.893
21197WAT      O63832   2.767   4.396   3.315
21197WAT     H163833   2.809   4.459   3.381
21197WAT     H263834   2.691   4.349   3.359
21198WAT      O63835   7.650   2.614   2.552
21198WAT     H163836   7.710   2.630   2.474
21198WAT     H263837   7.705   2.595   2.633
21199WAT      O63838   6.882   0.319   1.152
21199WAT     H163839   6.807   0.377   1.183
21199WAT     H263840   6.859   0.280   1.063
21200WAT      O63841   3.475   1.538   1.095
21200WAT     H163842   3.495   1.530   0.998
21200WAT     H263843   3.388   1.492   1.115
21201WAT      O63844   5.071   6.554   0.566
21201WAT     H163845   5.045   6.468   0.521
21201WAT     H263846   5.053   6.631   0.504
21202WAT      O63847   2.854   2.182   3.986
21202WAT     H163848   2.868   2.279   4.003
21202WAT     H263849   2.857   2.165   3.887
21203WAT      O63850   3.132   5.274   6.149
21203WAT     H163851   3.086   5.247   6.233
21203WAT     H263852   3.231   5.278   6.164
21204WAT      O63853   1.469   2.886   9.518
21204WAT     H163854   1.506   2.802   9.556
21204WAT     H263855   1.394   2.864   9.455
21205WAT      O63856   0.250   8.691   1.479
21205WAT     H163857   0.159   8.671   1.442
21205WAT     H263858   0.282   8.613   1.532
21206WAT      O63859   0.889   1.296   1.305
21206WAT     H163860   0.884   1.340   1.395
21206WAT     H263861   0.842   1.207   1.309
21207WAT      O63862   4.686   0.337   5.558
21207WAT     H163863   4.678   0.375   5.651
21207WAT     H263864   4.752   0.262   5.559
21208WAT      O63865   3.272   7.864   7.311
21208WAT     H163866   3.299   7.807   7.233
21208WAT     H263867   3.351   7.883   7.368
21209WAT      O63868   4.297   7.190   9.791
21209WAT     H163869   4.247   7.153   9.868
21209WAT     H263870   4.328   7.282   9.812
21210WAT      O63871   5.085   6.747   3.749
21210WAT     H163872   4.987   6.730   3.738
21210WAT     H263873   5.126   6.671   3.800
21211WAT      O63874   2.462   2.195   1.787
21211WAT     H163875   2.366   2.169   1.789
21211WAT     H263876   2.472   2.285   1.745
21212WAT      O63877   8.425   5.026   8.543
21212WAT     H163878   8.420   5.088   8.622
21212WAT     H263879   8.467   5.074   8.466
21213WAT      O63880   5.077   0.023   7.364
21213WAT     H163881   5.056   0.119   7.381
21213WAT     H263882   5.103  -0.021   7.450
21214WAT      O63883   6.409   2.941   4.389
21214WAT     H163884   6.405   2.907   4.483
21214WAT     H263885   6.479   3.012   4.383
21215WAT      O63886   0.657   7.355   8.976
21215WAT     H163887   0.615   7.277   8.929
21215WAT     H263888   0.617   7.440   8.942
21216WAT      O63889   4.651   2.524   0.319
21216WAT     H163890   4.750   2.514   0.310
21216WAT     H263891   4.628   2.620   0.331
21217WAT      O63892   1.531   3.496   0.216
21217WAT     H163893   1.607   3.515   0.153
21217WAT     H263894   1.469   3.430   0.173
21218WAT      O63895   3.788   0.723   3.049
21218WAT     H163896   3.867   0.662   3.038
21218WAT     H263897   3.755   0.719   3.143
21219WAT      O63898   2.773   3.340   8.692
21219WAT     H163899   2.840   3.280   8.647
21219WAT     H263900   2.727   3.290   8.766
21220WAT      O63901   8.399   7.466   4.625
21220WAT     H163902   8.338   7.523   4.681
21220WAT     H263903   8.419   7.381   4.673
21221WAT      O63904   2.944   9.253   9.818
21221WAT     H163905   2.942   9.171   9.762
21221WAT     H263906   2.907   9.233   9.908
21222WAT      O63907   0.915   4.326   1.788
21222WAT     H163908   0.877   4.357   1.700
21222WAT     H263909   1.015   4.318   1.780
21223WAT      O63910   4.845   2.336   0.957
21223WAT     H163911   4.892   2.331   0.869
21223WAT     H263912   4.778   2.410   0.956
21224WAT      O63913   8.275   1.832   3.969
21224WAT     H163914   8.366   1.791   3.976
21224WAT     H263915   8.212   1.766   3.927
21225WAT      O63916   6.308   6.119   0.757
21225WAT     H163917   6.397   6.111   0.801
21225WAT     H263918   6.258   6.032   0.766
21226WAT      O63919   8.191   7.652   6.658
21226WAT     H163920   8.290   7.659   6.653
21226WAT     H263921   8.150   7.742   6.648
21227WAT      O63922   5.727   6.847   2.983
21227WAT     H163923   5.753   6.830   2.888
21227WAT     H263924   5.636   6.810   3.000
21228WAT      O63925   1.557   4.754   5.134
21228WAT     H163926   1.532   4.713   5.047
21228WAT     H263927   1.502   4.714   5.207
21229WAT      O63928   0.477   7.202   8.832
21229WAT     H163929   0.470   7.110   8.792
21229WAT     H263930   0.398   7.219   8.891
21230WAT      O63931   6.039   3.165   9.285
21230WAT     H163932   5.982   3.240   9.251
21230WAT     H263933   5.993   3.078   9.267
21231WAT      O63934   2.788   9.728   3.124
21231WAT     H163935   2.735   9.683   3.196
21231WAT     H263936   2.853   9.792   3.165
21232WAT      O63937   2.771   3.808   5.931
21232WAT     H163938   2.761   3.777   5.837
21232WAT     H263939   2.830   3.746   5.982
21233WAT      O63940   4.375   3.744   5.746
21233WAT     H163941   4.385   3.646   5.765
21233WAT     H263942   4.334   3.756   5.656
21234WAT      O63943   0.669   4.507   4.357
21234WAT     H163944   0.674   4.557   4.444
21234WAT     H263945   0.750   4.528   4.302
21235WAT      O63946   2.846   6.157   6.144
21235WAT     H163947   2.826   6.061   6.128
21235WAT     H263948   2.832   6.179   6.240
21236WAT      O63949   3.656   8.435   5.506
21236WAT     H163950   3.665   8.366   5.578
21236WAT     H263951   3.743   8.444   5.458
21237WAT      O63952   5.325   8.413   8.962
21237WAT     H163953   5.398   8.368   8.911
21237WAT     H263954   5.332   8.388   9.059
21238WAT      O63955   0.454   1.334   5.701
21238WAT     H163956   0.360   1.310   5.677
21238WAT     H263957   0.458   1.431   5.723
21239WAT      O63958   0.057   6.919   2.655
21239WAT     H163959  -0.033   6.956   2.631
21239WAT     H263960   0.092   6.965   2.736
21240WAT      O63961   6.601   1.268   5.139
21240WAT     H163962   6.573   1.239   5.230
21240WAT     H263963   6.567   1.202   5.071
21241WAT      O63964   0.633   3.349   4.235
21241WAT     H163965   0.574   3.273   4.263
21241WAT     H263966   0.724   3.336   4.274
21242WAT      O63967   8.197   5.936   6.785
21242WAT     H163968   8.217   5.976   6.695
21242WAT     H263969   8.104   5.961   6.812
21243WAT      O63970   6.092   3.095   8.954
21243WAT     H163971   6.132   3.185   8.937
21243WAT     H263972   6.060   3.090   9.048
21244WAT      O63973   5.346   9.803   0.521
21244WAT     H163974   5.269   9.851   0.562
21244WAT     H263975   5.366   9.721   0.574
21245WAT      O63976   0.214   7.792   3.908
21245WAT     H163977   0.277   7.728   3.951
21245WAT     H263978   0.240   7.805   3.812
21246WAT      O63979   3.904   2.067   3.189
21246WAT     H163980   3.996   2.071   3.150
21246WAT     H263981   3.883   2.153   3.236
21247WAT      O63982   8.862   4.552   8.467
21247WAT     H163983   8.797   4.528   8.395
21247WAT     H263984   8.952   4.512   8.444
21248WAT      O63985   4.746   1.378   2.491
21248WAT     H163986   4.657   1.332   2.485
21248WAT     H263987   4.744   1.443   2.567
21249WAT      O63988   8.352   2.597   1.998
21249WAT     H163989   8.397   2.522   1.948
21249WAT     H263990   8.363   2.583   2.096
21250WAT      O63991   1.526   4.206   0.846
21250WAT     H163992   1.609   4.171   0.803
21250WAT     H263993   1.509   4.157   0.931
21251WAT      O63994   3.903   2.493   1.919
21251WAT     H163995   3.920   2.396   1.902
21251WAT     H263996   3.988   2.545   1.905
21252WAT      O63997   3.290   7.687   9.752
21252WAT     H163998   3.378   7.733   9.760
21252WAT     H263999   3.292   7.626   9.673
21253WAT      O64000   6.292   5.504   6.921
21253WAT     H164001   6.357   5.485   6.847
21253WAT     H264002   6.258   5.418   6.959
21254WAT      O64003   3.225   8.173   6.775
21254WAT     H164004   3.275   8.102   6.726
21254WAT     H264005   3.137   8.137   6.806
21255WAT      O64006   9.592   2.136   7.565
21255WAT     H164007   9.629   2.228   7.552
21255WAT     H264008   9.647   2.071   7.512
21256WAT      O64009   0.082   4.131   7.447
21256WAT     H164010   0.113   4.198   7.380
21256WAT     H264011   0.034   4.178   7.522
21257WAT      O64012   5.616   5.608   8.910
21257WAT     H164013   5.585   5.679   8.847
21257WAT     H264014   5.610   5.642   9.004
21258WAT      O64015   8.482   2.545   8.881
21258WAT     H164016   8.497   2.448   8.898
21258WAT     H264017   8.566   2.585   8.842
21259WAT      O64018   2.951   9.152   6.113
21259WAT     H164019   2.928   9.114   6.203
21259WAT     H264020   3.048   9.139   6.094
21260WAT      O64021   4.419   6.783   6.731
21260WAT     H164022   4.388   6.787   6.826
21260WAT     H264023   4.340   6.792   6.670
21261WAT      O64024   6.657   6.203   1.445
21261WAT     H164025   6.645   6.106   1.462
21261WAT     H264026   6.730   6.217   1.377
21262WAT      O64027   0.252   6.939   5.784
21262WAT     H164028   0.170   6.979   5.824
21262WAT     H264029   0.244   6.840   5.783
21263WAT      O64030   6.793   3.006   3.226
21263WAT     H164031   6.806   3.090   3.279
21263WAT     H264032   6.852   3.008   3.145
21264WAT      O64033   6.711   4.552   0.175
21264WAT     H164034   6.703   4.515   0.082
21264WAT     H264035   6.739   4.647   0.171
21265WAT      O64036   6.829   8.140   6.278
21265WAT     H164037   6.872   8.095   6.200
21265WAT     H264038   6.859   8.235   6.284
21266WAT      O64039   7.644   9.637   2.797
21266WAT     H164040   7.621   9.603   2.706
21266WAT     H264041   7.636   9.562   2.863
21267WAT      O64042   0.552   5.001   4.240
21267WAT     H164043   0.643   4.987   4.280
21267WAT     H264044   0.498   4.917   4.250
21268WAT      O64045   5.699   4.199   6.386
21268WAT     H164046   5.737   4.116   6.425
21268WAT     H264047   5.719   4.203   6.288
21269WAT      O64048   0.388   5.639   0.944
21269WAT     H164049   0.451   5.632   1.022
21269WAT     H264050   0.436   5.614   0.860
21270WAT      O64051   8.327   2.921   6.634
21270WAT     H164052   8.397   2.854   6.608
21270WAT     H264053   8.371   3.000   6.677
21271WAT      O64054   3.108   0.438   7.812
21271WAT     H164055   3.088   0.526   7.768
21271WAT     H264056   3.204   0.435   7.839
21272WAT      O64057   4.628   4.092   3.889
21272WAT     H164058   4.603   4.180   3.931
21272WAT     H264059   4.598   4.091   3.793
21273WAT      O64060   3.820   9.060   5.271
21273WAT     H164061   3.881   9.110   5.332
21273WAT     H264062   3.833   8.961   5.283
21274WAT      O64063   0.282   1.876   6.519
21274WAT     H164064   0.348   1.812   6.558
21274WAT     H264065   0.266   1.852   6.423
21275WAT      O64066   8.692   4.362   8.724
21275WAT     H164067   8.632   4.428   8.769
21275WAT     H264068   8.782   4.402   8.712
21276WAT      O64069   3.084   9.827   9.568
21276WAT     H164070   3.007   9.854   9.626
21276WAT     H264071   3.144   9.906   9.554
21277WAT      O64072   8.232   8.174   4.585
21277WAT     H164073   8.255   8.104   4.653
21277WAT     H264074   8.176   8.133   4.512
21278WAT      O64075   6.644   9.668   4.279
21278WAT     H164076   6.601   9.578   4.268
21278WAT     H264077   6.625   9.702   4.371
21279WAT      O64078   2.778   5.911   2.608
21279WAT     H164079   2.700   5.964   2.575
21279WAT     H264080   2.802   5.842   2.541
21280WAT      O64081   6.942   5.372   0.095
21280WAT     H164082   6.893   5.445   0.142
21280WAT     H264083   7.006   5.412   0.029
21281WAT      O64084   7.955   6.877   1.947
21281WAT     H164085   7.895   6.834   1.880
21281WAT     H264086   8.039   6.908   1.901
21282WAT      O64087   9.105   9.733   2.791
21282WAT     H164088   9.034   9.718   2.860
21282WAT     H264089   9.145   9.646   2.764
21283WAT      O64090   2.023   6.446   0.634
21283WAT     H164091   1.949   6.442   0.701
21283WAT     H264092   2.110   6.464   0.681
21284WAT      O64093   0.422   2.633   0.700
21284WAT     H164094   0.324   2.644   0.683
21284WAT     H264095   0.459   2.716   0.741
21285WAT      O64096   6.181   8.860   0.275
21285WAT     H164097   6.193   8.935   0.210
21285WAT     H264098   6.261   8.855   0.334
21286WAT      O64099   1.541   7.468   7.524
21286WAT     H164100   1.597   7.395   7.484
21286WAT     H264101   1.585   7.500   7.608
21287WAT      O64102   9.430   5.210   2.383
21287WAT     H164103   9.438   5.129   2.442
21287WAT     H264104   9.408   5.181   2.290
21288WAT      O64105   4.181   8.488   0.821
21288WAT     H164106   4.233   8.410   0.857
21288WAT     H264107   4.180   8.561   0.889
21289WAT      O64108   6.831   0.737   7.117
21289WAT     H164109   6.923   0.766   7.146
21289WAT     H264110   6.794   0.803   7.052
21290WAT      O64111   4.988   2.439   7.324
21290WAT     H164112   4.909   2.445   7.262
21290WAT     H264113   4.968   2.489   7.408
21291WAT      O64114   3.937   9.367   6.875
21291WAT     H164115   3.965   9.308   6.950
21291WAT     H264116   4.016   9.388   6.817
21292WAT      O64117   6.831   7.731   5.710
21292WAT     H164118   6.890   7.721   5.790
21292WAT     H264119   6.785   7.644   5.692
21293WAT      O64120   3.664   0.592   7.650
21293WAT     H164121   3.624   0.680   7.625
21293WAT     H264122   3.634   0.566   7.742
21294WAT      O64123   6.423   6.861   3.216
21294WAT     H164124   6.513   6.817   3.210
21294WAT     H264125   6.421   6.921   3.295
21295WAT      O64126   0.886   9.277   7.367
21295WAT     H164127   0.940   9.315   7.442
21295WAT     H264128   0.788   9.288   7.387
21296WAT      O64129   1.494   7.596   2.993
21296WAT     H164130   1.514   7.600   3.091
21296WAT     H264131   1.443   7.678   2.966
21297WAT      O64132   2.340   4.791   1.433
21297WAT     H164133   2.289   4.766   1.350
21297WAT     H264134   2.390   4.712   1.467
21298WAT      O64135   9.091   0.695   0.722
21298WAT     H164136   9.084   0.721   0.626
21298WAT     H264137   9.045   0.764   0.778
21299WAT      O64138   0.766   4.152   6.825
21299WAT     H164139   0.769   4.133   6.727
21299WAT     H264140   0.790   4.247   6.841
21300WAT      O64141   2.643   1.424   1.274
21300WAT     H164142   2.587   1.507   1.276
21300WAT     H264143   2.667   1.398   1.367
21301WAT      O64144   3.189   0.669   4.880
21301WAT     H164145   3.199   0.604   4.805
21301WAT     H264146   3.270   0.728   4.884
21302WAT      O64147   9.356   3.576   1.219
21302WAT     H164148   9.423   3.533   1.280
21302WAT     H264149   9.336   3.668   1.252
21303WAT      O64150   8.518   1.195   5.123
21303WAT     H164151   8.618   1.193   5.135
21303WAT     H264152   8.495   1.263   5.053
21304WAT      O64153   3.010   1.388   7.706
21304WAT     H164154   2.934   1.449   7.687
21304WAT     H264155   3.088   1.441   7.741
21305WAT      O64156   8.025   3.094   0.804
21305WAT     H164157   8.019   3.086   0.704
21305WAT     H264158   7.937   3.070   0.845
21306WAT      O64159   8.818   3.008   4.083
21306WAT     H164160   8.802   3.032   4.179
21306WAT     H264161   8.767   2.925   4.062
21307WAT      O64162   6.445   5.752   9.078
21307WAT     H164163   6.489   5.839   9.099
21307WAT     H264164   6.359   5.769   9.030
21308WAT      O64165   2.475   5.773   0.875
21308WAT     H164166   2.455   5.737   0.966
21308WAT     H264167   2.414   5.731   0.809
21309WAT      O64168   1.299   1.049   4.766
21309WAT     H164169   1.209   1.028   4.727
21309WAT     H264170   1.370   1.001   4.715
21310WAT      O64171   6.480   3.638   5.696
21310WAT     H164172   6.453   3.652   5.601
21310WAT     H264173   6.496   3.541   5.713
21311WAT      O64174   9.056   0.671   8.800
21311WAT     H164175   9.149   0.649   8.831
21311WAT     H264176   9.017   0.742   8.859
21312WAT      O64177   0.719   0.028   2.018
21312WAT     H164178   0.765  -0.026   1.947
21312WAT     H264179   0.736   0.125   2.001
21313WAT      O64180   2.524   4.106   8.630
21313WAT     H164181   2.481   4.098   8.540
21313WAT     H264182   2.611   4.055   8.629
21314WAT      O64183   5.624   6.373   7.897
21314WAT     H164184   5.573   6.408   7.977
21314WAT     H264185   5.665   6.285   7.920
21315WAT      O64186   6.233   5.178   8.769
21315WAT     H164187   6.229   5.154   8.672
21315WAT     H264188   6.276   5.103   8.820
21316WAT      O64189   3.905   5.736   7.822
21316WAT     H164190   3.936   5.668   7.888
21316WAT     H264191   3.877   5.690   7.738
21317WAT      O64192   2.829   6.525   0.151
21317WAT     H164193   2.843   6.565   0.061
21317WAT     H264194   2.917   6.493   0.188
21318WAT      O64195   8.265   1.257   3.793
21318WAT     H164196   8.186   1.317   3.781
21318WAT     H264197   8.323   1.292   3.867
21319WAT      O64198   5.143   6.783   7.423
21319WAT     H164199   5.145   6.708   7.357
21319WAT     H264200   5.199   6.758   7.503
21320WAT      O64201   8.238   5.288   5.718
21320WAT     H164202   8.185   5.208   5.748
21320WAT     H264203   8.238   5.356   5.790
21321WAT      O64204   1.783   3.530   7.586
21321WAT     H164205   1.829   3.618   7.572
21321WAT     H264206   1.761   3.520   7.684
21322WAT      O64207   7.342   7.674   7.108
21322WAT     H164208   7.286   7.627   7.176
21322WAT     H264209   7.425   7.710   7.153
21323WAT      O64210   9.490   5.305   4.170
21323WAT     H164211   9.520   5.241   4.099
21323WAT     H264212   9.506   5.399   4.139
21324WAT      O64213   4.646   9.600   7.854
21324WAT     H164214   4.604   9.509   7.851
21324WAT     H264215   4.606   9.653   7.928
21325WAT      O64216   6.282   2.912   6.845
21325WAT     H164217   6.364   2.879   6.799
21325WAT     H264218   6.292   3.010   6.865
21326WAT      O64219   4.217   8.620   7.635
21326WAT     H164220   4.283   8.571   7.691
21326WAT     H264221   4.124   8.597   7.664
21327WAT      O64222   6.791   3.465   9.543
21327WAT     H164223   6.827   3.384   9.590
21327WAT     H264224   6.829   3.547   9.585
21328WAT      O64225   1.746   7.444   0.674
21328WAT     H164226   1.697   7.429   0.588
21328WAT     H264227   1.774   7.356   0.713
21329WAT      O64228   8.861   8.182   7.703
21329WAT     H164229   8.898   8.250   7.766
21329WAT     H264230   8.927   8.108   7.691
21330WAT      O64231   3.181   8.149   6.284
21330WAT     H164232   3.107   8.211   6.312
21330WAT     H264233   3.154   8.099   6.202
21331WAT      O64234   0.124   6.231   3.471
21331WAT     H164235   0.099   6.161   3.538
21331WAT     H264236   0.224   6.238   3.465
21332WAT      O64237   2.820   5.722   2.421
21332WAT     H164238   2.853   5.638   2.378
21332WAT     H264239   2.788   5.785   2.350
21333WAT      O64240   4.196   6.488   3.152
21333WAT     H164241   4.225   6.399   3.188
21333WAT     H264242   4.158   6.543   3.226
21334WAT      O64243   2.783   5.588   4.493
21334WAT     H164244   2.800   5.491   4.476
21334WAT     H264245   2.865   5.641   4.474
21335WAT      O64246   9.362   9.029   7.648
21335WAT     H164247   9.377   8.997   7.741
21335WAT     H264248   9.264   9.034   7.629
21336WAT      O64249   5.539   5.413   6.238
21336WAT     H164250   5.456   5.453   6.198
21336WAT     H264251   5.557   5.324   6.195
21337WAT      O64252   1.281   8.587   1.372
21337WAT     H164253   1.245   8.515   1.431
21337WAT     H264254   1.379   8.571   1.355
21338WAT      O64255   1.856   3.353   7.013
21338WAT     H164256   1.914   3.392   6.941
21338WAT     H264257   1.797   3.424   7.051
21339WAT      O64258   1.100   6.014   0.555
21339WAT     H164259   1.014   6.018   0.504
21339WAT     H264260   1.084   6.042   0.650
21340WAT      O64261   1.782   6.741   7.436
21340WAT     H164262   1.832   6.741   7.522
21340WAT     H264263   1.842   6.709   7.363
21341WAT      O64264   9.462   8.328   3.898
21341WAT     H164265   9.406   8.245   3.886
21341WAT     H264266   9.470   8.375   3.810
21342WAT      O64267   4.594   1.874   2.328
21342WAT     H164268   4.668   1.868   2.261
21342WAT     H264269   4.557   1.783   2.345
21343WAT      O64270   9.649   9.115   3.715
21343WAT     H164271   9.718   9.154   3.776
21343WAT     H264272   9.663   9.150   3.623
21344WAT      O64273   2.176   8.881   3.785
21344WAT     H164274   2.247   8.865   3.716
21344WAT     H264275   2.217   8.879   3.876
21345WAT      O64276   2.003   4.045   2.587
21345WAT     H164277   2.024   3.948   2.603
21345WAT     H264278   1.983   4.059   2.490
21346WAT      O64279   1.905   5.340   3.933
21346WAT     H164280   1.924   5.262   3.873
21346WAT     H264281   1.837   5.400   3.889
21347WAT      O64282   6.352   8.750   2.376
21347WAT     H164283   6.265   8.751   2.328
21347WAT     H264284   6.356   8.826   2.440
21348WAT      O64285   4.119   3.379   1.559
21348WAT     H164286   4.089   3.364   1.653
21348WAT     H264287   4.173   3.301   1.528
21349WAT      O64288   6.207   0.174   9.874
21349WAT     H164289   6.209   0.236   9.952
21349WAT     H264290   6.211   0.227   9.789
21350WAT      O64291   4.285   7.851   6.328
21350WAT     H164292   4.344   7.788   6.379
21350WAT     H264293   4.221   7.798   6.272
21351WAT      O64294   6.548   5.815   8.262
21351WAT     H164295   6.627   5.819   8.322
21351WAT     H264296   6.497   5.730   8.279
21352WAT      O64297   2.124   9.680   6.353
21352WAT     H164298   2.045   9.711   6.300
21352WAT     H264299   2.163   9.599   6.311
21353WAT      O64300   5.943   3.337   6.986
21353WAT     H164301   5.894   3.262   6.942
21353WAT     H264302   5.883   3.417   6.990
21354WAT      O64303   6.193   1.399   8.972
21354WAT     H164304   6.260   1.397   9.046
21354WAT     H264305   6.161   1.493   8.959
21355WAT      O64306   0.240   4.476   8.707
21355WAT     H164307   0.191   4.537   8.769
21355WAT     H264308   0.264   4.391   8.755
21356WAT      O64309   1.029   9.224   9.490
21356WAT     H164310   0.946   9.212   9.435
21356WAT     H264311   1.109   9.220   9.430
21357WAT      O64312   3.123   5.691   3.803
21357WAT     H164313   3.100   5.756   3.875
21357WAT     H264314   3.166   5.739   3.727
21358WAT      O64315   0.350   6.188   7.733
21358WAT     H164316   0.354   6.107   7.792
21358WAT     H264317   0.257   6.199   7.698
21359WAT      O64318   1.105   9.096   7.317
21359WAT     H164319   1.025   9.155   7.329
21359WAT     H264320   1.122   9.046   7.402
21360WAT      O64321   1.356   7.559   4.639
21360WAT     H164322   1.286   7.490   4.659
21360WAT     H264323   1.420   7.565   4.716
21361WAT      O64324   1.772   8.643   3.845
21361WAT     H164325   1.736   8.560   3.802
21361WAT     H264326   1.872   8.644   3.835
21362WAT      O64327   0.599   5.585   8.053
21362WAT     H164328   0.605   5.585   7.953
21362WAT     H264329   0.533   5.516   8.083
21363WAT      O64330   0.399   0.000   2.860
21363WAT     H164331   0.343   0.041   2.933
21363WAT     H264332   0.491  -0.017   2.895
21364WAT      O64333   7.132   4.779   4.548
21364WAT     H164334   7.156   4.875   4.535
21364WAT     H264335   7.035   4.771   4.567
21365WAT      O64336   1.494   3.843   6.586
21365WAT     H164337   1.462   3.859   6.679
21365WAT     H264338   1.486   3.927   6.532
21366WAT      O64339   7.242   7.076   8.279
21366WAT     H164340   7.220   7.171   8.301
21366WAT     H264341   7.334   7.055   8.311
21367WAT      O64342   4.991   2.092   7.026
21367WAT     H164343   4.950   2.066   6.939
21367WAT     H264344   5.034   2.182   7.017
21368WAT      O64345   8.326   2.143   8.519
21368WAT     H164346   8.239   2.094   8.518
21368WAT     H264347   8.395   2.089   8.566
21369WAT      O64348   3.957   7.119   8.760
21369WAT     H164349   3.989   7.036   8.805
21369WAT     H264350   3.921   7.096   8.669
21370WAT      O64351   7.531   4.138   7.844
21370WAT     H164352   7.512   4.043   7.818
21370WAT     H264353   7.600   4.140   7.916
21371WAT      O64354   0.560   5.946   5.741
21371WAT     H164355   0.573   5.861   5.690
21371WAT     H264356   0.591   6.023   5.686
21372WAT      O64357   4.211   7.469   1.477
21372WAT     H164358   4.122   7.468   1.432
21372WAT     H264359   4.209   7.410   1.557
21373WAT      O64360   6.662   3.977   7.827
21373WAT     H164361   6.737   4.038   7.851
21373WAT     H264362   6.697   3.902   7.770
21374WAT      O64363   7.914   4.534   1.443
21374WAT     H164364   7.959   4.602   1.385
21374WAT     H264365   7.960   4.530   1.531
21375WAT      O64366   8.687   7.216   9.750
21375WAT     H164367   8.765   7.263   9.792
21375WAT     H264368   8.609   7.278   9.747
21376WAT      O64369   2.689   8.589   0.343
21376WAT     H164370   2.761   8.588   0.412
21376WAT     H264371   2.608   8.634   0.380
21377WAT      O64372   8.750   7.219   8.136
21377WAT     H164373   8.727   7.203   8.232
21377WAT     H264374   8.849   7.229   8.126
21378WAT      O64375   8.234   6.102   3.499
21378WAT     H164376   8.241   6.199   3.475
21378WAT     H264377   8.186   6.053   3.427
21379WAT      O64378   8.397   8.981   8.440
21379WAT     H164379   8.381   9.044   8.364
21379WAT     H264380   8.316   8.923   8.453
21380WAT      O64381   1.240   9.690   5.438
21380WAT     H164382   1.249   9.597   5.402
21380WAT     H264383   1.147   9.722   5.420
21381WAT      O64384   8.506   8.772   9.033
21381WAT     H164385   8.584   8.728   9.076
21381WAT     H264386   8.462   8.833   9.099
21382WAT      O64387   5.279   8.701   5.286
21382WAT     H164388   5.264   8.604   5.307
21382WAT     H264389   5.345   8.739   5.351
21383WAT      O64390   3.229   8.414   4.552
21383WAT     H164391   3.185   8.444   4.467
21383WAT     H264392   3.278   8.491   4.592
21384WAT      O64393   4.841   8.775   2.803
21384WAT     H164394   4.880   8.833   2.731
21384WAT     H264395   4.861   8.679   2.782
21385WAT      O64396   3.349   7.807   3.343
21385WAT     H164397   3.338   7.743   3.420
21385WAT     H264398   3.446   7.828   3.331
21386WAT      O64399   2.991   0.982   3.183
21386WAT     H164400   3.050   1.018   3.111
21386WAT     H264401   2.932   0.911   3.145
21387WAT      O64402   3.871   9.129   6.041
21387WAT     H164403   3.872   9.051   6.104
21387WAT     H264404   3.886   9.097   5.948
21388WAT      O64405   6.565   4.103   2.313
21388WAT     H164406   6.646   4.112   2.256
21388WAT     H264407   6.579   4.152   2.399
21389WAT      O64408   3.660   4.995   1.310
21389WAT     H164409   3.756   5.011   1.334
21389WAT     H264410   3.646   4.897   1.295
21390WAT      O64411   7.597   1.704   8.644
21390WAT     H164412   7.589   1.655   8.730
21390WAT     H264413   7.557   1.648   8.570
21391WAT      O64414   1.397   4.296   8.187
21391WAT     H164415   1.298   4.283   8.180
21391WAT     H264416   1.444   4.223   8.137
21392WAT      O64417   8.848   1.599   9.857
21392WAT     H164418   8.806   1.563   9.940
21392WAT     H264419   8.850   1.699   9.861
21393WAT      O64420   9.507   6.859   6.137
21393WAT     H164421   9.598   6.895   6.118
21393WAT     H264422   9.510   6.801   6.219
21394WAT      O64423   3.681   2.223   4.112
21394WAT     H164424   3.676   2.138   4.165
21394WAT     H264425   3.599   2.277   4.128
21395WAT      O64426   2.426   3.337   3.753
21395WAT     H164427   2.457   3.429   3.731
21395WAT     H264428   2.480   3.271   3.700
21396WAT      O64429   0.870   0.055   7.912
21396WAT     H164430   0.869   0.146   7.871
21396WAT     H264431   0.817  -0.008   7.855
21397WAT      O64432   7.783   0.502   1.950
21397WAT     H164433   7.866   0.540   1.909
21397WAT     H264434   7.795   0.495   2.049
21398WAT      O64435   3.236   4.931   6.083
21398WAT     H164436   3.240   4.832   6.067
21398WAT     H264437   3.291   4.978   6.013
21399WAT      O64438   6.271   4.995   2.178
21399WAT     H164439   6.279   4.938   2.260
21399WAT     H264440   6.255   5.090   2.205
21400WAT      O64441   3.257   6.918   4.955
21400WAT     H164442   3.287   6.877   4.869
21400WAT     H264443   3.260   7.017   4.948
21401WAT      O64444   9.739   6.719   1.016
21401WAT     H164445   9.837   6.722   0.995
21401WAT     H264446   9.712   6.803   1.063
21402WAT      O64447   0.640   2.201   7.256
21402WAT     H164448   0.676   2.113   7.288
21402WAT     H264449   0.603   2.253   7.334
21403WAT      O64450   4.387   1.255   5.002
21403WAT     H164451   4.436   1.181   4.957
21403WAT     H264452   4.348   1.223   5.088
21404WAT      O64453   6.948   4.722   9.861
21404WAT     H164454   6.869   4.734   9.801
21404WAT     H264455   6.921   4.742   9.956
21405WAT      O64456   7.044   7.311   7.688
21405WAT     H164457   7.110   7.246   7.650
21405WAT     H264458   7.010   7.371   7.616
21406WAT      O64459   1.249   0.629   2.953
21406WAT     H164460   1.317   0.684   3.001
21406WAT     H264461   1.290   0.543   2.923
21407WAT      O64462   0.136   5.068   7.565
21407WAT     H164463   0.123   4.993   7.500
21407WAT     H264464   0.059   5.131   7.558
21408WAT      O64465   6.424   6.272   4.465
21408WAT     H164466   6.344   6.223   4.429
21408WAT     H264467   6.399   6.323   4.547
21409WAT      O64468   7.766   5.527   0.219
21409WAT     H164469   7.727   5.512   0.310
21409WAT     H264470   7.741   5.619   0.187
21410WAT      O64471   4.477   4.430   0.785
21410WAT     H164472   4.461   4.529   0.783
21410WAT     H264473   4.575   4.412   0.771
21411WAT      O64474   9.452   0.896   9.150
21411WAT     H164475   9.381   0.936   9.093
21411WAT     H264476   9.443   0.930   9.244
21412WAT      O64477   3.284   4.678   6.016
21412WAT     H164478   3.358   4.664   6.081
21412WAT     H264479   3.322   4.690   5.924
21413WAT      O64480   2.163   4.814   9.566
21413WAT     H164481   2.198   4.759   9.641
21413WAT     H264482   2.222   4.802   9.486
21414WAT      O64483   4.680   0.757   3.353
21414WAT     H164484   4.745   0.830   3.333
21414WAT     H264485   4.623   0.783   3.430
21415WAT      O64486   2.154   5.098   6.489
21415WAT     H164487   2.220   5.147   6.433
21415WAT     H264488   2.144   5.145   6.577
21416WAT      O64489   9.249   6.414   8.729
21416WAT     H164490   9.214   6.438   8.820
21416WAT     H264491   9.284   6.496   8.684
21417WAT      O64492   7.714   3.295   8.518
21417WAT     H164493   7.615   3.308   8.512
21417WAT     H264494   7.758   3.342   8.442
21418WAT      O64495   1.244   5.359   8.313
21418WAT     H164496   1.311   5.431   8.296
21418WAT     H264497   1.173   5.361   8.242
21419WAT      O64498   5.414   2.326   0.544
21419WAT     H164499   5.466   2.411   0.557
21419WAT     H264500   5.420   2.270   0.627
21420WAT      O64501   0.769   5.596   6.184
21420WAT     H164502   0.756   5.557   6.276
21420WAT     H264503   0.865   5.589   6.158
21421WAT      O64504   0.067   5.287   2.062
21421WAT     H164505   0.118   5.273   1.977
21421WAT     H264506  -0.000   5.214   2.073
21422WAT      O64507   6.051   7.646   3.897
21422WAT     H164508   6.068   7.724   3.957
21422WAT     H264509   5.952   7.629   3.891
21423WAT      O64510   6.446   5.729   7.751
21423WAT     H164511   6.348   5.718   7.734
21423WAT     H264512   6.467   5.701   7.844
21424WAT      O64513   3.910   5.148   8.826
21424WAT     H164514   3.968   5.201   8.764
21424WAT     H264515   3.918   5.185   8.918
21425WAT      O64516   9.397   0.856   5.175
21425WAT     H164517   9.328   0.802   5.222
21425WAT     H264518   9.379   0.953   5.189
21426WAT      O64519   1.174   0.879   2.735
21426WAT     H164520   1.099   0.945   2.748
21426WAT     H264521   1.194   0.870   2.638
21427WAT      O64522   0.396   3.033   3.780
21427WAT     H164523   0.353   3.122   3.766
21427WAT     H264524   0.371   2.972   3.705
21428WAT      O64525   9.149   3.476   5.712
21428WAT     H164526   9.178   3.552   5.770
21428WAT     H264527   9.225   3.412   5.701
21429WAT      O64528   4.965   8.215   1.278
21429WAT     H164529   4.984   8.146   1.348
21429WAT     H264530   5.034   8.287   1.282
21430WAT      O64531   9.637   7.110   0.656
21430WAT     H164532   9.664   7.142   0.747
21430WAT     H264533   9.575   7.031   0.665
21431WAT      O64534   2.839   8.284   8.399
21431WAT     H164535   2.747   8.268   8.363
21431WAT     H264536   2.843   8.375   8.440
21432WAT      O64537   7.629   8.981   3.120
21432WAT     H164538   7.607   8.931   3.204
21432WAT     H264539   7.648   8.915   3.046
21433WAT      O64540   7.060   3.435   8.355
21433WAT     H164541   7.113   3.360   8.393
21433WAT     H264542   6.983   3.399   8.303
21434WAT      O64543   1.334   5.395   1.114
21434WAT     H164544   1.398   5.424   1.185
21434WAT     H264545   1.380   5.400   1.025
21435WAT      O64546   5.233   0.270   4.968
21435WAT     H164547   5.298   0.228   4.904
21435WAT     H264548   5.236   0.369   4.958
21436WAT      O64549   3.576   7.033   7.961
21436WAT     H164550   3.509   6.966   7.930
21436WAT     H264551   3.666   6.989   7.969
21437WAT      O64552   9.128   5.936   2.855
21437WAT     H164553   9.185   5.949   2.936
21437WAT     H264554   9.181   5.958   2.773
21438WAT      O64555   8.816   8.986   6.982
21438WAT     H164556   8.822   8.890   7.012
21438WAT     H264557   8.831   8.990   6.883
21439WAT      O64558   3.021   4.810   1.653
21439WAT     H164559   3.059   4.892   1.609
21439WAT     H264560   2.994   4.744   1.584
21440WAT      O64561   2.885   1.693   2.702
21440WAT     H164562   2.871   1.734   2.791
21440WAT     H264563   2.797   1.666   2.663
21441WAT      O64564   1.839   7.068   5.394
21441WAT     H164565   1.902   7.124   5.448
21441WAT     H264566   1.823   6.981   5.441
21442WAT      O64567   8.166   2.004   4.902
21442WAT     H164568   8.067   1.993   4.899
21442WAT     H264569   8.210   1.915   4.894
21443WAT      O64570   1.278   8.410   9.111
21443WAT     H164571   1.245   8.417   9.205
21443WAT     H264572   1.223   8.344   9.061
21444WAT      O64573   8.966   3.789   7.236
21444WAT     H164574   9.026   3.725   7.284
21444WAT     H264575   8.916   3.741   7.164
21445WAT      O64576   7.639   4.010   0.258
21445WAT     H164577   7.558   4.041   0.208
21445WAT     H264578   7.675   4.086   0.313
21446WAT      O64579   2.356   7.395   2.803
21446WAT     H164580   2.284   7.450   2.846
21446WAT     H264581   2.402   7.341   2.873
21447WAT      O64582   5.901   4.982   4.575
21447WAT     H164583   5.837   4.920   4.529
21447WAT     H264584   5.850   5.048   4.631
21448WAT      O64585   7.074   7.576   4.078
21448WAT     H164586   7.172   7.594   4.088
21448WAT     H264587   7.058   7.477   4.078
21449WAT      O64588   1.703   1.564   8.259
21449WAT     H164589   1.744   1.655   8.246
21449WAT     H264590   1.761   1.496   8.215
21450WAT      O64591   6.317   0.579   1.643
21450WAT     H164592   6.406   0.556   1.682
21450WAT     H264593   6.288   0.669   1.676
21451WAT      O64594   7.061   4.462   7.518
21451WAT     H164595   6.966   4.488   7.501
21451WAT     H264596   7.073   4.441   7.615
21452WAT      O64597   5.391   0.601   7.075
21452WAT     H164598   5.311   0.542   7.083
21452WAT     H264599   5.403   0.653   7.160
21453WAT      O64600   1.814   8.266   1.596
21453WAT     H164601   1.760   8.337   1.642
21453WAT     H264602   1.869   8.307   1.524
21454WAT      O64603   8.522   2.433   5.200
21454WAT     H164604   8.517   2.343   5.155
21454WAT     H264605   8.530   2.504   5.130
21455WAT      O64606   6.967   6.588   4.851
21455WAT     H164607   6.912   6.595   4.934
21455WAT     H264608   7.064   6.583   4.876
21456WAT      O64609   4.648   1.286   6.280
21456WAT     H164610   4.679   1.232   6.202
21456WAT     H264611   4.618   1.376   6.249
21457WAT      O64612   2.408   8.081   9.553
21457WAT     H164613   2.393   8.142   9.631
21457WAT     H264614   2.323   8.034   9.530
21458WAT      O64615   0.426   6.981   7.548
21458WAT     H164616   0.390   6.974   7.641
21458WAT     H264617   0.526   6.975   7.551
21459WAT      O64618   9.861   7.895   1.556
21459WAT     H164619   9.846   7.936   1.466
21459WAT     H264620   9.776   7.850   1.586
21460WAT      O64621   6.182   5.368   1.476
21460WAT     H164622   6.282   5.374   1.470
21460WAT     H264623   6.148   5.302   1.409
21461WAT      O64624   2.126   6.331   3.158
21461WAT     H164625   2.032   6.295   3.161
21461WAT     H264626   2.135   6.405   3.224
21462WAT      O64627   7.846   1.696   8.552
21462WAT     H164628   7.756   1.705   8.595
21462WAT     H264629   7.917   1.710   8.620
21463WAT      O64630   5.957   7.270   0.775
21463WAT     H164631   5.927   7.217   0.854
21463WAT     H264632   5.967   7.210   0.696
21464WAT      O64633   7.603   8.414   2.228
21464WAT     H164634   7.613   8.463   2.141
21464WAT     H264635   7.506   8.411   2.253
21465WAT      O64636   7.334   0.885   8.953
21465WAT     H164637   7.373   0.797   8.925
21465WAT     H264638   7.406   0.941   8.994
21466WAT      O64639   1.373   3.982   1.942
21466WAT     H164640   1.413   4.061   1.990
21466WAT     H264641   1.439   3.947   1.875
21467WAT      O64642   0.239   6.109   9.564
21467WAT     H164643   0.245   6.010   9.562
21467WAT     H264644   0.221   6.143   9.471
21468WAT      O64645   0.498   8.167   6.423
21468WAT     H164646   0.482   8.077   6.383
21468WAT     H264647   0.580   8.208   6.383
21469WAT      O64648   9.865   9.631   2.887
21469WAT     H164649   9.850   9.532   2.888
21469WAT     H264650   9.799   9.676   2.948
21470WAT      O64651   5.163   6.565   4.706
21470WAT     H164652   5.251   6.533   4.741
21470WAT     H264653   5.176   6.604   4.615
21471WAT      O64654   5.966   9.177   5.277
21471WAT     H164655   5.880   9.148   5.236
21471WAT     H264656   5.978   9.275   5.264
21472WAT      O64657   4.588   6.438   9.165
21472WAT     H164658   4.508   6.487   9.131
21472WAT     H264659   4.662   6.503   9.182
21473WAT      O64660   8.913   8.373   0.038
21473WAT     H164661   9.005   8.338   0.020
21473WAT     H264662   8.905   8.465  -0.001
21474WAT      O64663   7.966   1.188   9.556
21474WAT     H164664   7.891   1.245   9.589
21474WAT     H264665   7.979   1.111   9.618
21475WAT      O64666   6.074   5.857   5.423
21475WAT     H164667   6.026   5.813   5.348
21475WAT     H264668   6.085   5.955   5.404
21476WAT      O64669   7.377   7.855   0.257
21476WAT     H164670   7.298   7.863   0.318
21476WAT     H264671   7.435   7.936   0.269
21477WAT      O64672   7.360   4.050   3.518
21477WAT     H164673   7.424   4.018   3.448
21477WAT     H264674   7.405   4.120   3.574
21478WAT      O64675   6.597   4.284   1.729
21478WAT     H164676   6.528   4.262   1.661
21478WAT     H264677   6.687   4.290   1.686
21479WAT      O64678   6.802   8.221   6.555
21479WAT     H164679   6.740   8.177   6.621
21479WAT     H264680   6.786   8.319   6.556
21480WAT      O64681   3.229   6.178   2.352
21480WAT     H164682   3.253   6.233   2.432
21480WAT     H264683   3.259   6.084   2.367
21481WAT      O64684   4.886   3.565   6.396
21481WAT     H164685   4.797   3.522   6.382
21481WAT     H264686   4.891   3.604   6.488
21482WAT      O64687   8.722   4.933   8.086
21482WAT     H164688   8.678   4.940   8.175
21482WAT     H264689   8.744   5.025   8.051
21483WAT      O64690   0.333   6.455   8.509
21483WAT     H164691   0.295   6.480   8.420
21483WAT     H264692   0.259   6.432   8.572
21484WAT      O64693   9.068   6.033   4.144
21484WAT     H164694   9.027   5.948   4.177
21484WAT     H264695   9.167   6.026   4.150
21485WAT      O64696   2.331   8.981   1.334
21485WAT     H164697   2.364   8.940   1.419
21485WAT     H264698   2.405   8.987   1.267
21486WAT      O64699   4.485   6.987   4.303
21486WAT     H164700   4.387   7.003   4.317
21486WAT     H264701   4.523   7.061   4.248
21487WAT      O64702   7.026   9.371   1.366
21487WAT     H164703   7.051   9.424   1.447
21487WAT     H264704   6.983   9.431   1.299
21488WAT      O64705   8.635   6.373   4.486
21488WAT     H164706   8.566   6.305   4.509
21488WAT     H264707   8.663   6.361   4.391
21489WAT      O64708   3.456   1.499   6.497
21489WAT     H164709   3.435   1.572   6.432
21489WAT     H264710   3.420   1.412   6.464
21490WAT      O64711   5.635   2.974   6.154
21490WAT     H164712   5.710   2.981   6.089
21490WAT     H264713   5.595   3.065   6.168
21491WAT      O64714   7.014   6.167   7.117
21491WAT     H164715   6.996   6.072   7.093
21491WAT     H264716   6.928   6.213   7.138
21492WAT      O64717   1.497   9.624   6.092
21492WAT     H164718   1.474   9.545   6.035
21492WAT     H264719   1.445   9.621   6.177
21493WAT      O64720   3.647   8.218   1.543
21493WAT     H164721   3.638   8.238   1.641
21493WAT     H264722   3.743   8.223   1.516
21494WAT      O64723   3.347   6.033   8.546
21494WAT     H164724   3.420   5.967   8.526
21494WAT     H264725   3.339   6.099   8.472
21495WAT      O64726   0.483   4.080   3.944
21495WAT     H164727   0.422   4.051   3.870
21495WAT     H264728   0.574   4.099   3.907
21496WAT      O64729   0.610   6.129   0.360
21496WAT     H164730   0.587   6.210   0.306
21496WAT     H264731   0.590   6.147   0.456
21497WAT      O64732   2.204   6.415   6.379
21497WAT     H164733   2.201   6.420   6.279
21497WAT     H264734   2.138   6.479   6.418
21498WAT      O64735   2.600   7.403   9.395
21498WAT     H164736   2.639   7.387   9.486
21498WAT     H264737   2.523   7.340   9.381
21499WAT      O64738   4.388   0.121   0.639
21499WAT     H164739   4.421   0.154   0.728
21499WAT     H264740   4.290   0.143   0.630
21500WAT      O64741   4.250   6.800   7.981
21500WAT     H164742   4.328   6.748   8.017
21500WAT     H264743   4.270   6.898   7.986
21501WAT      O64744   4.892   1.746   4.141
21501WAT     H164745   4.972   1.805   4.152
21501WAT     H264746   4.872   1.736   4.043
21502WAT      O64747   0.241   2.416   4.131
21502WAT     H164748   0.291   2.427   4.217
21502WAT     H264749   0.304   2.427   4.054
21503WAT      O64750   7.389   7.440   4.931
21503WAT     H164751   7.326   7.363   4.946
21503WAT     H264752   7.336   7.524   4.918
21504WAT      O64753   5.133   8.962   3.071
21504WAT     H164754   5.100   8.868   3.075
21504WAT     H264755   5.118   9.007   3.159
21505WAT      O64756   1.519   8.849   1.635
21505WAT     H164757   1.589   8.853   1.706
21505WAT     H264758   1.428   8.859   1.677
21506WAT      O64759   8.601   5.358   1.487
21506WAT     H164760   8.585   5.430   1.555
21506WAT     H264761   8.596   5.269   1.531
21507WAT      O64762   7.331   1.303   8.669
21507WAT     H164763   7.329   1.213   8.626
21507WAT     H264764   7.288   1.370   8.610
21508WAT      O64765   5.630   6.552   0.372
21508WAT     H164766   5.615   6.627   0.307
21508WAT     H264767   5.576   6.473   0.344
21509WAT      O64768   7.847   1.462   9.127
21509WAT     H164769   7.836   1.550   9.080
21509WAT     H264770   7.928   1.415   9.092
21510WAT      O64771   0.179   4.923   8.772
21510WAT     H164772   0.175   4.939   8.674
21510WAT     H264773   0.166   4.826   8.791
21511WAT      O64774   5.095   1.679   9.851
21511WAT     H164775   5.027   1.608   9.830
21511WAT     H264776   5.113   1.680   9.950
21512WAT      O64777   1.841   1.067   0.964
21512WAT     H164778   1.938   1.090   0.967
21512WAT     H264779   1.794   1.127   0.898
21513WAT      O64780   4.620   9.367   7.377
21513WAT     H164781   4.690   9.395   7.311
21513WAT     H264782   4.628   9.423   7.459
21514WAT      O64783   1.948   4.788   9.413
21514WAT     H164784   2.032   4.781   9.468
21514WAT     H264785   1.869   4.775   9.472
21515WAT      O64786   7.980   9.796   2.727
21515WAT     H164787   7.937   9.781   2.638
21515WAT     H264788   8.038   9.877   2.722
21516WAT      O64789   8.646   3.092   3.420
21516WAT     H164790   8.672   3.134   3.333
21516WAT     H264791   8.681   2.999   3.424
21517WAT      O64792   8.295   0.633   9.017
21517WAT     H164793   8.310   0.679   8.930
21517WAT     H264794   8.355   0.553   9.023
21518WAT      O64795   7.955   4.357   5.211
21518WAT     H164796   8.013   4.437   5.193
21518WAT     H264797   7.991   4.278   5.161
21519WAT      O64798   8.974   2.739   1.713
21519WAT     H164799   8.994   2.643   1.732
21519WAT     H264800   8.882   2.746   1.675
21520WAT      O64801   6.503   2.466   3.468
21520WAT     H164802   6.557   2.410   3.531
21520WAT     H264803   6.406   2.443   3.477
21521WAT      O64804   4.949   4.677   9.626
21521WAT     H164805   4.873   4.643   9.570
21521WAT     H264806   4.942   4.639   9.718
21522WAT      O64807   2.023   5.058   9.563
21522WAT     H164808   2.075   4.974   9.547
21522WAT     H264809   1.971   5.049   9.649
21523WAT      O64810   2.259   0.697   8.851
21523WAT     H164811   2.210   0.763   8.794
21523WAT     H264812   2.322   0.746   8.912
21524WAT      O64813   9.455   8.361   9.262
21524WAT     H164814   9.435   8.300   9.185
21524WAT     H264815   9.513   8.436   9.232
21525WAT      O64816   0.031   4.402   0.678
21525WAT     H164817  -0.005   4.419   0.586
21525WAT     H264818   0.130   4.413   0.677
21526WAT      O64819   1.772   6.610   5.759
21526WAT     H164820   1.758   6.524   5.808
21526WAT     H264821   1.810   6.591   5.668
21527WAT      O64822   2.866   1.265   6.253
21527WAT     H164823   2.829   1.199   6.319
21527WAT     H264824   2.790   1.307   6.202
21528WAT      O64825   1.359   3.487   3.792
21528WAT     H164826   1.416   3.410   3.821
21528WAT     H264827   1.411   3.547   3.732
21529WAT      O64828   8.020   2.651   0.567
21529WAT     H164829   8.117   2.636   0.549
21529WAT     H264830   8.006   2.657   0.666
21530WAT      O64831   4.505   0.092   6.329
21530WAT     H164832   4.457   0.024   6.384
21530WAT     H264833   4.604   0.080   6.339
21531WAT      O64834   5.191   2.602   9.691
21531WAT     H164835   5.244   2.651   9.760
21531WAT     H264836   5.253   2.557   9.626
21532WAT      O64837   3.827   3.535   4.327
21532WAT     H164838   3.883   3.516   4.247
21532WAT     H264839   3.809   3.450   4.377
21533WAT      O64840   5.291   9.142   2.057
21533WAT     H164841   5.369   9.196   2.089
21533WAT     H264842   5.230   9.124   2.133
21534WAT      O64843   7.539   3.615   9.742
21534WAT     H164844   7.585   3.699   9.713
21534WAT     H264845   7.488   3.577   9.665
21535WAT      O64846   5.918   9.343   0.731
21535WAT     H164847   6.004   9.354   0.781
21535WAT     H264848   5.851   9.298   0.790
21536WAT      O64849   1.001   4.565   2.795
21536WAT     H164850   1.095   4.547   2.764
21536WAT     H264851   0.972   4.491   2.856
21537WAT      O64852   8.479   7.770   3.763
21537WAT     H164853   8.475   7.670   3.771
21537WAT     H264854   8.536   7.795   3.685
21538WAT      O64855   2.157   5.371   0.324
21538WAT     H164856   2.097   5.317   0.383
21538WAT     H264857   2.214   5.308   0.269
21539WAT      O64858   3.384   2.151   3.254
21539WAT     H164859   3.406   2.054   3.246
21539WAT     H264860   3.297   2.162   3.303
21540WAT      O64861   0.070   4.028   6.051
21540WAT     H164862  -0.027   4.049   6.042
21540WAT     H264863   0.103   4.062   6.139
21541WAT      O64864   4.956   2.947   6.169
21541WAT     H164865   4.932   2.868   6.112
21541WAT     H264866   5.050   2.937   6.202
21542WAT      O64867   4.101   7.496   0.296
21542WAT     H164868   4.083   7.508   0.198
21542WAT     H264869   4.142   7.579   0.333
21543WAT      O64870   3.014   6.997   1.829
21543WAT     H164871   2.923   7.013   1.867
21543WAT     H264872   3.063   6.930   1.885
21544WAT      O64873   0.192   1.778   6.273
21544WAT     H164874   0.208   1.696   6.219
21544WAT     H264875   0.096   1.804   6.268
21545WAT      O64876   8.142   0.192   1.927
21545WAT     H164877   8.196   0.268   1.964
21545WAT     H264878   8.045   0.216   1.931
21546WAT      O64879   8.021   6.615   5.377
21546WAT     H164880   8.093   6.558   5.335
21546WAT     H264881   7.981   6.674   5.307
21547WAT      O64882   0.755   3.447   7.061
21547WAT     H164883   0.695   3.454   6.982
21547WAT     H264884   0.738   3.360   7.108
21548WAT      O64885   2.225   8.673   5.031
21548WAT     H164886   2.204   8.584   5.070
21548WAT     H264887   2.324   8.689   5.036
21549WAT      O64888   7.752   4.717   0.324
21549WAT     H164889   7.778   4.792   0.385
21549WAT     H264890   7.654   4.721   0.305
21550WAT      O64891   3.658   3.494   6.782
21550WAT     H164892   3.724   3.523   6.713
21550WAT     H264893   3.692   3.518   6.873
21551WAT      O64894   6.852   1.030   1.144
21551WAT     H164895   6.900   1.041   1.057
21551WAT     H264896   6.799   1.112   1.164
21552WAT      O64897   6.000   9.174   7.411
21552WAT     H164898   6.094   9.170   7.377
21552WAT     H264899   5.962   9.264   7.392
21553WAT      O64900   8.551   5.078   5.032
21553WAT     H164901   8.482   5.122   5.089
21553WAT     H264902   8.514   5.063   4.940
21554WAT      O64903   5.308   4.955   4.264
21554WAT     H164904   5.385   4.986   4.209
21554WAT     H264905   5.312   4.999   4.354
21555WAT      O64906   1.378   2.713   2.173
21555WAT     H164907   1.359   2.810   2.161
21555WAT     H264908   1.353   2.664   2.090
21556WAT      O64909   5.576   2.959   0.009
21556WAT     H164910   5.587   3.005   0.097
21556WAT     H264911   5.663   2.960  -0.040
21557WAT      O64912   2.883   5.185   6.572
21557WAT     H164913   2.802   5.136   6.601
21557WAT     H264914   2.947   5.192   6.649
21558WAT      O64915   9.051   6.626   3.575
21558WAT     H164916   9.056   6.534   3.612
21558WAT     H264917   9.143   6.660   3.556
21559WAT      O64918   0.448   1.166   1.016
21559WAT     H164919   0.484   1.163   0.923
21559WAT     H264920   0.520   1.138   1.080
21560WAT      O64921   3.454   8.473   5.061
21560WAT     H164922   3.455   8.419   4.977
21560WAT     H264923   3.368   8.457   5.110
21561WAT      O64924   3.537   7.534   4.639
21561WAT     H164925   3.632   7.548   4.669
21561WAT     H264926   3.496   7.622   4.616
21562WAT      O64927   2.347   6.275   9.640
21562WAT     H164928   2.401   6.351   9.678
21562WAT     H264929   2.261   6.310   9.603
21563WAT      O64930   4.847   2.231   2.993
21563WAT     H164931   4.847   2.319   3.040
21563WAT     H264932   4.754   2.193   2.993
21564WAT      O64933   2.662   6.049   4.583
21564WAT     H164934   2.730   6.053   4.510
21564WAT     H264935   2.696   6.100   4.662
21565WAT      O64936   7.234   6.509   3.010
21565WAT     H164937   7.319   6.561   3.019
21565WAT     H264938   7.208   6.504   2.914
21566WAT      O64939   1.119   3.788   5.424
21566WAT     H164940   1.077   3.748   5.506
21566WAT     H264941   1.218   3.794   5.437
21567WAT      O64942   6.478   9.201   5.715
21567WAT     H164943   6.432   9.289   5.724
21567WAT     H264944   6.424   9.141   5.656
21568WAT      O64945   6.190   3.000   7.924
21568WAT     H164946   6.116   2.966   7.866
21568WAT     H264947   6.158   3.077   7.978
21569WAT      O64948   0.991   5.883   8.203
21569WAT     H164949   0.984   5.807   8.267
21569WAT     H264950   0.900   5.913   8.177
21570WAT      O64951   5.939   7.479   5.018
21570WAT     H164952   5.931   7.380   5.007
21570WAT     H264953   5.920   7.524   4.931
21571WAT      O64954   3.817   5.212   4.360
21571WAT     H164955   3.839   5.250   4.450
21571WAT     H264956   3.866   5.126   4.347
21572WAT      O64957   7.844   8.721   5.055
21572WAT     H164958   7.763   8.753   5.005
21572WAT     H264959   7.923   8.777   5.030
21573WAT      O64960   6.519   6.338   9.290
21573WAT     H164961   6.584   6.386   9.233
21573WAT     H264962   6.454   6.289   9.232
21574WAT      O64963   2.915   9.070   7.361
21574WAT     H164964   3.006   9.052   7.325
21574WAT     H264965   2.871   8.984   7.386
21575WAT      O64966   1.086   4.116   5.847
21575WAT     H164967   1.048   4.209   5.842
21575WAT     H264968   1.146   4.109   5.926
21576WAT      O64969   4.113   5.496   1.174
21576WAT     H164970   4.172   5.559   1.123
21576WAT     H264971   4.143   5.402   1.159
21577WAT      O64972   0.909   6.287   2.444
21577WAT     H164973   0.850   6.351   2.395
21577WAT     H264974   0.911   6.311   2.541
21578WAT      O64975   1.565   8.437   1.980
21578WAT     H164976   1.475   8.428   2.021
21578WAT     H264977   1.595   8.532   1.987
21579WAT      O64978   4.181   3.627   9.786
21579WAT     H164979   4.229   3.652   9.870
21579WAT     H264980   4.153   3.710   9.738
21580WAT      O64981   9.060   2.890   6.325
21580WAT     H164982   8.989   2.894   6.396
21580WAT     H264983   9.080   2.983   6.294
21581WAT      O64984   3.315   2.886   7.866
21581WAT     H164985   3.249   2.953   7.901
21581WAT     H264986   3.404   2.929   7.857
21582WAT      O64987   5.955   6.597   1.937
21582WAT     H164988   5.960   6.694   1.913
21582WAT     H264989   5.882   6.583   2.003
21583WAT      O64990   5.156   0.203   6.140
21583WAT     H164991   5.194   0.126   6.191
21583WAT     H264992   5.228   0.272   6.125
21584WAT      O64993   7.557   9.435   6.173
21584WAT     H164994   7.612   9.467   6.096
21584WAT     H264995   7.586   9.342   6.198
21585WAT      O64996   5.548   7.620   9.386
21585WAT     H164997   5.616   7.675   9.435
21585WAT     H264998   5.565   7.626   9.288
21586WAT      O64999   8.694   2.380   8.077
21586WAT     H165000   8.647   2.292   8.085
21586WAT     H265001   8.657   2.443   8.146
21587WAT      O65002   7.379   5.384   2.082
21587WAT     H165003   7.399   5.482   2.079
21587WAT     H265004   7.287   5.370   2.118
21588WAT      O65005   8.864   0.323   8.496
21588WAT     H165006   8.808   0.278   8.566
21588WAT     H265007   8.887   0.415   8.527
21589WAT      O65008   7.471   2.538   6.248
21589WAT     H165009   7.504   2.596   6.174
21589WAT     H265010   7.549   2.496   6.294
21590WAT      O65011   8.099   1.200   2.066
21590WAT     H165012   8.088   1.245   2.155
21590WAT     H265013   8.088   1.101   2.077
21591WAT      O65014   1.858   4.716   3.829
21591WAT     H165015   1.844   4.727   3.730
21591WAT     H265016   1.801   4.640   3.862
21592WAT      O65017   8.068   7.942   3.315
21592WAT     H165018   8.047   7.936   3.413
21592WAT     H265019   8.141   8.009   3.301
21593WAT      O65020   8.773   5.997   7.658
21593WAT     H165021   8.693   6.052   7.632
21593WAT     H265022   8.754   5.948   7.742
21594WAT      O65023   0.944   7.179   8.349
21594WAT     H165024   1.026   7.124   8.362
21594WAT     H265025   0.950   7.263   8.404
21595WAT      O65026   8.278   6.484   9.603
21595WAT     H165027   8.358   6.429   9.627
21595WAT     H265028   8.217   6.491   9.681
21596WAT      O65029   5.209   6.146   7.398
21596WAT     H165030   5.151   6.123   7.319
21596WAT     H265031   5.250   6.063   7.434
21597WAT      O65032   3.880   5.325   0.472
21597WAT     H165033   3.893   5.325   0.571
21597WAT     H265034   3.818   5.399   0.446
21598WAT      O65035   7.643   0.887   5.078
21598WAT     H165036   7.596   0.799   5.072
21598WAT     H265037   7.657   0.910   5.174
21599WAT      O65038   8.553   0.316   4.150
21599WAT     H165039   8.575   0.221   4.127
21599WAT     H265040   8.519   0.363   4.068
21600WAT      O65041   3.869   2.905   9.410
21600WAT     H165042   3.777   2.921   9.374
21600WAT     H265043   3.862   2.860   9.500
21601WAT      O65044   2.063   1.926   6.804
21601WAT     H165045   2.130   1.895   6.871
21601WAT     H265046   2.041   1.852   6.741
21602WAT      O65047   4.234   1.331   8.978
21602WAT     H165048   4.318   1.377   9.007
21602WAT     H265049   4.237   1.316   8.879
21603WAT      O65050   1.937   5.302   5.121
21603WAT     H165051   2.004   5.242   5.078
21603WAT     H265052   1.940   5.393   5.079
21604WAT      O65053   3.473   9.604   4.262
21604WAT     H165054   3.432   9.596   4.353
21604WAT     H265055   3.484   9.700   4.239
21605WAT      O65056   3.624   6.452   5.360
21605WAT     H165057   3.586   6.531   5.408
21605WAT     H265058   3.559   6.376   5.365
21606WAT      O65059   6.226   8.875   8.185
21606WAT     H165060   6.287   8.953   8.199
21606WAT     H265061   6.133   8.909   8.168
21607WAT      O65062   0.518   4.713   3.982
21607WAT     H165063   0.465   4.795   3.956
21607WAT     H265064   0.608   4.741   4.014
21608WAT      O65065   5.926   7.131   7.805
21608WAT     H165066   6.001   7.069   7.782
21608WAT     H265067   5.839   7.082   7.797
21609WAT      O65068   0.682   2.137   9.697
21609WAT     H165069   0.752   2.126   9.767
21609WAT     H265070   0.717   2.193   9.622
21610WAT      O65071   5.573   1.896   1.546
21610WAT     H165072   5.498   1.957   1.522
21610WAT     H265073   5.540   1.802   1.551
21611WAT      O65074   5.098   8.759   0.075
21611WAT     H165075   5.154   8.734   0.155
21611WAT     H265076   5.003   8.734   0.091
21612WAT      O65077   1.232   5.947   2.311
21612WAT     H165078   1.261   5.854   2.337
21612WAT     H265079   1.139   5.944   2.275
21613WAT      O65080   8.792   7.768   2.895
21613WAT     H165081   8.881   7.771   2.940
21613WAT     H265082   8.720   7.763   2.965
21614WAT      O65083   8.663   2.756   2.036
21614WAT     H165084   8.678   2.827   1.967
21614WAT     H265085   8.662   2.798   2.127
21615WAT      O65086   1.472   8.995   0.661
21615WAT     H165087   1.403   8.938   0.617
21615WAT     H265088   1.470   8.979   0.759
21616WAT      O65089   4.524   5.060   2.644
21616WAT     H165090   4.604   5.119   2.633
21616WAT     H265091   4.527   4.987   2.575
21617WAT      O65092   2.768   1.241   4.981
21617WAT     H165093   2.791   1.145   4.964
21617WAT     H265094   2.839   1.299   4.942
21618WAT      O65095   4.770   1.813   8.750
21618WAT     H165096   4.795   1.910   8.742
21618WAT     H265097   4.851   1.760   8.775
21619WAT      O65098   5.739   1.586   7.000
21619WAT     H165099   5.719   1.579   7.098
21619WAT     H265100   5.763   1.680   6.978
21620WAT      O65101   1.955   6.297   7.944
21620WAT     H165102   1.874   6.245   7.917
21620WAT     H265103   1.939   6.337   8.034
21621WAT      O65104   1.022   6.537   9.768
21621WAT     H165105   0.953   6.590   9.719
21621WAT     H265106   1.110   6.543   9.719
21622WAT      O65107   2.608   2.863   2.683
21622WAT     H165108   2.542   2.918   2.735
21622WAT     H265109   2.565   2.777   2.656
21623WAT      O65110   4.345   5.340   0.389
21623WAT     H165111   4.338   5.439   0.377
21623WAT     H265112   4.334   5.317   0.486
21624WAT      O65113   9.402   7.845   5.670
21624WAT     H165114   9.433   7.781   5.740
21624WAT     H265115   9.303   7.836   5.658
21625WAT      O65116   4.926   8.200   0.695
21625WAT     H165117   4.915   8.250   0.610
21625WAT     H265118   4.894   8.106   0.683
21626WAT      O65119   5.929   5.955   6.422
21626WAT     H165120   5.949   6.030   6.485
21626WAT     H265121   5.830   5.953   6.404
21627WAT      O65122   4.249   1.503   6.409
21627WAT     H165123   4.173   1.439   6.419
21627WAT     H265124   4.229   1.569   6.337
21628WAT      O65125   5.515   8.470   3.787
21628WAT     H165126   5.424   8.429   3.778
21628WAT     H265127   5.507   8.569   3.775
21629WAT      O65128   1.958   4.258   8.564
21629WAT     H165129   1.911   4.320   8.627
21629WAT     H265130   2.013   4.312   8.500
21630WAT      O65131   3.639   5.626   3.277
21630WAT     H165132   3.590   5.557   3.224
21630WAT     H265133   3.736   5.626   3.252
21631WAT      O65134   4.864   3.692   1.343
21631WAT     H165135   4.807   3.647   1.412
21631WAT     H265136   4.947   3.637   1.327
21632WAT      O65137   5.374   4.866   9.023
21632WAT     H165138   5.309   4.817   9.082
21632WAT     H265139   5.324   4.930   8.965
21633WAT      O65140   8.553   1.473   8.415
21633WAT     H165141   8.540   1.528   8.498
21633WAT     H265142   8.603   1.390   8.438
21634WAT      O65143   1.798   0.781   1.022
21634WAT     H165144   1.795   0.880   1.011
21634WAT     H265145   1.839   0.740   0.941
21635WAT      O65146   7.951   6.163   2.637
21635WAT     H165147   7.882   6.197   2.701
21635WAT     H265148   7.943   6.211   2.550
21636WAT      O65149   5.047   9.279   5.247
21636WAT     H165150   4.994   9.208   5.202
21636WAT     H265151   5.116   9.315   5.184
21637WAT      O65152   0.350   6.852   4.696
21637WAT     H165153   0.370   6.754   4.688
21637WAT     H265154   0.260   6.864   4.737
21638WAT      O65155   3.138   3.763   2.359
21638WAT     H165156   3.128   3.741   2.262
21638WAT     H265157   3.218   3.821   2.372
21639WAT      O65158   7.828   0.528   9.407
21639WAT     H165159   7.824   0.533   9.307
21639WAT     H265160   7.900   0.465   9.434
21640WAT      O65161   2.856   5.247   9.580
21640WAT     H165162   2.926   5.247   9.509
21640WAT     H265163   2.896   5.273   9.668
21641WAT      O65164   6.012   1.250   6.256
21641WAT     H165165   6.015   1.179   6.327
21641WAT     H265166   5.931   1.307   6.271
21642WAT      O65167   5.401   1.305   6.720
21642WAT     H165168   5.419   1.381   6.782
21642WAT     H265169   5.418   1.218   6.767
21643WAT      O65170   4.612   6.573   0.161
21643WAT     H165171   4.627   6.565   0.062
21643WAT     H265172   4.563   6.657   0.180
21644WAT      O65173   8.036   9.250   2.017
21644WAT     H165174   8.035   9.226   1.920
21644WAT     H265175   7.943   9.243   2.054
21645WAT      O65176   2.476   2.886   7.474
21645WAT     H165177   2.477   2.822   7.397
21645WAT     H265178   2.541   2.855   7.544
21646WAT      O65179   4.404   5.154   0.211
21646WAT     H165180   4.395   5.188   0.118
21646WAT     H265181   4.418   5.231   0.274
21647WAT      O65182   1.151   7.047   2.045
21647WAT     H165183   1.057   7.012   2.040
21647WAT     H265184   1.207   6.987   2.102
21648WAT      O65185   0.711   6.064   5.355
21648WAT     H165186   0.678   6.048   5.261
21648WAT     H265187   0.760   5.983   5.386
21649WAT      O65188   2.985   3.794   0.722
21649WAT     H165189   3.032   3.880   0.704
21649WAT     H265190   2.894   3.813   0.761
21650WAT      O65191   2.469   2.831   4.352
21650WAT     H165192   2.484   2.817   4.450
21650WAT     H265193   2.406   2.907   4.338
21651WAT      O65194   8.754   6.602   6.137
21651WAT     H165195   8.725   6.660   6.060
21651WAT     H265196   8.851   6.578   6.126
21652WAT      O65197   0.005   9.462   7.249
21652WAT     H165198  -0.071   9.520   7.221
21652WAT     H265199   0.040   9.492   7.337
21653WAT      O65200   3.134   6.589   4.829
21653WAT     H165201   3.215   6.622   4.782
21653WAT     H265202   3.138   6.613   4.926
21654WAT      O65203   5.623   7.903   1.401
21654WAT     H165204   5.720   7.894   1.380
21654WAT     H265205   5.584   7.977   1.345
21655WAT      O65206   0.774   8.075   3.444
21655WAT     H165207   0.712   7.999   3.466
21655WAT     H265208   0.816   8.109   3.529
21656WAT      O65209   5.538   7.014   1.454
21656WAT     H165210   5.538   7.113   1.470
21656WAT     H265211   5.510   6.996   1.360
21657WAT      O65212   0.055   1.161   8.018
21657WAT     H165213   0.052   1.096   8.094
21657WAT     H265214   0.015   1.119   7.936
21658WAT      O65215   4.139   7.656   8.299
21658WAT     H165216   4.231   7.621   8.286
21658WAT     H265217   4.120   7.728   8.232
21659WAT      O65218   1.911   4.473   4.744
21659WAT     H165219   1.990   4.428   4.786
21659WAT     H265220   1.933   4.569   4.726
21660WAT      O65221   0.500   7.951   3.433
21660WAT     H165222   0.470   7.967   3.339
21660WAT     H265223   0.438   7.998   3.496
21661WAT      O65224   7.995   2.422   4.388
21661WAT     H165225   8.057   2.349   4.361
21661WAT     H265226   7.972   2.478   4.309
21662WAT      O65227   7.581   9.717   5.072
21662WAT     H165228   7.644   9.707   5.150
21662WAT     H265229   7.492   9.677   5.096
21663WAT      O65230   0.879   7.883   4.931
21663WAT     H165231   0.876   7.825   4.850
21663WAT     H265232   0.819   7.962   4.919
21664WAT      O65233   3.070   5.564   8.552
21664WAT     H165234   3.011   5.573   8.472
21664WAT     H265235   3.088   5.467   8.569
21665WAT      O65236   5.613   8.780   6.880
21665WAT     H165237   5.627   8.786   6.782
21665WAT     H265238   5.515   8.771   6.900
21666WAT      O65239   4.640   3.037   5.076
21666WAT     H165240   4.589   3.001   4.998
21666WAT     H265241   4.577   3.084   5.137
21667WAT      O65242   7.635   7.343   9.500
21667WAT     H165243   7.596   7.343   9.591
21667WAT     H265244   7.657   7.437   9.473
21668WAT      O65245   6.433   8.524   5.127
21668WAT     H165246   6.368   8.463   5.081
21668WAT     H265247   6.457   8.600   5.067
21669WAT      O65248   7.868   9.623   6.245
21669WAT     H165249   7.781   9.663   6.274
21669WAT     H265250   7.943   9.668   6.293
21670WAT      O65251   0.139   5.951   0.798
21670WAT     H165252   0.128   5.857   0.765
21670WAT     H265253   0.051   5.998   0.794
21671WAT      O65254   1.179   4.273   8.790
21671WAT     H165255   1.264   4.307   8.829
21671WAT     H265256   1.194   4.241   8.697
21672WAT      O65257   5.455   4.525   2.002
21672WAT     H165258   5.382   4.588   1.973
21672WAT     H265259   5.540   4.549   1.956
21673WAT      O65260   5.745   8.553   0.825
21673WAT     H165261   5.771   8.490   0.898
21673WAT     H265262   5.689   8.506   0.758
21674WAT      O65263   2.936   8.494   6.641
21674WAT     H165264   3.003   8.538   6.700
21674WAT     H265265   2.967   8.499   6.546
21675WAT      O65266   7.219   5.229   6.112
21675WAT     H165267   7.124   5.217   6.085
21675WAT     H265268   7.254   5.145   6.153
21676WAT      O65269   1.919   3.810   5.118
21676WAT     H165270   1.954   3.718   5.132
21676WAT     H265271   1.994   3.872   5.095
21677WAT      O65272   0.909   4.644   1.185
21677WAT     H165273   0.876   4.561   1.231
21677WAT     H265274   0.897   4.722   1.246
21678WAT      O65275   3.176   1.787   6.797
21678WAT     H165276   3.168   1.820   6.703
21678WAT     H265277   3.158   1.689   6.800
21679WAT      O65278   1.325   1.109   5.399
21679WAT     H165279   1.352   1.185   5.459
21679WAT     H265280   1.350   1.023   5.442
21680WAT      O65281   7.460   2.138   8.745
21680WAT     H165282   7.490   2.129   8.650
21680WAT     H265283   7.497   2.063   8.799
21681WAT      O65284   2.162   0.615   6.173
21681WAT     H165285   2.128   0.534   6.222
21681WAT     H265286   2.221   0.669   6.235
21682WAT      O65287   5.555   2.320   9.146
21682WAT     H165288   5.517   2.354   9.060
21682WAT     H265289   5.540   2.221   9.152
21683WAT      O65290   9.750   4.944   9.567
21683WAT     H165291   9.832   4.999   9.582
21683WAT     H265292   9.715   4.960   9.475
21684WAT      O65293   8.188   9.685   0.632
21684WAT     H165294   8.238   9.771   0.626
21684WAT     H265295   8.091   9.703   0.646
21685WAT      O65296   9.231   1.552   0.424
21685WAT     H165297   9.237   1.551   0.523
21685WAT     H265298   9.138   1.574   0.396
21686WAT      O65299   5.659   1.928   5.974
21686WAT     H165300   5.659   1.828   5.975
21686WAT     H265301   5.732   1.961   5.914
21687WAT      O65302   5.723   5.876   6.069
21687WAT     H165303   5.719   5.779   6.095
21687WAT     H265304   5.697   5.933   6.147
21688WAT      O65305   4.002   9.045   9.697
21688WAT     H165306   4.042   9.050   9.788
21688WAT     H265307   4.011   9.134   9.652
21689WAT      O65308   4.997   0.447   6.900
21689WAT     H165309   4.914   0.397   6.921
21689WAT     H265310   4.981   0.545   6.913
21690WAT      O65311   2.756   8.989   5.926
21690WAT     H165312   2.828   9.058   5.919
21690WAT     H265313   2.715   8.975   5.835
21691WAT      O65314   4.921   0.423   0.742
21691WAT     H165315   4.967   0.409   0.654
21691WAT     H265316   4.919   0.337   0.792
21692WAT      O65317   5.958   6.001   1.278
21692WAT     H165318   5.884   5.935   1.288
21692WAT     H265319   6.002   6.017   1.366
21693WAT      O65320   8.639   6.762   5.402
21693WAT     H165321   8.609   6.688   5.342
21693WAT     H265322   8.738   6.774   5.392
21694WAT      O65323   5.320   8.361   7.385
21694WAT     H165324   5.406   8.313   7.400
21694WAT     H265325   5.270   8.369   7.471
21695WAT      O65326   2.331   0.554   3.742
21695WAT     H165327   2.414   0.593   3.782
21695WAT     H265328   2.287   0.623   3.684
21696WAT      O65329   6.590   7.447   5.072
21696WAT     H165330   6.566   7.379   5.003
21696WAT     H265331   6.682   7.480   5.055
21697WAT      O65332   9.625   4.070   3.424
21697WAT     H165333   9.603   4.111   3.335
21697WAT     H265334   9.601   3.973   3.422
21698WAT      O65335   8.932   8.347   6.201
21698WAT     H165336   8.923   8.341   6.101
21698WAT     H265337   8.842   8.361   6.242
21699WAT      O65338   9.211   1.798   0.891
21699WAT     H165339   9.203   1.896   0.872
21699WAT     H265340   9.293   1.781   0.946
21700WAT      O65341   0.980   6.723   7.404
21700WAT     H165342   1.048   6.786   7.368
21700WAT     H265343   0.978   6.730   7.504
21701WAT      O65344   9.484   8.859   8.429
21701WAT     H165345   9.531   8.779   8.467
21701WAT     H265346   9.538   8.941   8.446
21702WAT      O65347   0.314   1.330   2.405
21702WAT     H165348   0.346   1.309   2.497
21702WAT     H265349   0.225   1.374   2.410
21703WAT      O65350   6.785   5.168   9.350
21703WAT     H165351   6.728   5.147   9.271
21703WAT     H265352   6.728   5.170   9.432
21704WAT      O65353   8.964   7.422   1.800
21704WAT     H165354   9.004   7.499   1.851
21704WAT     H265355   8.999   7.422   1.707
21705WAT      O65356   3.271   2.560   3.562
21705WAT     H165357   3.299   2.628   3.494
21705WAT     H265358   3.220   2.487   3.517
21706WAT      O65359   0.027   3.228   9.663
21706WAT     H165360  -0.003   3.238   9.569
21706WAT     H265361   0.105   3.165   9.666
21707WAT      O65362   6.827   8.954   3.452
21707WAT     H165363   6.868   9.042   3.477
21707WAT     H265364   6.738   8.945   3.496
21708WAT      O65365   7.860   2.084   1.211
21708WAT     H165366   7.934   2.070   1.146
21708WAT     H265367   7.889   2.052   1.301
21709WAT      O65368   8.740   5.869   9.403
21709WAT     H165369   8.775   5.838   9.314
21709WAT     H265370   8.797   5.943   9.437
21710WAT      O65371   1.609   4.527   1.698
21710WAT     H165372   1.573   4.454   1.640
21710WAT     H265373   1.704   4.545   1.674
21711WAT      O65374   8.694   2.155   6.654
21711WAT     H165375   8.730   2.182   6.565
21711WAT     H265376   8.680   2.236   6.711
21712WAT      O65377   2.398   7.935   1.439
21712WAT     H165378   2.422   7.921   1.535
21712WAT     H265379   2.459   8.003   1.399
21713WAT      O65380   6.804   2.441   0.738
21713WAT     H165381   6.752   2.356   0.742
21713WAT     H265382   6.856   2.445   0.653
21714WAT      O65383   1.559   7.368   8.998
21714WAT     H165384   1.539   7.408   9.087
21714WAT     H265385   1.658   7.371   8.982
21715WAT      O65386   9.709   7.574   3.573
21715WAT     H165387   9.759   7.645   3.523
21715WAT     H265388   9.658   7.517   3.510
21716WAT      O65389   7.873   6.890   5.407
21716WAT     H165390   7.918   6.800   5.413
21716WAT     H265391   7.933   6.960   5.445
21717WAT      O65392   7.629   9.571   0.513
21717WAT     H165393   7.656   9.483   0.553
21717WAT     H265394   7.699   9.602   0.450
21718WAT      O65395   4.894   7.558   4.084
21718WAT     H165396   4.890   7.458   4.090
21718WAT     H265397   4.816   7.597   4.133
21719WAT      O65398   5.635   6.055   0.184
21719WAT     H165399   5.703   6.129   0.181
21719WAT     H265400   5.643   6.000   0.102
21720WAT      O65401   3.333   1.528   1.701
21720WAT     H165402   3.407   1.511   1.766
21720WAT     H265403   3.297   1.441   1.668
21721WAT      O65404   8.391   2.032   1.015
21721WAT     H165405   8.413   1.997   1.106
21721WAT     H265406   8.454   1.993   0.948
21722WAT      O65407   5.820   2.080   8.716
21722WAT     H165408   5.837   1.983   8.700
21722WAT     H265409   5.727   2.093   8.751
21723WAT      O65410   0.933   7.290   0.187
21723WAT     H165411   0.855   7.232   0.166
21723WAT     H265412   0.972   7.326   0.102
21724WAT      O65413   9.298   6.192   7.883
21724WAT     H165414   9.372   6.238   7.932
21724WAT     H265415   9.318   6.094   7.875
21725WAT      O65416   3.204   9.692   0.694
21725WAT     H165417   3.236   9.656   0.607
21725WAT     H265418   3.125   9.751   0.679
21726WAT      O65419   0.818   1.136   6.001
21726WAT     H165420   0.776   1.149   5.911
21726WAT     H265421   0.873   1.053   6.000
21727WAT      O65422   9.022   0.098   5.779
21727WAT     H165423   8.967   0.120   5.699
21727WAT     H265424   9.118   0.093   5.753
21728WAT      O65425   6.551   0.886   1.152
21728WAT     H165426   6.603   0.873   1.236
21728WAT     H265427   6.594   0.834   1.078
21729WAT      O65428   4.604   1.116   9.382
21729WAT     H165429   4.568   1.182   9.317
21729WAT     H265430   4.528   1.078   9.436
21730WAT      O65431   6.730   8.538   4.752
21730WAT     H165432   6.666   8.587   4.811
21730WAT     H265433   6.785   8.604   4.701
21731WAT      O65434   8.330   7.048   9.209
21731WAT     H165435   8.233   7.049   9.182
21731WAT     H265436   8.363   6.954   9.213
21732WAT      O65437   8.868   5.702   5.390
21732WAT     H165438   8.966   5.695   5.406
21732WAT     H265439   8.847   5.789   5.345
21733WAT      O65440   9.183   6.693   8.453
21733WAT     H165441   9.157   6.642   8.371
21733WAT     H265442   9.134   6.780   8.455
21734WAT      O65443   4.408   8.313   9.248
21734WAT     H165444   4.315   8.334   9.217
21734WAT     H265445   4.407   8.292   9.346
21735WAT      O65446   0.537   7.139   1.843
21735WAT     H165447   0.483   7.220   1.823
21735WAT     H265448   0.504   7.096   1.927
21736WAT      O65449   1.429   6.442   1.750
21736WAT     H165450   1.489   6.431   1.671
21736WAT     H265451   1.378   6.528   1.741
21737WAT      O65452   2.558   4.455   2.763
21737WAT     H165453   2.601   4.497   2.683
21737WAT     H265454   2.595   4.363   2.776
21738WAT      O65455   3.147   4.562   8.289
21738WAT     H165456   3.202   4.482   8.316
21738WAT     H265457   3.199   4.617   8.223
21739WAT      O65458   4.228   2.576   6.279
21739WAT     H165459   4.296   2.649   6.284
21739WAT     H265460   4.175   2.586   6.195
21740WAT      O65461   2.518   7.440   7.864
21740WAT     H165462   2.478   7.387   7.938
21740WAT     H265463   2.548   7.378   7.791
21741WAT      O65464   8.771   0.097   9.562
21741WAT     H165465   8.672   0.103   9.577
21741WAT     H265466   8.789   0.086   9.465
21742WAT      O65467   6.949   4.193   5.015
21742WAT     H165468   6.868   4.200   4.956
21742WAT     H265469   7.027   4.236   4.970
21743WAT      O65470   2.774   8.593   1.657
21743WAT     H165471   2.849   8.565   1.597
21743WAT     H265472   2.804   8.586   1.752
21744WAT      O65473   7.051   8.725   1.786
21744WAT     H165474   7.140   8.740   1.743
21744WAT     H265475   6.984   8.788   1.746
21745WAT      O65476   8.636   4.312   4.707
21745WAT     H165477   8.631   4.395   4.763
21745WAT     H265478   8.732   4.295   4.683
21746WAT      O65479   8.451   3.790   3.046
21746WAT     H165480   8.542   3.782   3.005
21746WAT     H265481   8.459   3.787   3.145
21747WAT      O65482   2.508   5.634   4.247
21747WAT     H165483   2.444   5.571   4.289
21747WAT     H265484   2.548   5.694   4.317
21748WAT      O65485   7.189   6.112   6.890
21748WAT     H165486   7.253   6.037   6.871
21748WAT     H265487   7.214   6.156   6.976
21749WAT      O65488   1.007   4.198   8.409
21749WAT     H165489   0.909   4.216   8.412
21749WAT     H265490   1.024   4.100   8.418
21750WAT      O65491   7.264   1.271   4.588
21750WAT     H165492   7.177   1.256   4.540
21750WAT     H265493   7.338   1.228   4.536
21751WAT      O65494   4.858   2.981   4.921
21751WAT     H165495   4.935   3.034   4.955
21751WAT     H265496   4.779   2.994   4.981
21752WAT      O65497   1.910   0.790   8.932
21752WAT     H165498   1.915   0.691   8.922
21752WAT     H265499   1.862   0.813   9.017
21753WAT      O65500   3.654   0.441   1.137
21753WAT     H165501   3.586   0.433   1.210
21753WAT     H265502   3.608   0.457   1.050
21754WAT      O65503   0.625   3.898   0.915
21754WAT     H165504   0.679   3.833   0.862
21754WAT     H265505   0.535   3.909   0.874
21755WAT      O65506   1.890   6.806   1.386
21755WAT     H165507   1.843   6.792   1.299
21755WAT     H265508   1.859   6.891   1.428
21756WAT      O65509   4.199   9.470   5.364
21756WAT     H165510   4.154   9.518   5.439
21756WAT     H265511   4.131   9.425   5.306
21757WAT      O65512   9.018   6.211   2.284
21757WAT     H165513   9.039   6.197   2.187
21757WAT     H265514   8.961   6.136   2.317
21758WAT      O65515   8.229   6.370   3.403
21758WAT     H165516   8.311   6.407   3.447
21758WAT     H265517   8.253   6.334   3.312
21759WAT      O65518   7.267   0.120   0.196
21759WAT     H165519   7.219   0.203   0.225
21759WAT     H265520   7.215   0.075   0.123
21760WAT      O65521   6.052   3.725   9.126
21760WAT     H165522   5.969   3.755   9.079
21760WAT     H265523   6.115   3.802   9.134
21761WAT      O65524   7.588   0.049   5.539
21761WAT     H165525   7.498   0.078   5.506
21761WAT     H265526   7.584   0.029   5.637
21762WAT      O65527   2.236   4.468   5.658
21762WAT     H165528   2.144   4.506   5.649
21762WAT     H265529   2.239   4.379   5.612
21763WAT      O65530   4.641   4.338   7.217
21763WAT     H165531   4.629   4.259   7.157
21763WAT     H265532   4.614   4.421   7.168
21764WAT      O65533   8.005   0.291   8.350
21764WAT     H165534   7.948   0.230   8.295
21764WAT     H265535   8.033   0.370   8.295
21765WAT      O65536   6.449   1.826   2.883
21765WAT     H165537   6.523   1.892   2.897
21765WAT     H265538   6.438   1.811   2.784
21766WAT      O65539   7.772   7.533   6.897
21766WAT     H165540   7.743   7.442   6.928
21766WAT     H265541   7.726   7.603   6.952
21767WAT      O65542   9.259   9.504   0.150
21767WAT     H165543   9.166   9.529   0.122
21767WAT     H265544   9.323   9.577   0.126
21768WAT      O65545   3.766   0.759   2.199
21768WAT     H165546   3.836   0.767   2.271
21768WAT     H265547   3.689   0.705   2.233
21769WAT      O65548   0.432   2.419   3.927
21769WAT     H165549   0.480   2.338   3.961
21769WAT     H265550   0.495   2.497   3.928
21770WAT      O65551   8.575   5.662   8.236
21770WAT     H165552   8.653   5.647   8.297
21770WAT     H265553   8.535   5.751   8.255
21771WAT      O65554   4.122   9.589   1.165
21771WAT     H165555   4.175   9.525   1.221
21771WAT     H265556   4.171   9.607   1.080
21772WAT      O65557   9.670   8.022   8.550
21772WAT     H165558   9.642   7.939   8.502
21772WAT     H265559   9.762   8.048   8.520
21773WAT      O65560   0.339   2.571   2.410
21773WAT     H165561   0.268   2.535   2.470
21773WAT     H265562   0.382   2.650   2.453
21774WAT      O65563   1.349   5.131   9.605
21774WAT     H165564   1.415   5.133   9.680
21774WAT     H265565   1.257   5.144   9.642
21775WAT      O65566   6.233   9.127   5.264
21775WAT     H165567   6.275   9.216   5.245
21775WAT     H265568   6.136   9.139   5.285
21776WAT      O65569   8.993   8.131   8.983
21776WAT     H165570   8.944   8.143   8.896
21776WAT     H265571   9.082   8.176   8.978
21777WAT      O65572   5.846   2.570   4.126
21777WAT     H165573   5.943   2.586   4.145
21777WAT     H265574   5.795   2.572   4.212
21778WAT      O65575   4.486   8.491   4.900
21778WAT     H165576   4.415   8.489   4.970
21778WAT     H265577   4.561   8.550   4.931
21779WAT      O65578   2.631   1.346   3.296
21779WAT     H165579   2.660   1.255   3.264
21779WAT     H265580   2.537   1.340   3.330
21780WAT      O65581   8.698   4.483   7.922
21780WAT     H165582   8.661   4.568   7.959
21780WAT     H265583   8.758   4.439   7.989
21781WAT      O65584   5.736   5.279   6.998
21781WAT     H165585   5.636   5.282   7.001
21781WAT     H265586   5.770   5.362   6.954
21782WAT      O65587   4.228   0.091   7.252
21782WAT     H165588   4.144   0.145   7.246
21782WAT     H265589   4.226   0.035   7.336
21783WAT      O65590   2.524   4.174   5.685
21783WAT     H165591   2.447   4.226   5.722
21783WAT     H265592   2.540   4.093   5.742
21784WAT      O65593   0.485   3.437   1.680
21784WAT     H165594   0.480   3.434   1.580
21784WAT     H265595   0.574   3.401   1.710
21785WAT      O65596   8.410   0.367   4.391
21785WAT     H165597   8.441   0.357   4.296
21785WAT     H265598   8.461   0.304   4.449
21786WAT      O65599   6.423   0.729   0.165
21786WAT     H165600   6.451   0.708   0.072
21786WAT     H265601   6.346   0.794   0.163
21787WAT      O65602   3.399   0.231   1.827
21787WAT     H165603   3.359   0.146   1.859
21787WAT     H265604   3.449   0.276   1.901
21788WAT      O65605   9.574   9.443   1.163
21788WAT     H165606   9.574   9.343   1.162
21788WAT     H265607   9.608   9.477   1.075
21789WAT      O65608   7.242   4.393   0.435
21789WAT     H165609   7.329   4.425   0.397
21789WAT     H265610   7.192   4.471   0.473
21790WAT      O65611   2.652   5.983   2.269
21790WAT     H165612   2.601   5.998   2.354
21790WAT     H265613   2.747   6.008   2.282
21791WAT      O65614   3.643   6.760   4.810
21791WAT     H165615   3.679   6.843   4.769
21791WAT     H265616   3.684   6.680   4.766
21792WAT      O65617   4.955   2.820   5.873
21792WAT     H165618   4.927   2.757   5.945
21792WAT     H265619   4.964   2.770   5.787
21793WAT      O65620   8.307   4.967   9.630
21793WAT     H165621   8.276   5.060   9.648
21793WAT     H265622   8.252   4.926   9.557
21794WAT      O65623   8.903   0.264   3.143
21794WAT     H165624   8.920   0.166   3.133
21794WAT     H265625   8.987   0.315   3.125
21795WAT      O65626   2.140   7.156   2.841
21795WAT     H165627   2.083   7.076   2.861
21795WAT     H265628   2.149   7.212   2.924
21796WAT      O65629   5.371   2.969   9.239
21796WAT     H165630   5.343   2.881   9.200
21796WAT     H265631   5.401   2.956   9.334
21797WAT      O65632   7.120   2.495   5.379
21797WAT     H165633   7.131   2.538   5.289
21797WAT     H265634   7.049   2.426   5.374
21798WAT      O65635   8.145   5.686   3.599
21798WAT     H165636   8.070   5.624   3.576
21798WAT     H265637   8.232   5.640   3.581
21799WAT      O65638   5.001   8.374   1.940
21799WAT     H165639   4.997   8.294   1.999
21799WAT     H265640   4.919   8.377   1.882
21800WAT      O65641   2.126   1.580   5.636
21800WAT     H165642   2.038   1.551   5.673
21800WAT     H265643   2.150   1.670   5.672
21801WAT      O65644   4.427   8.889   8.856
21801WAT     H165645   4.379   8.804   8.834
21801WAT     H265646   4.361   8.958   8.886
21802WAT      O65647   7.045   5.792   9.184
21802WAT     H165648   6.994   5.872   9.215
21802WAT     H265649   7.036   5.718   9.252
21803WAT      O65650   9.078   6.101   1.468
21803WAT     H165651   9.095   6.167   1.395
21803WAT     H265652   9.164   6.053   1.489
21804WAT      O65653   3.723   2.243   3.830
21804WAT     H165654   3.709   2.232   3.928
21804WAT     H265655   3.635   2.236   3.783
21805WAT      O65656   3.995   3.078   1.898
21805WAT     H165657   4.070   3.014   1.883
21805WAT     H265658   3.908   3.032   1.884
21806WAT      O65659   5.546   3.476   2.774
21806WAT     H165660   5.478   3.548   2.760
21806WAT     H265661   5.628   3.498   2.722
21807WAT      O65662   4.028   0.122   6.118
21807WAT     H165663   4.122   0.095   6.099
21807WAT     H265664   3.997   0.081   6.203
21808WAT      O65665   2.270   3.352   5.134
21808WAT     H165666   2.290   3.405   5.216
21808WAT     H265667   2.355   3.333   5.084
21809WAT      O65668   1.527   3.876   3.688
21809WAT     H165669   1.478   3.919   3.612
21809WAT     H265670   1.623   3.863   3.664
21810WAT      O65671   4.381   5.120   2.367
21810WAT     H165672   4.290   5.160   2.358
21810WAT     H265673   4.446   5.189   2.398
21811WAT      O65674   9.306   2.735   4.805
21811WAT     H165675   9.230   2.718   4.868
21811WAT     H265676   9.272   2.784   4.724
21812WAT      O65677   3.025   9.133   4.216
21812WAT     H165678   3.028   9.231   4.232
21812WAT     H265679   3.036   9.084   4.303
21813WAT      O65680   9.435   0.248   5.279
21813WAT     H165681   9.526   0.243   5.238
21813WAT     H265682   9.366   0.247   5.207
21814WAT      O65683   7.421   3.600   2.527
21814WAT     H165684   7.408   3.564   2.435
21814WAT     H265685   7.518   3.609   2.547
21815WAT      O65686   9.868   0.818   9.133
21815WAT     H165687   9.853   0.889   9.202
21815WAT     H265688   9.793   0.753   9.135
21816WAT      O65689   1.250   5.928   6.332
21816WAT     H165690   1.188   6.007   6.322
21816WAT     H265691   1.282   5.922   6.426
21817WAT      O65692   5.082   6.707   6.346
21817WAT     H165693   5.103   6.622   6.297
21817WAT     H265694   5.062   6.779   6.280
21818WAT      O65695   2.565   7.976   4.933
21818WAT     H165696   2.635   8.001   5.000
21818WAT     H265697   2.502   8.052   4.920
21819WAT      O65698   3.351   1.423   8.321
21819WAT     H165699   3.416   1.405   8.395
21819WAT     H265700   3.258   1.428   8.358
21820WAT      O65701   7.367   8.375   1.621
21820WAT     H165702   7.379   8.399   1.524
21820WAT     H265703   7.343   8.279   1.629
21821WAT      O65704   3.444   8.603   8.844
21821WAT     H165705   3.453   8.594   8.745
21821WAT     H265706   3.452   8.513   8.886
21822WAT      O65707   0.972   7.842   0.008
21822WAT     H165708   0.996   7.903   0.084
21822WAT     H265709   1.035   7.858  -0.068
21823WAT      O65710   6.464   1.612   5.533
21823WAT     H165711   6.379   1.601   5.482
21823WAT     H265712   6.507   1.522   5.545
21824WAT      O65713   4.330   9.212   2.522
21824WAT     H165714   4.322   9.299   2.472
21824WAT     H265715   4.314   9.136   2.459
21825WAT      O65716   4.080   9.584   3.046
21825WAT     H165717   4.157   9.641   3.017
21825WAT     H265718   4.091   9.492   3.007
21826WAT      O65719   0.727   4.766   2.472
21826WAT     H165720   0.703   4.853   2.514
21826WAT     H265721   0.779   4.782   2.389
21827WAT      O65722   0.871   9.174   0.984
21827WAT     H165723   0.867   9.239   1.060
21827WAT     H265724   0.966   9.162   0.956
21828WAT      O65725   2.535   4.171   1.695
21828WAT     H165726   2.581   4.197   1.780
21828WAT     H265727   2.598   4.121   1.636
21829WAT      O65728   0.745   2.619   3.296
21829WAT     H165729   0.802   2.698   3.271
21829WAT     H265730   0.675   2.648   3.361
21830WAT      O65731   3.605   6.227   3.497
21830WAT     H165732   3.518   6.265   3.528
21830WAT     H265733   3.670   6.227   3.573
21831WAT      O65734   8.130   6.409   6.329
21831WAT     H165735   8.117   6.367   6.239
21831WAT     H265736   8.043   6.406   6.380
21832WAT      O65737   6.162   9.529   0.120
21832WAT     H165738   6.249   9.482   0.110
21832WAT     H265739   6.166   9.618   0.075
21833WAT      O65740   6.762   8.137   1.548
21833WAT     H165741   6.842   8.184   1.511
21833WAT     H265742   6.791   8.077   1.623
21834WAT      O65743   5.782   8.412   2.313
21834WAT     H165744   5.684   8.392   2.310
21834WAT     H265745   5.804   8.480   2.243
21835WAT      O65746   2.534   1.819   5.412
21835WAT     H165747   2.602   1.860   5.473
21835WAT     H265748   2.515   1.726   5.441
21836WAT      O65749   0.945   7.892   9.459
21836WAT     H165750   0.859   7.910   9.508
21836WAT     H265751   0.927   7.887   9.361
21837WAT      O65752   7.143   5.998   3.356
21837WAT     H165753   7.157   5.942   3.274
21837WAT     H265754   7.161   5.944   3.437
21838WAT      O65755   0.649   3.228   1.284
21838WAT     H165756   0.563   3.242   1.234
21838WAT     H265757   0.648   3.137   1.326
21839WAT      O65758   4.305   6.936   3.894
21839WAT     H165759   4.306   6.989   3.809
21839WAT     H265760   4.264   6.847   3.877
21840WAT      O65761   7.761   4.717   5.469
21840WAT     H165762   7.770   4.663   5.385
21840WAT     H265763   7.666   4.719   5.498
21841WAT      O65764   4.285   1.309   7.736
21841WAT     H165765   4.210   1.272   7.681
21841WAT     H265766   4.371   1.298   7.687
21842WAT      O65767   5.958   6.460   2.564
21842WAT     H165768   6.053   6.462   2.592
21842WAT     H265769   5.904   6.409   2.630
21843WAT      O65770   6.600   1.425   3.752
21843WAT     H165771   6.589   1.401   3.656
21843WAT     H265772   6.583   1.523   3.764
21844WAT      O65773   4.990   8.033   8.125
21844WAT     H165774   5.025   8.070   8.039
21844WAT     H265775   5.044   8.069   8.201
21845WAT      O65776   4.697   7.378   2.191
21845WAT     H165777   4.725   7.428   2.273
21845WAT     H265778   4.709   7.280   2.207
21846WAT      O65779   9.479   1.660   7.773
21846WAT     H165780   9.546   1.610   7.828
21846WAT     H265781   9.497   1.758   7.781
21847WAT      O65782   4.281   8.600   1.296
21847WAT     H165783   4.350   8.529   1.287
21847WAT     H265784   4.320   8.678   1.345
21848WAT      O65785   5.160   2.610   4.688
21848WAT     H165786   5.206   2.697   4.704
21848WAT     H265787   5.091   2.621   4.616
21849WAT      O65788   3.197   9.085   2.462
21849WAT     H165789   3.104   9.115   2.484
21849WAT     H265790   3.194   8.993   2.423
21850WAT      O65791   3.414   0.058   7.550
21850WAT     H165792   3.426   0.138   7.609
21850WAT     H265793   3.504   0.021   7.526
21851WAT      O65794   8.627   5.531   0.874
21851WAT     H165795   8.695   5.458   0.886
21851WAT     H265796   8.536   5.491   0.865
21852WAT      O65797   0.073   1.489   6.460
21852WAT     H165798   0.046   1.553   6.532
21852WAT     H265799   0.168   1.460   6.474
21853WAT      O65800   7.004   4.815   6.299
21853WAT     H165801   7.036   4.724   6.324
21853WAT     H265802   7.043   4.882   6.362
21854WAT      O65803   8.885   7.479   9.405
21854WAT     H165804   8.867   7.539   9.326
21854WAT     H265805   8.812   7.412   9.414
21855WAT      O65806   9.676   5.733   7.530
21855WAT     H165807   9.699   5.745   7.627
21855WAT     H265808   9.580   5.710   7.522
21856WAT      O65809   3.345   3.489   3.585
21856WAT     H165810   3.422   3.484   3.520
21856WAT     H265811   3.338   3.402   3.634
21857WAT      O65812   5.382   0.306   1.430
21857WAT     H165813   5.331   0.377   1.478
21857WAT     H265814   5.339   0.217   1.448
21858WAT      O65815   5.140   0.671   4.663
21858WAT     H165816   5.094   0.758   4.681
21858WAT     H265817   5.086   0.617   4.600
21859WAT      O65818   8.819   0.421   1.518
21859WAT     H165819   8.852   0.327   1.531
21859WAT     H265820   8.735   0.434   1.571
21860WAT      O65821   4.247   0.151   7.840
21860WAT     H165822   4.180   0.104   7.897
21860WAT     H265823   4.201   0.212   7.776
21861WAT      O65824   5.917   0.893   8.773
21861WAT     H165825   5.978   0.878   8.851
21861WAT     H265826   5.945   0.976   8.725
21862WAT      O65827   1.114   6.181   1.999
21862WAT     H165828   1.043   6.245   2.029
21862WAT     H265829   1.200   6.203   2.045
21863WAT      O65830   6.082   0.439   1.620
21863WAT     H165831   6.008   0.484   1.668
21863WAT     H265832   6.157   0.504   1.606
21864WAT      O65833   4.711   6.297   1.013
21864WAT     H165834   4.727   6.202   1.039
21864WAT     H265835   4.615   6.308   0.986
21865WAT      O65836   5.946   0.764   0.504
21865WAT     H165837   5.901   0.699   0.443
21865WAT     H265838   6.005   0.825   0.451
21866WAT      O65839   6.656   1.492   6.345
21866WAT     H165840   6.734   1.431   6.356
21866WAT     H265841   6.679   1.563   6.279
21867WAT      O65842   4.360   6.221   1.298
21867WAT     H165843   4.307   6.139   1.320
21867WAT     H265844   4.446   6.220   1.349
21868WAT      O65845   6.416   5.172   9.496
21868WAT     H165846   6.500   5.158   9.548
21868WAT     H265847   6.418   5.262   9.453
21869WAT      O65848   4.532   6.201   4.760
21869WAT     H165849   4.438   6.167   4.756
21869WAT     H265850   4.532   6.300   4.745
21870WAT      O65851   4.763   4.971   2.309
21870WAT     H165852   4.851   4.983   2.261
21870WAT     H265853   4.771   5.006   2.402
21871WAT      O65854   7.295   7.584   8.212
21871WAT     H165855   7.233   7.576   8.134
21871WAT     H265856   7.254   7.643   8.281
21872WAT      O65857   8.304   1.910   6.230
21872WAT     H165858   8.216   1.949   6.204
21872WAT     H265859   8.368   1.918   6.154
21873WAT      O65860   3.259   9.120   7.062
21873WAT     H165861   3.253   9.080   7.153
21873WAT     H265862   3.174   9.104   7.013
21874WAT      O65863   5.187   3.984   0.816
21874WAT     H165864   5.171   3.949   0.724
21874WAT     H265865   5.163   4.081   0.819
21875WAT      O65866   9.519   0.665   5.662
21875WAT     H165867   9.526   0.754   5.708
21875WAT     H265868   9.553   0.673   5.569
21876WAT      O65869   2.131   4.435   8.447
21876WAT     H165870   2.230   4.436   8.436
21876WAT     H265871   2.099   4.527   8.469
21877WAT      O65872   8.089   5.394   3.565
21877WAT     H165873   8.169   5.436   3.608
21877WAT     H265874   8.101   5.295   3.561
21878WAT      O65875   0.884   6.586   7.981
21878WAT     H165876   0.898   6.613   8.076
21878WAT     H265877   0.945   6.510   7.959
21879WAT      O65878   0.726   8.712   1.394
21879WAT     H165879   0.762   8.792   1.348
21879WAT     H265880   0.783   8.632   1.375
21880WAT      O65881   5.741   4.918   9.546
21880WAT     H165882   5.658   4.863   9.542
21880WAT     H265883   5.786   4.918   9.457
21881WAT      O65884   0.783   3.315   3.551
21881WAT     H165885   0.790   3.273   3.641
21881WAT     H265886   0.854   3.276   3.491
21882WAT      O65887   9.581   9.281   9.215
21882WAT     H165888   9.530   9.321   9.138
21882WAT     H265889   9.559   9.184   9.223
21883WAT      O65890   5.347   7.785   1.350
21883WAT     H165891   5.424   7.842   1.379
21883WAT     H265892   5.273   7.844   1.317
21884WAT      O65893   2.181   6.064   8.280
21884WAT     H165894   2.276   6.054   8.311
21884WAT     H265895   2.180   6.073   8.181
21885WAT      O65896   0.117   3.712   8.000
21885WAT     H165897   0.050   3.786   7.986
21885WAT     H265898   0.205   3.751   8.025
21886WAT      O65899   3.069   9.352   6.818
21886WAT     H165900   3.062   9.253   6.831
21886WAT     H265901   3.080   9.373   6.721
21887WAT      O65902   4.864   4.563   6.521
21887WAT     H165903   4.917   4.480   6.504
21887WAT     H265904   4.880   4.629   6.447
21888WAT      O65905   4.660   6.185   5.477
21888WAT     H165906   4.592   6.251   5.445
21888WAT     H265907   4.749   6.206   5.436
21889WAT      O65908   7.155   9.350   0.917
21889WAT     H165909   7.156   9.423   0.985
21889WAT     H265910   7.067   9.348   0.871
21890WAT      O65911   3.823   3.460   1.168
21890WAT     H165912   3.913   3.470   1.125
21890WAT     H265913   3.820   3.375   1.220
21891WAT      O65914   6.381   0.152   3.242
21891WAT     H165915   6.438   0.151   3.325
21891WAT     H265916   6.313   0.079   3.248
21892WAT      O65917   7.920   9.743   9.177
21892WAT     H165918   7.994   9.805   9.152
21892WAT     H265919   7.832   9.783   9.153
21893WAT      O65920   2.842   0.198   3.842
21893WAT     H165921   2.760   0.209   3.897
21893WAT     H265922   2.898   0.281   3.849
21894WAT      O65923   6.254   6.014   9.396
21894WAT     H165924   6.336   6.053   9.438
21894WAT     H265925   6.232   5.927   9.440
21895WAT      O65926   1.021   4.351   3.920
21895WAT     H165927   1.053   4.286   3.851
21895WAT     H265928   0.989   4.300   4.000
21896WAT      O65929   3.021   9.577   3.309
21896WAT     H165930   3.084   9.504   3.338
21896WAT     H265931   2.931   9.538   3.290
21897WAT      O65932   1.579   2.852   4.101
21897WAT     H165933   1.621   2.936   4.136
21897WAT     H265934   1.551   2.795   4.178
21898WAT      O65935   0.085   5.266   8.597
21898WAT     H165936   0.085   5.188   8.535
21898WAT     H265937   0.175   5.274   8.640
21899WAT      O65938   6.168   4.199   1.144
21899WAT     H165939   6.090   4.136   1.143
21899WAT     H265940   6.253   4.147   1.145
21900WAT      O65941   6.444   2.065   3.567
21900WAT     H165942   6.495   2.151   3.562
21900WAT     H265943   6.358   2.074   3.518
21901WAT      O65944   2.521   2.361   1.202
21901WAT     H165945   2.575   2.291   1.154
21901WAT     H265946   2.583   2.424   1.250
21902WAT      O65947   4.326   7.981   5.819
21902WAT     H165948   4.275   7.924   5.755
21902WAT     H265949   4.409   8.015   5.774
21903WAT      O65950   8.587   3.014   9.758
21903WAT     H165951   8.506   2.956   9.746
21903WAT     H265952   8.594   3.041   9.854
21904WAT      O65953   1.097   3.950   4.485
21904WAT     H165954   1.152   3.994   4.414
21904WAT     H265955   1.009   3.922   4.447
21905WAT      O65956   7.578   6.024   8.325
21905WAT     H165957   7.608   5.934   8.357
21905WAT     H265958   7.525   6.068   8.397
21906WAT      O65959   7.304   3.037   7.312
21906WAT     H165960   7.377   3.038   7.243
21906WAT     H265961   7.342   3.063   7.401
21907WAT      O65962   3.421   8.959   8.048
21907WAT     H165963   3.399   9.012   7.967
21907WAT     H265964   3.361   8.879   8.053
21908WAT      O65965   5.807   3.839   5.752
21908WAT     H165966   5.745   3.867   5.826
21908WAT     H265967   5.818   3.740   5.754
21909WAT      O65968   2.375   1.355   4.843
21909WAT     H165969   2.427   1.337   4.760
21909WAT     H265970   2.342   1.450   4.842
21910WAT      O65971   6.410   0.407   7.900
21910WAT     H165972   6.386   0.364   7.813
21910WAT     H265973   6.333   0.398   7.964
21911WAT      O65974   7.395   8.108   1.025
21911WAT     H165975   7.321   8.175   1.030
21911WAT     H265976   7.476   8.146   1.071
21912WAT      O65977   4.955   3.422   9.553
21912WAT     H165978   4.882   3.463   9.607
21912WAT     H265979   4.916   3.359   9.486
21913WAT      O65980   3.748   1.290   0.125
21913WAT     H165981   3.679   1.314   0.057
21913WAT     H265982   3.704   1.245   0.203
21914WAT      O65983   8.631   1.930   0.897
21914WAT     H165984   8.677   1.983   0.969
21914WAT     H265985   8.645   1.832   0.914
21915WAT      O65986   9.081   0.126   8.668
21915WAT     H165987   9.078   0.221   8.698
21915WAT     H265988   9.005   0.076   8.709
21916WAT      O65989   5.291   8.394   6.275
21916WAT     H165990   5.330   8.319   6.222
21916WAT     H265991   5.196   8.408   6.250
21917WAT      O65992   3.063   6.761   7.645
21917WAT     H165993   2.975   6.751   7.599
21917WAT     H265994   3.059   6.716   7.735
21918WAT      O65995   4.289   9.397   2.331
21918WAT     H165996   4.246   9.488   2.332
21918WAT     H265997   4.221   9.328   2.308
21919WAT      O65998   0.496   1.006   1.351
21919WAT     H165999   0.549   1.080   1.394
21919WAT     H266000   0.403   1.006   1.389
21920WAT      O66001   8.122   5.886   9.733
21920WAT     H166002   8.217   5.916   9.742
21920WAT     H266003   8.079   5.886   9.824
21921WAT      O66004   5.102   7.042   6.212
21921WAT     H166005   5.152   7.066   6.129
21921WAT     H266006   5.156   7.070   6.292
21922WAT      O66007   9.420   2.035   8.694
21922WAT     H166008   9.360   2.025   8.614
21922WAT     H266009   9.436   1.945   8.735
21923WAT      O66010   1.995   7.754   0.884
21923WAT     H166011   2.037   7.711   0.804
21923WAT     H266012   2.055   7.827   0.917
21924WAT      O66013   2.011   9.140   7.716
21924WAT     H166014   2.038   9.049   7.684
21924WAT     H266015   2.029   9.208   7.645
21925WAT      O66016   4.054   7.578   7.551
21925WAT     H166017   4.081   7.663   7.597
21925WAT     H266018   3.957   7.562   7.564
21926WAT      O66019   3.179   7.063   8.986
21926WAT     H166020   3.113   7.127   8.945
21926WAT     H266021   3.159   7.053   9.083
21927WAT      O66022   3.002   2.882   6.596
21927WAT     H166023   2.925   2.911   6.539
21927WAT     H266024   3.045   2.963   6.637
21928WAT      O66025   4.616   9.497   2.305
21928WAT     H166026   4.602   9.547   2.391
21928WAT     H266027   4.693   9.434   2.316
21929WAT      O66028   7.484   7.829   4.972
21929WAT     H166029   7.574   7.788   4.956
21929WAT     H266030   7.412   7.765   4.945
21930WAT      O66031   3.228   3.948   4.125
21930WAT     H166032   3.268   3.951   4.033
21930WAT     H266033   3.189   3.857   4.141
21931WAT      O66034   1.515   3.867   2.997
21931WAT     H166035   1.464   3.924   2.934
21931WAT     H266036   1.589   3.820   2.948
21932WAT      O66037   7.945   0.464   5.885
21932WAT     H166038   7.907   0.544   5.932
21932WAT     H266039   7.898   0.382   5.917
21933WAT      O66040   2.385   9.375   1.177
21933WAT     H166041   2.322   9.418   1.242
21933WAT     H266042   2.479   9.386   1.211
21934WAT      O66043   1.342   0.828   4.360
21934WAT     H166044   1.244   0.821   4.374
21934WAT     H266045   1.362   0.898   4.291
21935WAT      O66046   3.973   1.131   3.158
21935WAT     H166047   4.051   1.072   3.142
21935WAT     H266048   3.991   1.222   3.121
21936WAT      O66049   1.058   0.083   3.412
21936WAT     H166050   1.136   0.033   3.449
21936WAT     H266051   1.088   0.141   3.336
21937WAT      O66052   1.544   2.461   5.358
21937WAT     H166053   1.533   2.363   5.376
21937WAT     H266054   1.641   2.485   5.362
21938WAT      O66055   4.199   8.700   2.907
21938WAT     H166056   4.156   8.703   2.817
21938WAT     H266057   4.295   8.727   2.900
21939WAT      O66058   7.820   9.702   3.164
21939WAT     H166059   7.835   9.785   3.111
21939WAT     H266060   7.722   9.678   3.162
21940WAT      O66061   2.670   3.712   3.730
21940WAT     H166062   2.697   3.750   3.641
21940WAT     H266063   2.751   3.675   3.775
21941WAT      O66064   4.843   6.803   1.696
21941WAT     H166065   4.829   6.781   1.600
21941WAT     H266066   4.936   6.778   1.723
21942WAT      O66067   2.599   5.321   4.543
21942WAT     H166068   2.696   5.323   4.520
21942WAT     H266069   2.588   5.303   4.641
21943WAT      O66070   5.637   6.965   0.244
21943WAT     H166071   5.595   7.011   0.166
21943WAT     H266072   5.578   6.891   0.276
21944WAT      O66073   2.558   1.335   7.729
21944WAT     H166074   2.560   1.378   7.639
21944WAT     H266075   2.638   1.276   7.739
21945WAT      O66076   0.405   3.600   2.244
21945WAT     H166077   0.315   3.612   2.204
21945WAT     H266078   0.459   3.538   2.187
21946WAT      O66079   5.331   0.161   7.273
21946WAT     H166080   5.240   0.188   7.303
21946WAT     H266081   5.334   0.159   7.173
21947WAT      O66082   0.152   2.451   0.109
21947WAT     H166083   0.214   2.509   0.057
21947WAT     H266084   0.201   2.411   0.186
21948WAT      O66085   5.120   1.897   4.402
21948WAT     H166086   5.102   1.971   4.468
21948WAT     H266087   5.093   1.810   4.442
21949WAT      O66088   7.457   3.185   0.328
21949WAT     H166089   7.432   3.122   0.254
21949WAT     H266090   7.446   3.279   0.296
21950WAT      O66091   1.723   8.798   8.525
21950WAT     H166092   1.637   8.747   8.521
21950WAT     H266093   1.707   8.892   8.495
21951WAT      O66094   4.421   4.125   3.321
21951WAT     H166095   4.391   4.080   3.236
21951WAT     H266096   4.366   4.092   3.397
21952WAT      O66097   9.238   5.307   3.610
21952WAT     H166098   9.155   5.361   3.601
21952WAT     H266099   9.292   5.341   3.687
21953WAT      O66100   5.550   8.875   3.417
21953WAT     H166101   5.625   8.818   3.449
21953WAT     H266102   5.476   8.817   3.384
21954WAT      O66103   2.238   6.692   9.711
21954WAT     H166104   2.251   6.624   9.640
21954WAT     H266105   2.240   6.784   9.670
21955WAT      O66106   9.131   5.791   7.774
21955WAT     H166107   9.089   5.834   7.694
21955WAT     H266108   9.099   5.697   7.781
21956WAT      O66109   0.713   2.987   9.701
21956WAT     H166110   0.770   2.932   9.763
21956WAT     H266111   0.727   2.956   9.607
21957WAT      O66112   2.313   7.675   1.647
21957WAT     H166113   2.266   7.736   1.710
21957WAT     H266114   2.260   7.667   1.563
21958WAT      O66115   1.583   9.313   8.908
21958WAT     H166116   1.583   9.407   8.943
21958WAT     H266117   1.577   9.249   8.984
21959WAT      O66118   1.623   3.807   7.782
21959WAT     H166119   1.580   3.766   7.862
21959WAT     H266120   1.711   3.848   7.809
21960WAT      O66121   1.528   0.037   7.532
21960WAT     H166122   1.598  -0.014   7.481
21960WAT     H266123   1.459  -0.026   7.565
21961WAT      O66124   3.110   4.913   6.320
21961WAT     H166125   3.138   4.927   6.225
21961WAT     H266126   3.092   5.002   6.363
21962WAT      O66127   6.309   3.144   7.753
21962WAT     H166128   6.267   3.076   7.814
21962WAT     H266129   6.312   3.107   7.660
21963WAT      O66130   7.181   2.968   7.598
21963WAT     H166131   7.219   2.877   7.580
21963WAT     H266132   7.251   3.038   7.579
21964WAT      O66133   1.070   4.651   8.737
21964WAT     H166134   1.038   4.746   8.732
21964WAT     H266135   1.103   4.632   8.830
21965WAT      O66136   8.034   8.258   0.910
21965WAT     H166137   8.032   8.293   0.817
21965WAT     H266138   7.940   8.239   0.940
21966WAT      O66139   1.421   2.231   5.636
21966WAT     H166140   1.340   2.174   5.650
21966WAT     H266141   1.401   2.324   5.667
21967WAT      O66142   0.907   6.231   7.292
21967WAT     H166143   0.939   6.324   7.311
21967WAT     H266144   0.978   6.165   7.319
21968WAT      O66145   6.814   2.063   9.491
21968WAT     H166146   6.789   1.966   9.484
21968WAT     H266147   6.880   2.085   9.419
21969WAT      O66148   8.322   1.980   7.362
21969WAT     H166149   8.276   2.020   7.441
21969WAT     H266150   8.286   1.888   7.345
21970WAT      O66151   1.818   4.714   6.294
21970WAT     H166152   1.732   4.761   6.318
21970WAT     H266153   1.868   4.692   6.378
21971WAT      O66154   3.607   9.141   0.884
21971WAT     H166155   3.527   9.084   0.904
21971WAT     H266156   3.636   9.126   0.789
21972WAT      O66157   7.938   9.119   4.035
21972WAT     H166158   7.938   9.149   3.939
21972WAT     H266159   7.910   9.023   4.040
21973WAT      O66160   1.313   7.614   5.335
21973WAT     H166161   1.270   7.524   5.331
21973WAT     H266162   1.410   7.603   5.359
21974WAT      O66163   4.645   7.529   1.439
21974WAT     H166164   4.667   7.433   1.459
21974WAT     H266165   4.556   7.534   1.394
21975WAT      O66166   0.110   7.363   3.508
21975WAT     H166167   0.190   7.306   3.493
21975WAT     H266168   0.051   7.359   3.427
21976WAT      O66169   3.434   8.851   1.632
21976WAT     H166170   3.473   8.857   1.540
21976WAT     H266171   3.345   8.807   1.627
21977WAT      O66172   3.374   6.510   7.532
21977WAT     H166173   3.422   6.598   7.536
21977WAT     H266174   3.440   6.435   7.530
21978WAT      O66175   7.385   3.843   7.253
21978WAT     H166176   7.445   3.900   7.309
21978WAT     H266177   7.294   3.840   7.294
21979WAT      O66178   6.581   9.051   3.108
21979WAT     H166179   6.562   9.081   3.014
21979WAT     H266180   6.679   9.038   3.120
21980WAT      O66181   1.781   1.732   1.769
21980WAT     H166182   1.715   1.731   1.694
21980WAT     H266183   1.851   1.663   1.752
21981WAT      O66184   1.927   5.019   1.437
21981WAT     H166185   1.835   4.994   1.467
21981WAT     H266186   1.960   5.096   1.492
21982WAT      O66187   1.639   4.595   3.964
21982WAT     H166188   1.673   4.610   4.056
21982WAT     H266189   1.549   4.639   3.954
21983WAT      O66190   5.893   7.792   3.450
21983WAT     H166191   5.810   7.739   3.467
21983WAT     H266192   5.932   7.765   3.362
21984WAT      O66193   2.785   4.888   3.651
21984WAT     H166194   2.884   4.887   3.641
21984WAT     H266195   2.746   4.804   3.614
21985WAT      O66196   7.809   4.303   3.061
21985WAT     H166197   7.812   4.236   2.986
21985WAT     H266198   7.714   4.328   3.079
21986WAT      O66199   6.537   1.653   0.131
21986WAT     H166200   6.534   1.558   0.101
21986WAT     H266201   6.508   1.658   0.226
21987WAT      O66202   0.921   6.738   2.440
21987WAT     H166203   0.889   6.810   2.378
21987WAT     H266204   0.882   6.650   2.413
21988WAT      O66205   9.778   8.613   4.674
21988WAT     H166206   9.748   8.708   4.663
21988WAT     H266207   9.815   8.579   4.587
21989WAT      O66208   0.982   5.154   6.504
21989WAT     H166209   0.958   5.077   6.564
21989WAT     H266210   0.911   5.166   6.435
21990WAT      O66211   9.712   7.134   7.354
21990WAT     H166212   9.643   7.166   7.420
21990WAT     H266213   9.676   7.057   7.302
21991WAT      O66214   4.565   1.186   1.204
21991WAT     H166215   4.492   1.162   1.269
21991WAT     H266216   4.611   1.102   1.174
21992WAT      O66217   9.027   3.261   0.882
21992WAT     H166218   9.027   3.171   0.927
21992WAT     H266219   8.956   3.318   0.923
21993WAT      O66220   9.070   2.725   6.975
21993WAT     H166221   9.057   2.635   6.933
21993WAT     H266222   9.155   2.726   7.027
21994WAT      O66223   8.723   0.340   2.958
21994WAT     H166224   8.646   0.276   2.964
21994WAT     H266225   8.789   0.320   3.029
21995WAT      O66226   1.566   6.655   9.793
21995WAT     H166227   1.650   6.682   9.841
21995WAT     H266228   1.568   6.691   9.700
21996WAT      O66229   6.320   1.342   0.923
21996WAT     H166230   6.299   1.380   0.833
21996WAT     H266231   6.388   1.399   0.969
21997WAT      O66232   8.070   5.554   2.307
21997WAT     H166233   7.982   5.579   2.348
21997WAT     H266234   8.144   5.597   2.358
21998WAT      O66235   4.332   2.263   5.091
21998WAT     H166236   4.381   2.221   5.015
21998WAT     H266237   4.249   2.210   5.111
21999WAT      O66238   7.321   8.487   5.937
21999WAT     H166239   7.396   8.489   5.871
21999WAT     H266240   7.253   8.557   5.913
22000WAT      O66241   8.036   1.241   7.518
22000WAT     H166242   8.000   1.257   7.610
22000WAT     H266243   7.966   1.264   7.450
22001WAT      O66244   2.386   3.825   6.180
22001WAT     H166245   2.396   3.827   6.081
22001WAT     H266246   2.290   3.805   6.203
22002WAT      O66247   3.767   1.284   2.902
22002WAT     H166248   3.854   1.311   2.943
22002WAT     H266249   3.716   1.226   2.966
22003WAT      O66250   7.809   6.043   7.658
22003WAT     H166251   7.744   5.987   7.710
22003WAT     H266252   7.900   6.003   7.665
22004WAT      O66253   5.790   1.987   9.389
22004WAT     H166254   5.793   1.998   9.289
22004WAT     H266255   5.882   1.967   9.423
22005WAT      O66256   0.823   2.655   6.752
22005WAT     H166257   0.733   2.670   6.711
22005WAT     H266258   0.876   2.739   6.748
22006WAT      O66259   4.537   1.027   8.447
22006WAT     H166260   4.437   1.022   8.447
22006WAT     H266261   4.566   1.104   8.390
22007WAT      O66262   0.397   0.750   1.543
22007WAT     H166263   0.395   0.701   1.630
22007WAT     H266264   0.304   0.776   1.517
22008WAT      O66265   8.164   4.168   1.332
22008WAT     H166266   8.111   4.122   1.260
22008WAT     H266267   8.117   4.156   1.420
22009WAT      O66268   5.290   9.310   2.411
22009WAT     H166269   5.262   9.345   2.500
22009WAT     H266270   5.389   9.322   2.401
22010WAT      O66271   4.799   6.006   9.135
22010WAT     H166272   4.755   6.091   9.106
22010WAT     H266273   4.785   5.993   9.233
22011WAT      O66274   1.116   9.471   2.353
22011WAT     H166275   1.027   9.459   2.397
22011WAT     H266276   1.176   9.525   2.412
22012WAT      O66277   6.900   2.768   6.832
22012WAT     H166278   6.968   2.713   6.783
22012WAT     H266279   6.865   2.716   6.910
22013WAT      O66280   3.760   3.923   3.404
22013WAT     H166281   3.703   4.002   3.379
22013WAT     H266282   3.815   3.895   3.325
22014WAT      O66283   3.679   7.158   9.223
22014WAT     H166284   3.697   7.067   9.259
22014WAT     H266285   3.583   7.181   9.236
22015WAT      O66286   2.923   3.497   6.106
22015WAT     H166287   2.884   3.462   6.021
22015WAT     H266288   3.014   3.535   6.088
22016WAT      O66289   6.616   7.263   7.276
22016WAT     H166290   6.616   7.166   7.252
22016WAT     H266291   6.522   7.294   7.290
22017WAT      O66292   3.001   0.412   4.629
22017WAT     H166293   3.088   0.363   4.637
22017WAT     H266294   2.946   0.369   4.557
22018WAT      O66295   9.799   0.973   1.052
22018WAT     H166296   9.866   1.039   1.018
22018WAT     H266297   9.835   0.881   1.040
22019WAT      O66298   8.590   6.562   9.460
22019WAT     H166299   8.572   6.658   9.482
22019WAT     H266300   8.570   6.506   9.540
22020WAT      O66301   2.886   1.664   6.397
22020WAT     H166302   2.875   1.616   6.484
22020WAT     H266303   2.826   1.623   6.328
22021WAT      O66304   8.167   7.206   0.511
22021WAT     H166305   8.149   7.175   0.418
22021WAT     H266306   8.194   7.303   0.508
22022WAT      O66307   5.808   4.030   0.779
22022WAT     H166308   5.790   4.096   0.705
22022WAT     H266309   5.803   3.937   0.742
22023WAT      O66310   4.386   1.078   7.321
22023WAT     H166311   4.406   0.982   7.342
22023WAT     H266312   4.287   1.091   7.319
22024WAT      O66313   3.341   4.242   9.696
22024WAT     H166314   3.368   4.156   9.651
22024WAT     H266315   3.373   4.241   9.791
22025WAT      O66316   3.985   1.520   3.354
22025WAT     H166317   3.952   1.599   3.303
22025WAT     H266318   3.912   1.484   3.412
22026WAT      O66319   3.287   8.887   5.250
22026WAT     H166320   3.304   8.851   5.342
22026WAT     H266321   3.217   8.959   5.255
22027WAT      O66322   3.176   8.467   0.861
22027WAT     H166323   3.201   8.472   0.764
22027WAT     H266324   3.194   8.375   0.896
22028WAT      O66325   0.497   9.180   1.550
22028WAT     H166326   0.526   9.155   1.458
22028WAT     H266327   0.431   9.112   1.584
22029WAT      O66328   2.754   6.098   3.375
22029WAT     H166329   2.681   6.116   3.309
22029WAT     H266330   2.827   6.046   3.330
22030WAT      O66331   9.684   6.409   5.188
22030WAT     H166332   9.659   6.313   5.177
22030WAT     H266333   9.622   6.453   5.253
22031WAT      O66334   0.738   7.320   7.002
22031WAT     H166335   0.730   7.395   7.067
22031WAT     H266336   0.663   7.256   7.015
22032WAT      O66337   0.189   1.210   3.141
22032WAT     H166338   0.274   1.236   3.187
22032WAT     H266339   0.177   1.267   3.060
22033WAT      O66340   6.409   6.512   8.387
22033WAT     H166341   6.339   6.500   8.317
22033WAT     H266342   6.455   6.425   8.403
22034WAT      O66343   3.737   8.970   4.068
22034WAT     H166344   3.668   8.935   4.005
22034WAT     H266345   3.691   9.009   4.149
22035WAT      O66346   2.905   2.569   6.403
22035WAT     H166347   2.815   2.526   6.410
22035WAT     H266348   2.903   2.639   6.331
22036WAT      O66349   7.840   3.758   1.664
22036WAT     H166350   7.784   3.682   1.698
22036WAT     H266351   7.784   3.820   1.610
22037WAT      O66352   3.350   7.686   1.704
22037WAT     H166353   3.253   7.678   1.724
22037WAT     H266354   3.365   7.760   1.638
22038WAT      O66355   1.529   8.812   2.834
22038WAT     H166356   1.488   8.901   2.813
22038WAT     H266357   1.587   8.820   2.915
22039WAT      O66358   1.714   8.834   3.030
22039WAT     H166359   1.739   8.820   3.125
22039WAT     H266360   1.764   8.912   2.993
22040WAT      O66361   0.137   5.585   2.547
22040WAT     H166362   0.087   5.670   2.530
22040WAT     H266363   0.150   5.535   2.462
22041WAT      O66364   0.691   4.093   1.676
22041WAT     H166365   0.645   4.073   1.763
22041WAT     H266366   0.643   4.166   1.628
22042WAT      O66367   3.811   2.067   9.118
22042WAT     H166368   3.854   1.983   9.083
22042WAT     H266369   3.718   2.046   9.148
22043WAT      O66370   1.500   9.421   1.742
22043WAT     H166371   1.412   9.434   1.787
22043WAT     H266372   1.510   9.325   1.716
22044WAT      O66373   5.061   1.095   6.551
22044WAT     H166374   5.005   1.014   6.569
22044WAT     H266375   5.007   1.162   6.501
22045WAT      O66376   0.642   4.117   4.179
22045WAT     H166377   0.570   4.098   4.112
22045WAT     H266378   0.671   4.031   4.222
22046WAT      O66379   5.694   0.786   8.612
22046WAT     H166380   5.751   0.779   8.530
22046WAT     H266381   5.749   0.818   8.689
22047WAT      O66382   2.753   0.054   6.841
22047WAT     H166383   2.733  -0.031   6.791
22047WAT     H266384   2.799   0.118   6.779
22048WAT      O66385   0.406   9.233   0.881
22048WAT     H166386   0.472   9.164   0.909
22048WAT     H266387   0.378   9.287   0.961
22049WAT      O66388   4.851   0.048   9.846
22049WAT     H166389   4.822   0.078   9.937
22049WAT     H266390   4.775   0.005   9.799
22050WAT      O66391   5.087   7.705   8.476
22050WAT     H166392   5.149   7.629   8.458
22050WAT     H266393   5.053   7.740   8.388
22051WAT      O66394   3.807   6.382   6.906
22051WAT     H166395   3.845   6.299   6.947
22051WAT     H266396   3.853   6.462   6.945
22052WAT      O66397   2.696   5.259   4.832
22052WAT     H166398   2.724   5.250   4.927
22052WAT     H266399   2.775   5.283   4.776
22053WAT      O66400   2.476   4.435   7.308
22053WAT     H166401   2.567   4.459   7.273
22053WAT     H266402   2.484   4.357   7.370
22054WAT      O66403   8.598   3.698   6.409
22054WAT     H166404   8.554   3.787   6.416
22054WAT     H266405   8.676   3.693   6.471
22055WAT      O66406   1.209   6.927   3.017
22055WAT     H166407   1.128   6.872   3.000
22055WAT     H266408   1.181   7.020   3.044
22056WAT      O66409   7.184   2.055   2.286
22056WAT     H166410   7.207   2.138   2.236
22056WAT     H266411   7.265   1.997   2.294
22057WAT      O66412   8.436   6.505   1.018
22057WAT     H166413   8.388   6.547   0.941
22057WAT     H266414   8.509   6.446   0.984
22058WAT      O66415   9.201   0.431   8.594
22058WAT     H166416   9.185   0.401   8.500
22058WAT     H266417   9.273   0.500   8.595
22059WAT      O66418   2.604   2.353   6.242
22059WAT     H166419   2.579   2.415   6.169
22059WAT     H266420   2.528   2.292   6.262
22060WAT      O66421   7.585   7.136   7.501
22060WAT     H166422   7.578   7.235   7.510
22060WAT     H266423   7.624   7.098   7.586
22061WAT      O66424   8.777   9.276   9.175
22061WAT     H166425   8.829   9.361   9.178
22061WAT     H266426   8.746   9.252   9.266
22062WAT      O66427   9.877   4.986   0.999
22062WAT     H166428   9.930   4.909   0.963
22062WAT     H266429   9.780   4.970   0.984
22063WAT      O66430   9.304   4.406   7.205
22063WAT     H166431   9.218   4.453   7.227
22063WAT     H266432   9.375   4.435   7.269
22064WAT      O66433   8.350   8.886   5.491
22064WAT     H166434   8.289   8.808   5.481
22064WAT     H266435   8.335   8.929   5.580
22065WAT      O66436   6.158   4.715   5.775
22065WAT     H166437   6.245   4.714   5.825
22065WAT     H266438   6.093   4.774   5.824
22066WAT      O66439   5.453   3.363   6.404
22066WAT     H166440   5.472   3.324   6.314
22066WAT     H266441   5.535   3.411   6.437
22067WAT      O66442   9.487   4.892   4.001
22067WAT     H166443   9.408   4.929   3.953
22067WAT     H266444   9.482   4.917   4.098
22068WAT      O66445   7.821   2.747   7.701
22068WAT     H166446   7.899   2.695   7.665
22068WAT     H266447   7.768   2.688   7.762
22069WAT      O66448   2.305   1.805   3.304
22069WAT     H166449   2.253   1.774   3.383
22069WAT     H266450   2.244   1.815   3.226
22070WAT      O66451   5.638   0.510   9.277
22070WAT     H166452   5.611   0.603   9.301
22070WAT     H266453   5.605   0.447   9.347
22071WAT      O66454   2.553   4.688   0.641
22071WAT     H166455   2.602   4.767   0.678
22071WAT     H266456   2.614   4.639   0.578
22072WAT      O66457   9.761   8.828   0.674
22072WAT     H166458   9.797   8.876   0.595
22072WAT     H266459   9.724   8.739   0.645
22073WAT      O66460   7.229   6.655   6.270
22073WAT     H166461   7.207   6.602   6.188
22073WAT     H266462   7.145   6.673   6.321
22074WAT      O66463   2.650   1.832   3.566
22074WAT     H166464   2.589   1.837   3.646
22074WAT     H266465   2.718   1.761   3.581
22075WAT      O66466   1.013   6.030   1.445
22075WAT     H166467   0.998   5.940   1.403
22075WAT     H266468   1.060   6.018   1.532
22076WAT      O66469   6.715   3.230   4.757
22076WAT     H166470   6.755   3.299   4.818
22076WAT     H266471   6.770   3.222   4.675
22077WAT      O66472   7.995   2.323   9.437
22077WAT     H166473   8.094   2.339   9.443
22077WAT     H266474   7.968   2.314   9.342
22078WAT      O66475   9.456   2.269   2.704
22078WAT     H166476   9.448   2.171   2.725
22078WAT     H266477   9.485   2.318   2.786
22079WAT      O66478   3.685   6.033   0.413
22079WAT     H166479   3.750   6.020   0.338
22079WAT     H266480   3.595   5.997   0.385
22080WAT      O66481   4.164   8.321   7.179
22080WAT     H166482   4.241   8.383   7.196
22080WAT     H266483   4.094   8.335   7.248
22081WAT      O66484   1.827   7.319   7.720
22081WAT     H166485   1.784   7.403   7.752
22081WAT     H266486   1.791   7.296   7.629
22082WAT      O66487   8.737   9.476   1.124
22082WAT     H166488   8.729   9.382   1.092
22082WAT     H266489   8.726   9.479   1.223
22083WAT      O66490   1.491   0.263   5.187
22083WAT     H166491   1.511   0.243   5.283
22083WAT     H266492   1.508   0.181   5.132
22084WAT      O66493   6.391   3.890   7.168
22084WAT     H166494   6.453   3.967   7.181
22084WAT     H266495   6.407   3.821   7.239
22085WAT      O66496   6.765   3.802   7.615
22085WAT     H166497   6.849   3.753   7.594
22085WAT     H266498   6.693   3.737   7.639
22086WAT      O66499   8.023   0.378   4.597
22086WAT     H166500   8.102   0.366   4.657
22086WAT     H266501   8.050   0.358   4.503
22087WAT      O66502   4.254   8.452   2.014
22087WAT     H166503   4.221   8.539   2.051
22087WAT     H266504   4.259   8.384   2.087
22088WAT      O66505   1.527   3.671   7.991
22088WAT     H166506   1.544   3.585   8.040
22088WAT     H266507   1.449   3.718   8.033
22089WAT      O66508   8.412   2.407   3.297
22089WAT     H166509   8.378   2.488   3.250
22089WAT     H266510   8.433   2.336   3.230
22090WAT      O66511   4.204   6.008   7.120
22090WAT     H166512   4.236   5.968   7.206
22090WAT     H266513   4.221   6.106   7.121
22091WAT      O66514   8.500   2.203   9.496
22091WAT     H166515   8.507   2.174   9.401
22091WAT     H266516   8.506   2.122   9.555
22092WAT      O66517   4.982   0.711   6.933
22092WAT     H166518   4.992   0.745   7.026
22092WAT     H266519   5.048   0.757   6.873
22093WAT      O66520   6.688   8.643   0.224
22093WAT     H166521   6.733   8.643   0.135
22093WAT     H266522   6.601   8.594   0.218
22094WAT      O66523   2.880   8.134   9.099
22094WAT     H166524   2.942   8.191   9.044
22094WAT     H266525   2.859   8.050   9.049
22095WAT      O66526   6.237   1.643   5.166
22095WAT     H166527   6.275   1.728   5.203
22095WAT     H266528   6.312   1.588   5.129
22096WAT      O66529   5.063   2.052   3.248
22096WAT     H166530   5.022   2.014   3.165
22096WAT     H266531   5.144   2.000   3.272
22097WAT      O66532   4.739   9.308   6.592
22097WAT     H166533   4.804   9.350   6.656
22097WAT     H266534   4.750   9.347   6.501
22098WAT      O66535   4.737   7.645   7.916
22098WAT     H166536   4.832   7.675   7.919
22098WAT     H266537   4.719   7.581   7.990
22099WAT      O66538   8.176   0.891   8.269
22099WAT     H166539   8.077   0.894   8.255
22099WAT     H266540   8.219   0.839   8.195
22100WAT      O66541   9.033   7.882   4.374
22100WAT     H166542   9.078   7.793   4.370
22100WAT     H266543   8.959   7.879   4.442
22101WAT      O66544   1.970   3.707   2.155
22101WAT     H166545   2.053   3.695   2.100
22101WAT     H266546   1.948   3.621   2.201
22102WAT      O66547   8.920   5.615   1.986
22102WAT     H166548   8.986   5.543   2.006
22102WAT     H266549   8.897   5.663   2.071
22103WAT      O66550   8.378   4.932   5.323
22103WAT     H166551   8.293   4.880   5.315
22103WAT     H266552   8.367   5.021   5.279
22104WAT      O66553   5.821   0.419   6.931
22104WAT     H166554   5.773   0.483   6.871
22104WAT     H266555   5.910   0.396   6.891
22105WAT      O66556   8.711   3.434   7.960
22105WAT     H166557   8.759   3.363   7.909
22105WAT     H266558   8.636   3.392   8.012
22106WAT      O66559   9.079   2.981   1.840
22106WAT     H166560   9.155   2.966   1.903
22106WAT     H266561   9.063   2.898   1.786
22107WAT      O66562   3.219   0.416   0.877
22107WAT     H166563   3.187   0.499   0.830
22107WAT     H266564   3.154   0.342   0.860
22108WAT      O66565   4.622   1.643   0.112
22108WAT     H166566   4.535   1.616   0.153
22108WAT     H266567   4.657   1.724   0.159
22109WAT      O66568   2.881   5.353   4.436
22109WAT     H166569   2.842   5.335   4.346
22109WAT     H266570   2.981   5.342   4.432
22110WAT      O66571   8.354   3.609   6.729
22110WAT     H166572   8.323   3.553   6.652
22110WAT     H266573   8.328   3.704   6.714
22111WAT      O66574   5.511   1.874   8.729
22111WAT     H166575   5.495   1.934   8.650
22111WAT     H266576   5.457   1.790   8.717
22112WAT      O66577   6.648   1.673   0.819
22112WAT     H166578   6.645   1.649   0.722
22112WAT     H266579   6.736   1.714   0.840
22113WAT      O66580   2.694   7.479   0.995
22113WAT     H166581   2.717   7.569   0.958
22113WAT     H266582   2.680   7.414   0.920
22114WAT      O66583   7.302   3.903   7.993
22114WAT     H166584   7.386   3.877   7.947
22114WAT     H266585   7.229   3.839   7.970
22115WAT      O66586   7.018   7.864   2.820
22115WAT     H166587   7.028   7.807   2.901
22115WAT     H266588   7.011   7.806   2.739
22116WAT      O66589   5.446   2.636   0.985
22116WAT     H166590   5.426   2.679   0.896
22116WAT     H266591   5.386   2.673   1.055
22117WAT      O66592   4.956   5.485   6.594
22117WAT     H166593   4.883   5.459   6.531
22117WAT     H266594   4.932   5.570   6.640
22118WAT      O66595   8.374   4.082   6.643
22118WAT     H166596   8.284   4.062   6.604
22118WAT     H266597   8.363   4.144   6.721
22119WAT      O66598   6.476   3.229   3.882
22119WAT     H166599   6.477   3.144   3.935
22119WAT     H266600   6.409   3.291   3.922
22120WAT      O66601   0.380   7.308   6.436
22120WAT     H166602   0.405   7.323   6.340
22120WAT     H266603   0.318   7.230   6.442
22121WAT      O66604   1.454   4.060   8.027
22121WAT     H166605   1.423   3.977   8.073
22121WAT     H266606   1.390   4.083   7.954
22122WAT      O66607   1.952   7.249   4.707
22122WAT     H166608   1.985   7.261   4.614
22122WAT     H266609   1.915   7.157   4.719
22123WAT      O66610   0.801   9.193   5.197
22123WAT     H166611   0.793   9.229   5.104
22123WAT     H266612   0.713   9.155   5.226
22124WAT      O66613   4.109   5.159   3.944
22124WAT     H166614   4.126   5.063   3.963
22124WAT     H266615   4.011   5.178   3.952
22125WAT      O66616   2.020   1.912   4.520
22125WAT     H166617   2.096   1.939   4.580
22125WAT     H266618   2.053   1.845   4.453
22126WAT      O66619   2.135   2.316   8.988
22126WAT     H166620   2.124   2.312   8.888
22126WAT     H266621   2.047   2.298   9.032
22127WAT      O66622   8.202   4.953   4.599
22127WAT     H166623   8.108   4.926   4.618
22127WAT     H266624   8.204   5.043   4.557
22128WAT      O66625   8.591   6.222   6.931
22128WAT     H166626   8.585   6.165   7.013
22128WAT     H266627   8.522   6.192   6.865
22129WAT      O66628   5.663   8.910   9.052
22129WAT     H166629   5.674   8.974   9.128
22129WAT     H266630   5.569   8.877   9.049
22130WAT      O66631   3.826   1.840   2.593
22130WAT     H166632   3.770   1.766   2.629
22130WAT     H266633   3.895   1.865   2.659
22131WAT      O66634   7.080   8.274   8.623
22131WAT     H166635   7.025   8.320   8.693
22131WAT     H266636   7.024   8.259   8.541
22132WAT      O66637   3.601   5.132   6.994
22132WAT     H166638   3.669   5.151   6.924
22132WAT     H266639   3.588   5.212   7.052
22133WAT      O66640   4.029   2.367   5.146
22133WAT     H166641   3.930   2.355   5.145
22133WAT     H266642   4.073   2.278   5.160
22134WAT      O66643   7.913   5.244   0.497
22134WAT     H166644   7.970   5.162   0.499
22134WAT     H266645   7.895   5.270   0.402
22135WAT      O66646   1.876   2.397   0.697
22135WAT     H166647   1.795   2.359   0.652
22135WAT     H266648   1.857   2.410   0.794
22136WAT      O66649   0.532   7.141   7.287
22136WAT     H166650   0.516   7.077   7.362
22136WAT     H266651   0.614   7.195   7.306
22137WAT      O66652   3.076   0.280   0.630
22137WAT     H166653   3.027   0.349   0.683
22137WAT     H266654   3.025   0.194   0.631
22138WAT      O66655   6.807   1.171   1.817
22138WAT     H166656   6.769   1.123   1.896
22138WAT     H266657   6.793   1.269   1.827
22139WAT      O66658   1.587   1.558   7.943
22139WAT     H166659   1.511   1.517   7.893
22139WAT     H266660   1.642   1.486   7.985
22140WAT      O66661   1.817   8.340   8.446
22140WAT     H166662   1.841   8.243   8.437
22140WAT     H266663   1.885   8.395   8.397
22141WAT      O66664   1.105   3.699   9.700
22141WAT     H166665   1.042   3.731   9.630
22141WAT     H266666   1.058   3.698   9.789
22142WAT      O66667   2.465   1.799   0.447
22142WAT     H166668   2.512   1.755   0.371
22142WAT     H266669   2.528   1.813   0.523
22143WAT      O66670   4.997   5.901   2.169
22143WAT     H166671   5.005   5.890   2.268
22143WAT     H266672   5.084   5.876   2.126
22144WAT      O66673   2.187   4.365   2.383
22144WAT     H166674   2.205   4.335   2.477
22144WAT     H266675   2.188   4.286   2.322
22145WAT      O66676   7.363   8.704   3.854
22145WAT     H166677   7.327   8.667   3.940
22145WAT     H266678   7.462   8.716   3.861
22146WAT      O66679   2.369   0.876   3.069
22146WAT     H166680   2.367   0.841   2.975
22146WAT     H266681   2.277   0.906   3.095
22147WAT      O66682   2.903   6.461   3.518
22147WAT     H166683   2.881   6.558   3.508
22147WAT     H266684   2.882   6.413   3.433
22148WAT      O66685   2.810   0.827   2.150
22148WAT     H166686   2.813   0.863   2.056
22148WAT     H266687   2.827   0.901   2.215
22149WAT      O66688   8.909   3.482   3.250
22149WAT     H166689   8.879   3.560   3.304
22149WAT     H266690   8.903   3.504   3.153
22150WAT      O66691   7.426   7.509   4.208
22150WAT     H166692   7.495   7.576   4.234
22150WAT     H266693   7.454   7.418   4.239
22151WAT      O66694   6.886   2.291   6.960
22151WAT     H166695   6.963   2.351   6.939
22151WAT     H266696   6.801   2.344   6.953
22152WAT      O66697   9.105   3.231   8.967
22152WAT     H166698   9.152   3.258   8.883
22152WAT     H266699   9.035   3.163   8.945
22153WAT      O66700   1.431   2.851   1.175
22153WAT     H166701   1.414   2.912   1.097
22153WAT     H266702   1.524   2.865   1.209
22154WAT      O66703   5.862   0.497   8.618
22154WAT     H166704   5.818   0.407   8.617
22154WAT     H266705   5.797   0.567   8.588
22155WAT      O66706   5.010   4.518   7.076
22155WAT     H166707   4.992   4.435   7.128
22155WAT     H266708   4.937   4.533   7.010
22156WAT      O66709   3.615   0.032   2.614
22156WAT     H166710   3.674   0.092   2.560
22156WAT     H266711   3.617  -0.060   2.575
22157WAT      O66712   4.885   0.464   4.241
22157WAT     H166713   4.867   0.539   4.177
22157WAT     H266714   4.798   0.429   4.276
22158WAT      O66715   4.730   0.176   7.439
22158WAT     H166716   4.639   0.144   7.412
22158WAT     H266717   4.744   0.160   7.536
22159WAT      O66718   5.690   9.013   3.066
22159WAT     H166719   5.592   9.035   3.066
22159WAT     H266720   5.708   8.939   3.002
22160WAT      O66721   0.403   5.832   8.628
22160WAT     H166722   0.461   5.831   8.547
22160WAT     H266723   0.313   5.869   8.605
22161WAT      O66724   1.156   4.754   5.130
22161WAT     H166725   1.064   4.783   5.159
22161WAT     H266726   1.210   4.834   5.105
22162WAT      O66727   8.455   4.191   7.761
22162WAT     H166728   8.519   4.185   7.837
22162WAT     H266729   8.432   4.287   7.744
22163WAT      O66730   6.318   3.007   0.075
22163WAT     H166731   6.305   2.915   0.110
22163WAT     H266732   6.402   3.045   0.112
22164WAT      O66733   8.593   1.509   3.830
22164WAT     H166734   8.533   1.587   3.816
22164WAT     H266735   8.673   1.516   3.770
22165WAT      O66736   3.383   8.451   5.541
22165WAT     H166737   3.478   8.437   5.513
22165WAT     H266738   3.370   8.421   5.635
22166WAT      O66739   4.671   6.531   0.537
22166WAT     H166740   4.725   6.560   0.616
22166WAT     H266741   4.732   6.507   0.462
22167WAT      O66742   2.675   7.977   9.548
22167WAT     H166743   2.589   8.027   9.536
22167WAT     H266744   2.660   7.880   9.530
22168WAT      O66745   6.518   8.893   8.474
22168WAT     H166746   6.456   8.879   8.552
22168WAT     H266747   6.476   8.956   8.409
22169WAT      O66748   2.436   5.432   5.723
22169WAT     H166749   2.367   5.360   5.723
22169WAT     H266750   2.506   5.410   5.791
22170WAT      O66751   9.092   2.490   7.419
22170WAT     H166752   9.165   2.505   7.352
22170WAT     H266753   9.005   2.478   7.372
22171WAT      O66754   2.154   4.432   9.473
22171WAT     H166755   2.210   4.472   9.546
22171WAT     H266756   2.210   4.420   9.391
22172WAT      O66757   3.138   7.270   2.455
22172WAT     H166758   3.108   7.270   2.550
22172WAT     H266759   3.148   7.176   2.423
22173WAT      O66760   1.536   6.137   6.523
22173WAT     H166761   1.627   6.117   6.559
22173WAT     H266762   1.541   6.150   6.425
22174WAT      O66763   5.460   7.099   9.408
22174WAT     H166764   5.476   7.193   9.438
22174WAT     H266765   5.547   7.049   9.409
22175WAT      O66766   3.080   7.551   5.195
22175WAT     H166767   3.054   7.640   5.232
22175WAT     H266768   3.016   7.481   5.227
22176WAT      O66769   3.921   4.919   7.559
22176WAT     H166770   3.978   4.836   7.563
22176WAT     H266771   3.917   4.952   7.465
22177WAT      O66772   4.894   5.120   1.513
22177WAT     H166773   4.882   5.188   1.440
22177WAT     H266774   4.900   5.029   1.474
22178WAT      O66775   2.493   7.375   8.876
22178WAT     H166776   2.498   7.313   8.955
22178WAT     H266777   2.399   7.383   8.846
22179WAT      O66778   8.293   9.558   7.622
22179WAT     H166779   8.288   9.620   7.701
22179WAT     H266780   8.289   9.463   7.654
22180WAT      O66781   1.472   7.817   8.367
22180WAT     H166782   1.423   7.862   8.442
22180WAT     H266783   1.453   7.719   8.370
22181WAT      O66784   7.825   5.445   5.502
22181WAT     H166785   7.870   5.532   5.526
22181WAT     H266786   7.887   5.369   5.521
22182WAT      O66787   2.413   7.130   9.592
22182WAT     H166788   2.488   7.064   9.585
22182WAT     H266789   2.447   7.216   9.630
22183WAT      O66790   3.620   8.261   2.956
22183WAT     H166791   3.586   8.189   2.897
22183WAT     H266792   3.691   8.313   2.907
22184WAT      O66793   3.292   8.580   3.818
22184WAT     H166794   3.196   8.566   3.841
22184WAT     H266795   3.350   8.550   3.893
22185WAT      O66796   5.411   1.793   7.824
22185WAT     H166797   5.352   1.782   7.904
22185WAT     H266798   5.376   1.869   7.768
22186WAT      O66799   6.957   7.793   1.439
22186WAT     H166800   6.954   7.775   1.341
22186WAT     H266801   6.882   7.743   1.484
22187WAT      O66802   9.802   7.765   0.094
22187WAT     H166803   9.803   7.702   0.171
22187WAT     H266804   9.895   7.797   0.075
22188WAT      O66805   2.784   0.248   6.419
22188WAT     H166806   2.792   0.288   6.510
22188WAT     H266807   2.875   0.234   6.380
22189WAT      O66808   5.234   1.875   8.893
22189WAT     H166809   5.293   1.859   8.972
22189WAT     H266810   5.232   1.973   8.872
22190WAT      O66811   9.816   6.459   1.270
22190WAT     H166812   9.794   6.371   1.227
22190WAT     H266813   9.732   6.511   1.284
22191WAT      O66814   0.318   8.851   5.007
22191WAT     H166815   0.364   8.835   5.095
22191WAT     H266816   0.219   8.858   5.023
22192WAT      O66817   3.053   8.561   3.936
22192WAT     H166818   3.055   8.475   3.987
22192WAT     H266819   3.014   8.633   3.993
22193WAT      O66820   5.598   2.450   1.478
22193WAT     H166821   5.650   2.381   1.528
22193WAT     H266822   5.540   2.501   1.542
22194WAT      O66823   8.491   0.914   2.927
22194WAT     H166824   8.451   0.846   2.989
22194WAT     H266825   8.442   1.000   2.936
22195WAT      O66826   9.103   4.165   6.622
22195WAT     H166827   9.005   4.183   6.611
22195WAT     H266828   9.117   4.067   6.638
22196WAT      O66829   0.848   2.774   4.602
22196WAT     H166830   0.889   2.865   4.594
22196WAT     H266831   0.761   2.781   4.650
22197WAT      O66832   7.562   9.102   4.842
22197WAT     H166833   7.568   9.164   4.921
22197WAT     H266834   7.589   9.151   4.759
22198WAT      O66835   7.286   2.273   5.401
22198WAT     H166836   7.378   2.313   5.395
22198WAT     H266837   7.219   2.345   5.420
22199WAT      O66838   6.194   0.527   3.421
22199WAT     H166839   6.217   0.448   3.478
22199WAT     H266840   6.182   0.498   3.326
22200WAT      O66841   5.577   3.055   3.547
22200WAT     H166842   5.674   3.034   3.563
22200WAT     H266843   5.542   2.996   3.475
22201WAT      O66844   3.782   0.567   5.492
22201WAT     H166845   3.748   0.473   5.500
22201WAT     H266846   3.750   0.621   5.569
22202WAT      O66847   0.128   7.825   7.384
22202WAT     H166848   0.088   7.907   7.424
22202WAT     H266849   0.070   7.746   7.403
22203WAT      O66850   0.876   1.804   6.326
22203WAT     H166851   0.818   1.723   6.317
22203WAT     H266852   0.857   1.866   6.250
22204WAT      O66853   2.128   3.944   7.626
22204WAT     H166854   2.209   3.921   7.572
22204WAT     H266855   2.152   3.945   7.723
22205WAT      O66856   6.450   9.684   0.334
22205WAT     H166857   6.451   9.587   0.307
22205WAT     H266858   6.407   9.693   0.424
22206WAT      O66859   0.194   9.486   9.126
22206WAT     H166860   0.144   9.400   9.123
22206WAT     H266861   0.290   9.468   9.146
22207WAT      O66862   5.845   2.151   1.046
22207WAT     H166863   5.923   2.178   0.988
22207WAT     H266864   5.772   2.218   1.036
22208WAT      O66865   0.955   8.261   9.515
22208WAT     H166866   0.875   8.258   9.575
22208WAT     H266867   1.024   8.197   9.549
22209WAT      O66868   8.244   1.681   6.404
22209WAT     H166869   8.266   1.762   6.458
22209WAT     H266870   8.328   1.628   6.389
22210WAT      O66871   3.421   5.957   8.154
22210WAT     H166872   3.443   5.941   8.058
22210WAT     H266873   3.331   5.919   8.174
22211WAT      O66874   1.424   7.429   1.158
22211WAT     H166875   1.471   7.434   1.246
22211WAT     H266876   1.461   7.499   1.096
22212WAT      O66877   5.655   6.392   3.005
22212WAT     H166878   5.647   6.299   3.040
22212WAT     H266879   5.565   6.423   2.973
22213WAT      O66880   6.639   8.707   3.855
22213WAT     H166881   6.733   8.690   3.826
22213WAT     H266882   6.612   8.638   3.923
22214WAT      O66883   3.646   1.144   5.233
22214WAT     H166884   3.632   1.188   5.322
22214WAT     H266885   3.557   1.131   5.189
22215WAT      O66886   4.572   5.586   3.765
22215WAT     H166887   4.628   5.588   3.847
22215WAT     H266888   4.612   5.523   3.698
22216WAT      O66889   9.369   6.924   5.747
22216WAT     H166890   9.401   6.845   5.798
22216WAT     H266891   9.436   6.998   5.755
22217WAT      O66892   3.026   2.702   3.281
22217WAT     H166893   3.126   2.707   3.284
22217WAT     H266894   2.996   2.610   3.307
22218WAT      O66895   9.862   2.020   0.132
22218WAT     H166896   9.801   1.944   0.153
22218WAT     H266897   9.930   1.991   0.065
22219WAT      O66898   6.942   7.119   2.926
22219WAT     H166899   7.013   7.051   2.946
22219WAT     H266900   6.861   7.099   2.980
22220WAT      O66901   4.610   6.768   9.668
22220WAT     H166902   4.555   6.849   9.688
22220WAT     H266903   4.702   6.780   9.707
22221WAT      O66904   3.093   8.569   8.591
22221WAT     H166905   3.151   8.522   8.525
22221WAT     H266906   3.114   8.667   8.590
22222WAT      O66907   5.520   3.900   8.637
22222WAT     H166908   5.465   3.944   8.567
22222WAT     H266909   5.505   3.945   8.725
22223WAT      O66910   9.039   1.859   2.712
22223WAT     H166911   9.097   1.780   2.692
22223WAT     H266912   9.096   1.937   2.739
22224WAT      O66913   4.219   0.894   6.115
22224WAT     H166914   4.297   0.848   6.157
22224WAT     H266915   4.239   0.915   6.020
22225WAT      O66916   7.012   1.054   0.914
22225WAT     H166917   7.074   1.121   0.874
22225WAT     H266918   6.958   1.011   0.841
22226WAT      O66919   2.769   1.581   3.278
22226WAT     H166920   2.691   1.643   3.277
22226WAT     H266921   2.738   1.488   3.298
22227WAT      O66922   2.407   1.761   1.472
22227WAT     H166923   2.409   1.861   1.469
22227WAT     H266924   2.473   1.729   1.539
22228WAT      O66925   6.960   3.305   3.718
22228WAT     H166926   7.003   3.252   3.791
22228WAT     H266927   6.967   3.255   3.632
22229WAT      O66928   8.375   9.033   0.138
22229WAT     H166929   8.325   8.982   0.207
22229WAT     H266930   8.420   9.112   0.181
22230WAT      O66931   1.949   4.822   2.631
22230WAT     H166932   1.889   4.846   2.708
22230WAT     H266933   1.956   4.722   2.624
22231WAT      O66934   9.796   9.200   5.584
22231WAT     H166935   9.723   9.178   5.648
22231WAT     H266936   9.762   9.190   5.490
22232WAT      O66937   7.735   8.616   9.869
22232WAT     H166938   7.709   8.665   9.952
22232WAT     H266939   7.780   8.680   9.806
22233WAT      O66940   6.638   6.983   4.235
22233WAT     H166941   6.545   7.003   4.267
22233WAT     H266942   6.698   6.971   4.314
22234WAT      O66943   8.883   1.276   1.413
22234WAT     H166944   8.825   1.239   1.486
22234WAT     H266945   8.852   1.241   1.325
22235WAT      O66946   4.585   9.779   1.257
22235WAT     H166947   4.559   9.846   1.326
22235WAT     H266948   4.578   9.687   1.296
22236WAT      O66949   2.190   6.592   8.897
22236WAT     H166950   2.245   6.622   8.819
22236WAT     H266951   2.185   6.665   8.964
22237WAT      O66952   0.496   8.795   2.247
22237WAT     H166953   0.545   8.861   2.305
22237WAT     H266954   0.519   8.811   2.151
22238WAT      O66955   6.864   6.624   3.154
22238WAT     H166956   6.897   6.642   3.247
22238WAT     H266957   6.904   6.539   3.121
22239WAT      O66958   8.884   0.204   4.150
22239WAT     H166959   8.938   0.251   4.220
22239WAT     H266960   8.808   0.156   4.193
22240WAT      O66961   5.827   5.606   1.359
22240WAT     H166962   5.908   5.663   1.377
22240WAT     H266963   5.777   5.591   1.445
22241WAT      O66964   3.672   4.408   7.593
22241WAT     H166965   3.630   4.320   7.568
22241WAT     H266966   3.767   4.409   7.563
22242WAT      O66967   0.085   3.924   4.715
22242WAT     H166968   0.181   3.946   4.731
22242WAT     H266969   0.038   3.913   4.803
22243WAT      O66970   7.706   0.660   8.721
22243WAT     H166971   7.779   0.706   8.772
22243WAT     H266972   7.744   0.583   8.670
22244WAT      O66973   8.698   5.084   2.195
22244WAT     H166974   8.741   5.040   2.274
22244WAT     H266975   8.755   5.159   2.163
22245WAT      O66976   8.011   2.717   0.875
22245WAT     H166977   8.077   2.791   0.866
22245WAT     H266978   8.058   2.629   0.871
22246WAT      O66979   9.825   4.382   4.806
22246WAT     H166980   9.903   4.320   4.815
22246WAT     H266981   9.796   4.412   4.897
22247WAT      O66982   2.204   1.433   3.818
22247WAT     H166983   2.262   1.388   3.750
22247WAT     H266984   2.120   1.380   3.831
22248WAT      O66985   7.740   0.807   8.000
22248WAT     H166986   7.732   0.732   7.935
22248WAT     H266987   7.675   0.795   8.075
22249WAT      O66988   6.444   7.382   7.018
22249WAT     H166989   6.446   7.402   7.116
22249WAT     H266990   6.537   7.391   6.980
22250WAT      O66991   9.531   1.188   3.361
22250WAT     H166992   9.432   1.200   3.355
22250WAT     H266993   9.552   1.098   3.398
22251WAT      O66994   7.519   3.631   6.533
22251WAT     H166995   7.500   3.543   6.577
22251WAT     H266996   7.442   3.657   6.476
22252WAT      O66997   3.966   4.231   3.951
22252WAT     H166998   4.066   4.242   3.947
22252WAT     H266999   3.940   4.196   4.041
22253WAT      O67000   7.947   3.625   2.403
22253WAT     H167001   8.036   3.608   2.444
22253WAT     H267002   7.883   3.553   2.431
22254WAT      O67003   8.287   0.140   8.134
22254WAT     H167004   8.304   0.214   8.199
22254WAT     H267005   8.363   0.133   8.070
22255WAT      O67006   8.170   3.043   8.076
22255WAT     H167007   8.107   3.073   8.148
22255WAT     H267008   8.119   2.991   8.007
22256WAT      O67009   8.838   9.262   5.377
22256WAT     H167010   8.844   9.332   5.448
22256WAT     H267011   8.929   9.244   5.339
22257WAT      O67012   0.351   9.096   2.348
22257WAT     H167013   0.323   9.176   2.402
22257WAT     H267014   0.392   9.127   2.262
22258WAT      O67015   5.234   0.304   1.956
22258WAT     H167016   5.250   0.357   2.039
22258WAT     H267017   5.260   0.209   1.972
22259WAT      O67018   0.828   3.182   3.795
22259WAT     H167019   0.889   3.103   3.808
22259WAT     H267020   0.783   3.204   3.882
22260WAT      O67021   9.108   0.302   8.984
22260WAT     H167022   9.079   0.234   9.051
22260WAT     H267023   9.091   0.393   9.019
22261WAT      O67024   3.311   1.089   0.332
22261WAT     H167025   3.294   1.054   0.424
22261WAT     H267026   3.226   1.085   0.279
22262WAT      O67027   7.900   7.198   5.951
22262WAT     H167028   7.828   7.213   6.019
22262WAT     H267029   7.866   7.138   5.879
22263WAT      O67030   5.657   9.523   6.770
22263WAT     H167031   5.611   9.584   6.835
22263WAT     H267032   5.589   9.473   6.717
22264WAT      O67033   0.585   5.914   4.319
22264WAT     H167034   0.648   5.846   4.356
22264WAT     H267035   0.604   5.928   4.222
22265WAT      O67036   3.824   4.556   1.969
22265WAT     H167037   3.789   4.647   1.993
22265WAT     H267038   3.842   4.503   2.052
22266WAT      O67039   9.633   1.879   3.379
22266WAT     H167040   9.614   1.971   3.414
22266WAT     H267041   9.547   1.829   3.366
22267WAT      O67042   5.676   3.385   0.121
22267WAT     H167043   5.635   3.468   0.084
22267WAT     H267044   5.693   3.320   0.047
22268WAT      O67045   0.901   2.213   5.649
22268WAT     H167046   0.922   2.235   5.744
22268WAT     H267047   0.896   2.298   5.596
22269WAT      O67048   2.132   7.738   0.444
22269WAT     H167049   2.035   7.737   0.471
22269WAT     H267050   2.188   7.706   0.520
22270WAT      O67051   5.851   9.648   0.247
22270WAT     H167052   5.833   9.729   0.302
22270WAT     H267053   5.918   9.671   0.176
22271WAT      O67054   3.237   3.360   7.896
22271WAT     H167055   3.292   3.419   7.837
22271WAT     H267056   3.155   3.409   7.925
22272WAT      O67057   2.490   5.678   8.220
22272WAT     H167058   2.435   5.673   8.136
22272WAT     H267059   2.570   5.618   8.211
22273WAT      O67060   9.844   6.720   3.936
22273WAT     H167061   9.852   6.743   4.033
22273WAT     H267062   9.797   6.794   3.888
22274WAT      O67063   3.636   7.469   0.997
22274WAT     H167064   3.571   7.402   1.035
22274WAT     H267065   3.651   7.449   0.900
22275WAT      O67066   1.075   6.372   7.934
22275WAT     H167067   0.996   6.323   7.897
22275WAT     H267068   1.139   6.394   7.860
22276WAT      O67069   5.230   9.435   5.996
22276WAT     H167070   5.330   9.432   6.005
22276WAT     H267071   5.206   9.451   5.900
22277WAT      O67072   8.909   4.776   7.004
22277WAT     H167073   8.855   4.860   6.995
22277WAT     H267074   8.963   4.763   6.921
22278WAT      O67075   0.753   9.571   9.622
22278WAT     H167076   0.718   9.663   9.634
22278WAT     H267077   0.781   9.533   9.710
22279WAT      O67078   0.883   7.468   2.416
22279WAT     H167079   0.816   7.434   2.350
22279WAT     H267080   0.918   7.556   2.385
22280WAT      O67081   4.385   1.528   6.057
22280WAT     H167082   4.291   1.495   6.061
22280WAT     H267083   4.394   1.593   5.982
22281WAT      O67084   1.987   4.243   1.258
22281WAT     H167085   2.055   4.243   1.332
22281WAT     H267086   2.016   4.307   1.187
22282WAT      O67087   5.132   2.386   0.523
22282WAT     H167088   5.227   2.359   0.507
22282WAT     H267089   5.130   2.482   0.553
22283WAT      O67090   7.208   2.414   7.372
22283WAT     H167091   7.249   2.498   7.336
22283WAT     H267092   7.276   2.341   7.372
22284WAT      O67093   4.368   7.030   5.215
22284WAT     H167094   4.274   7.026   5.248
22284WAT     H267095   4.423   6.962   5.263
22285WAT      O67096   4.730   3.112   8.887
22285WAT     H167097   4.666   3.174   8.841
22285WAT     H267098   4.688   3.021   8.894
22286WAT      O67099   2.823   3.128   7.984
22286WAT     H167100   2.743   3.184   8.004
22286WAT     H267101   2.819   3.043   8.037
22287WAT      O67102   4.609   3.795   9.110
22287WAT     H167103   4.587   3.793   9.208
22287WAT     H267104   4.660   3.878   9.089
22288WAT      O67105   7.923   2.433   8.158
22288WAT     H167106   7.837   2.434   8.108
22288WAT     H267107   7.913   2.379   8.241
22289WAT      O67108   6.371   4.085   8.731
22289WAT     H167109   6.283   4.056   8.695
22289WAT     H267110   6.359   4.169   8.785
22290WAT      O67111   0.582   0.594   3.893
22290WAT     H167112   0.533   0.511   3.917
22290WAT     H267113   0.532   0.674   3.927
22291WAT      O67114   7.137   2.873   9.661
22291WAT     H167115   7.142   2.923   9.748
22291WAT     H267116   7.203   2.797   9.662
22292WAT      O67117   3.593   8.619   5.953
22292WAT     H167118   3.560   8.712   5.970
22292WAT     H267119   3.681   8.607   5.999
22293WAT      O67120   6.399   3.728   6.416
22293WAT     H167121   6.307   3.689   6.415
22293WAT     H267122   6.448   3.700   6.334
22294WAT      O67123   7.070   8.718   1.072
22294WAT     H167124   7.102   8.805   1.108
22294WAT     H267125   7.110   8.701   0.982
22295WAT      O67126   4.432   3.236   4.250
22295WAT     H167127   4.418   3.170   4.324
22295WAT     H267128   4.526   3.227   4.215
22296WAT      O67129   5.980   1.678   1.658
22296WAT     H167130   5.972   1.727   1.571
22296WAT     H267131   5.965   1.741   1.734
22297WAT      O67132   5.613   8.050   9.411
22297WAT     H167133   5.631   8.149   9.416
22297WAT     H267134   5.518   8.032   9.436
22298WAT      O67135   3.720   7.135   9.613
22298WAT     H167136   3.749   7.154   9.706
22298WAT     H267137   3.792   7.084   9.565
22299WAT      O67138   9.470   8.231   0.214
22299WAT     H167139   9.526   8.158   0.254
22299WAT     H267140   9.530   8.304   0.181
22300WAT      O67141   7.596   9.053   4.038
22300WAT     H167142   7.623   9.124   3.972
22300WAT     H267143   7.603   8.963   3.995
22301WAT      O67144   9.670   8.284   4.649
22301WAT     H167145   9.715   8.247   4.730
22301WAT     H267146   9.602   8.352   4.677
22302WAT      O67147   1.998   2.332   4.735
22302WAT     H167148   1.928   2.297   4.797
22302WAT     H267149   1.980   2.298   4.642
22303WAT      O67150   9.009   1.644   5.092
22303WAT     H167151   9.105   1.657   5.067
22303WAT     H267152   8.966   1.732   5.109
22304WAT      O67153   6.558   1.156   4.100
22304WAT     H167154   6.581   1.142   4.003
22304WAT     H267155   6.558   1.254   4.120
22305WAT      O67156   5.044   4.648   7.626
22305WAT     H167157   4.995   4.645   7.539
22305WAT     H267158   5.104   4.728   7.628
22306WAT      O67159   6.647   3.351   2.705
22306WAT     H167160   6.731   3.361   2.757
22306WAT     H267161   6.663   3.375   2.610
22307WAT      O67162   5.408   8.170   6.163
22307WAT     H167163   5.348   8.101   6.123
22307WAT     H267164   5.488   8.183   6.103
22308WAT      O67165   7.260   7.314   0.457
22308WAT     H167166   7.346   7.350   0.419
22308WAT     H267167   7.263   7.215   0.460
22309WAT      O67168   2.238   4.167   4.694
22309WAT     H167169   2.337   4.163   4.711
22309WAT     H267170   2.221   4.152   4.597
22310WAT      O67171   6.126   2.584   9.000
22310WAT     H167172   6.140   2.680   8.977
22310WAT     H267173   6.125   2.529   8.916
22311WAT      O67174   8.570   0.330   9.222
22311WAT     H167175   8.544   0.345   9.317
22311WAT     H267176   8.646   0.265   9.218
22312WAT      O67177   1.478   2.952   1.717
22312WAT     H167178   1.491   2.960   1.816
22312WAT     H267179   1.382   2.928   1.698
22313WAT      O67180   4.932   9.743   4.872
22313WAT     H167181   4.990   9.728   4.952
22313WAT     H267182   4.836   9.730   4.897
22314WAT      O67183   6.841   4.468   6.397
22314WAT     H167184   6.804   4.375   6.403
22314WAT     H267185   6.786   4.529   6.453
22315WAT      O67186   2.307   5.741   2.482
22315WAT     H167187   2.287   5.819   2.423
22315WAT     H267188   2.229   5.678   2.481
22316WAT      O67189   8.215   5.918   7.319
22316WAT     H167190   8.192   5.893   7.413
22316WAT     H267191   8.140   5.891   7.259
22317WAT      O67192   6.178   1.943   1.583
22317WAT     H167193   6.082   1.964   1.598
22317WAT     H267194   6.186   1.864   1.522
22318WAT      O67195   3.681   3.028   3.516
22318WAT     H167196   3.740   2.969   3.571
22318WAT     H267197   3.665   3.114   3.565
22319WAT      O67198   1.100   5.825   4.551
22319WAT     H167199   1.133   5.887   4.623
22319WAT     H267200   1.056   5.746   4.593
22320WAT      O67201   7.779   2.700   1.187
22320WAT     H167202   7.770   2.736   1.093
22320WAT     H267203   7.701   2.641   1.207
22321WAT      O67204   6.290   5.629   1.021
22321WAT     H167205   6.259   5.709   1.071
22321WAT     H267206   6.369   5.653   0.965
22322WAT      O67207   3.351   7.669   3.962
22322WAT     H167208   3.406   7.586   3.966
22322WAT     H267209   3.408   7.746   3.935
22323WAT      O67210   4.589   5.840   1.626
22323WAT     H167211   4.589   5.851   1.725
22323WAT     H267212   4.675   5.797   1.597
22324WAT      O67213   0.388   2.660   2.883
22324WAT     H167214   0.295   2.667   2.847
22324WAT     H267215   0.385   2.631   2.978
22325WAT      O67216   6.863   8.341   2.479
22325WAT     H167217   6.792   8.341   2.410
22325WAT     H267218   6.822   8.346   2.570
22326WAT      O67219   0.223   0.809   3.121
22326WAT     H167220   0.311   0.857   3.118
22326WAT     H267221   0.195   0.798   3.216
22327WAT      O67222   1.094   0.769   6.609
22327WAT     H167223   1.148   0.790   6.690
22327WAT     H267224   1.029   0.843   6.591
22328WAT      O67225   3.523   6.598   7.970
22328WAT     H167226   3.443   6.594   7.911
22328WAT     H267227   3.511   6.535   8.047
22329WAT      O67228   5.982   1.226   0.203
22329WAT     H167229   6.021   1.215   0.111
22329WAT     H267230   5.882   1.214   0.198
22330WAT      O67231   3.520   8.135   9.475
22330WAT     H167232   3.546   8.102   9.566
22330WAT     H267233   3.555   8.072   9.406
22331WAT      O67234   5.526   9.616   0.677
22331WAT     H167235   5.537   9.528   0.631
22331WAT     H267236   5.504   9.600   0.773
22332WAT      O67237   3.827   3.299   3.417
22332WAT     H167238   3.883   3.376   3.386
22332WAT     H267239   3.765   3.271   3.344
22333WAT      O67240   2.844   5.015   4.608
22333WAT     H167241   2.892   5.095   4.642
22333WAT     H267242   2.800   5.037   4.521
22334WAT      O67243   6.274   3.799   7.691
22334WAT     H167244   6.211   3.795   7.613
22334WAT     H267245   6.221   3.807   7.776
22335WAT      O67246   2.972   8.446   8.896
22335WAT     H167247   3.017   8.385   8.961
22335WAT     H267248   2.980   8.408   8.804
22336WAT      O67249   6.404   0.783   2.795
22336WAT     H167250   6.340   0.737   2.734
22336WAT     H267251   6.464   0.715   2.838
22337WAT      O67252   6.442   8.876   7.083
22337WAT     H167253   6.475   8.802   7.025
22337WAT     H267254   6.352   8.853   7.121
22338WAT      O67255   3.404   2.534   7.836
22338WAT     H167256   3.460   2.610   7.870
22338WAT     H267257   3.373   2.555   7.743
22339WAT      O67258   0.398   9.805   0.066
22339WAT     H167259   0.320   9.773   0.119
22339WAT     H267260   0.390   9.773  -0.028
22340WAT      O67261   3.523   3.034   0.241
22340WAT     H167262   3.448   3.099   0.250
22340WAT     H267263   3.610   3.083   0.249
22341WAT      O67264   8.412   2.153   6.735
22341WAT     H167265   8.489   2.147   6.671
22341WAT     H267266   8.437   2.214   6.811
22342WAT      O67267   7.906   0.788   2.471
22342WAT     H167268   7.885   0.886   2.468
22342WAT     H267269   8.005   0.775   2.477
22343WAT      O67270   0.230   2.174   2.944
22343WAT     H167271   0.327   2.197   2.952
22343WAT     H267272   0.175   2.255   2.965
22344WAT      O67273   9.174   0.489   7.019
22344WAT     H167274   9.193   0.476   7.116
22344WAT     H267275   9.094   0.435   6.993
22345WAT      O67276   2.073   3.662   9.693
22345WAT     H167277   2.103   3.716   9.615
22345WAT     H267278   2.022   3.582   9.661
22346WAT      O67279   2.123   5.257   7.670
22346WAT     H167280   2.081   5.291   7.754
22346WAT     H267281   2.209   5.210   7.693
22347WAT      O67282   6.569   8.023   3.336
22347WAT     H167283   6.503   7.985   3.271
22347WAT     H267284   6.580   7.959   3.413
22348WAT      O67285   7.284   7.973   5.861
22348WAT     H167286   7.287   8.066   5.826
22348WAT     H267287   7.303   7.909   5.786
22349WAT      O67288   0.223   7.379   2.318
22349WAT     H167289   0.239   7.444   2.244
22349WAT     H267290   0.131   7.391   2.354
22350WAT      O67291   1.540   5.368   8.068
22350WAT     H167292   1.568   5.460   8.094
22350WAT     H267293   1.450   5.372   8.024
22351WAT      O67294   9.621   6.192   6.319
22351WAT     H167295   9.592   6.099   6.297
22351WAT     H267296   9.682   6.190   6.398
22352WAT      O67297   6.602   7.957   9.545
22352WAT     H167298   6.599   7.885   9.475
22352WAT     H267299   6.698   7.982   9.562
22353WAT      O67300   3.512   3.620   8.717
22353WAT     H167301   3.435   3.648   8.661
22353WAT     H267302   3.534   3.524   8.699
22354WAT      O67303   3.090   6.046   9.691
22354WAT     H167304   3.164   6.019   9.754
22354WAT     H267305   3.120   6.125   9.638
22355WAT      O67306   9.775   1.632   6.837
22355WAT     H167307   9.824   1.634   6.750
22355WAT     H267308   9.838   1.608   6.911
22356WAT      O67309   4.806   7.593   6.225
22356WAT     H167310   4.794   7.676   6.280
22356WAT     H267311   4.765   7.606   6.135
22357WAT      O67312   0.672   5.268   4.805
22357WAT     H167313   0.692   5.173   4.828
22357WAT     H267314   0.748   5.326   4.834
22358WAT      O67315   3.216   7.213   5.672
22358WAT     H167316   3.164   7.132   5.648
22358WAT     H267317   3.240   7.209   5.769
22359WAT      O67318   4.591   9.739   4.303
22359WAT     H167319   4.519   9.805   4.325
22359WAT     H267320   4.673   9.762   4.355
22360WAT      O67321   1.240   9.738   1.422
22360WAT     H167322   1.188   9.787   1.353
22360WAT     H267323   1.326   9.704   1.383
22361WAT      O67324   6.165   2.554   7.980
22361WAT     H167325   6.082   2.502   8.001
22361WAT     H267326   6.198   2.598   8.063
22362WAT      O67327   6.768   4.122   2.147
22362WAT     H167328   6.698   4.152   2.083
22362WAT     H267329   6.819   4.046   2.107
22363WAT      O67330   1.354   3.753   6.173
22363WAT     H167331   1.316   3.815   6.104
22363WAT     H267332   1.437   3.793   6.212
22364WAT      O67333   9.010   7.761   9.727
22364WAT     H167334   9.056   7.732   9.811
22364WAT     H267335   8.938   7.827   9.749
22365WAT      O67336   1.988   4.274   9.106
22365WAT     H167337   2.024   4.308   9.193
22365WAT     H267338   2.055   4.213   9.063
22366WAT      O67339   1.804   4.578   2.362
22366WAT     H167340   1.895   4.608   2.391
22366WAT     H267341   1.742   4.579   2.441
22367WAT      O67342   7.298   5.423   8.737
22367WAT     H167343   7.284   5.445   8.640
22367WAT     H267344   7.215   5.383   8.774
22368WAT      O67345   6.692   6.721   4.378
22368WAT     H167346   6.719   6.812   4.411
22368WAT     H267347   6.687   6.658   4.456
22369WAT      O67348   7.636   4.155   1.360
22369WAT     H167349   7.645   4.220   1.285
22369WAT     H267350   7.715   4.162   1.421
22370WAT      O67351   8.407   7.376   5.797
22370WAT     H167352   8.318   7.331   5.798
22370WAT     H267353   8.402   7.462   5.746
22371WAT      O67354   3.873   4.439   9.208
22371WAT     H167355   3.961   4.394   9.197
22371WAT     H267356   3.850   4.487   9.123
22372WAT      O67357   7.795   9.036   8.440
22372WAT     H167358   7.822   8.944   8.470
22372WAT     H267359   7.865   9.102   8.468
22373WAT      O67360   2.059   6.362   7.262
22373WAT     H167361   2.075   6.356   7.360
22373WAT     H267362   1.973   6.317   7.239
22374WAT      O67363   8.827   8.993   6.729
22374WAT     H167364   8.794   8.903   6.699
22374WAT     H267365   8.838   9.052   6.649
22375WAT      O67366   5.071   5.168   0.885
22375WAT     H167367   5.161   5.191   0.923
22375WAT     H267368   5.004   5.235   0.916
22376WAT      O67369   1.391   5.621   3.176
22376WAT     H167370   1.343   5.667   3.100
22376WAT     H267371   1.477   5.669   3.194
22377WAT      O67372   1.216   2.822   1.670
22377WAT     H167373   1.177   2.790   1.756
22377WAT     H267374   1.221   2.746   1.605
22378WAT      O67375   3.111   2.616   1.612
22378WAT     H167376   3.201   2.648   1.583
22378WAT     H267377   3.117   2.582   1.706
22379WAT      O67378   9.581   6.310   7.980
22379WAT     H167379   9.598   6.359   7.894
22379WAT     H267380   9.635   6.226   7.982
22380WAT      O67381   4.496   5.294   6.745
22380WAT     H167382   4.495   5.292   6.845
22380WAT     H267383   4.590   5.287   6.713
22381WAT      O67384   6.829   1.037   4.411
22381WAT     H167385   6.804   0.973   4.484
22381WAT     H267386   6.887   0.990   4.345
22382WAT      O67387   5.285   1.852   3.352
22382WAT     H167388   5.323   1.763   3.379
22382WAT     H267389   5.359   1.916   3.336
22383WAT      O67390   1.085   4.130   0.248
22383WAT     H167391   1.074   4.130   0.348
22383WAT     H267392   1.154   4.063   0.223
22384WAT      O67393   1.483   0.057   4.983
22384WAT     H167394   1.426   0.067   4.901
22384WAT     H267395   1.502  -0.040   4.998
22385WAT      O67396   5.240   1.274   8.767
22385WAT     H167397   5.211   1.330   8.690
22385WAT     H267398   5.203   1.313   8.852
22386WAT      O67399   1.515   7.840   9.831
22386WAT     H167400   1.546   7.935   9.838
22386WAT     H267401   1.585   7.779   9.868
22387WAT      O67402   7.124   7.243   6.168
22387WAT     H167403   7.113   7.147   6.141
22387WAT     H267404   7.167   7.246   6.259
22388WAT      O67405   0.587   3.992   8.338
22388WAT     H167406   0.568   4.090   8.349
22388WAT     H267407   0.656   3.980   8.266
22389WAT      O67408   8.571   5.728   3.150
22389WAT     H167409   8.528   5.716   3.239
22389WAT     H267410   8.670   5.737   3.162
22390WAT      O67411   2.923   8.139   5.624
22390WAT     H167412   2.855   8.209   5.645
22390WAT     H267413   2.905   8.057   5.678
22391WAT      O67414   5.394   2.135   3.588
22391WAT     H167415   5.440   2.153   3.674
22391WAT     H267416   5.312   2.191   3.581
22392WAT      O67417   5.123   9.264   8.310
22392WAT     H167418   5.148   9.361   8.306
22392WAT     H267419   5.055   9.245   8.239
22393WAT      O67420   5.573   0.760   9.301
22393WAT     H167421   5.476   0.758   9.327
22393WAT     H267422   5.604   0.855   9.296
22394WAT      O67423   3.547   1.458   0.838
22394WAT     H167424   3.636   1.418   0.812
22394WAT     H267425   3.483   1.447   0.762
22395WAT      O67426   6.605   6.563   3.584
22395WAT     H167427   6.570   6.656   3.592
22395WAT     H267428   6.550   6.502   3.642
22396WAT      O67429   0.003   2.246   5.975
22396WAT     H167430   0.069   2.219   6.044
22396WAT     H267431  -0.055   2.168   5.952
22397WAT      O67432   9.020   5.552   7.830
22397WAT     H167433   9.005   5.555   7.929
22397WAT     H267434   8.960   5.482   7.790
22398WAT      O67435   7.391   1.384   6.340
22398WAT     H167436   7.452   1.315   6.379
22398WAT     H267437   7.419   1.475   6.371
22399WAT      O67438   8.162   6.091   8.580
22399WAT     H167439   8.245   6.090   8.636
22399WAT     H267440   8.180   6.141   8.495
22400WAT      O67441   3.797   6.877   1.419
22400WAT     H167442   3.838   6.959   1.458
22400WAT     H267443   3.831   6.796   1.467
22401WAT      O67444   9.736   9.826   2.353
22401WAT     H167445   9.810   9.776   2.399
22401WAT     H267446   9.775   9.903   2.302
22402WAT      O67447   9.874   5.839   4.108
22402WAT     H167448   9.930   5.917   4.135
22402WAT     H267449   9.871   5.773   4.183
22403WAT      O67450   3.433   6.894   4.495
22403WAT     H167451   3.452   6.979   4.545
22403WAT     H267452   3.518   6.842   4.485
22404WAT      O67453   2.436   7.376   1.111
22404WAT     H167454   2.415   7.408   1.203
22404WAT     H267455   2.532   7.397   1.090
22405WAT      O67456   4.080   7.805   5.021
22405WAT     H167457   4.072   7.784   5.119
22405WAT     H267458   4.104   7.722   4.971
22406WAT      O67459   3.578   2.642   0.702
22406WAT     H167460   3.490   2.688   0.715
22406WAT     H267461   3.603   2.595   0.787
22407WAT      O67462   2.018   3.631   7.320
22407WAT     H167463   2.031   3.700   7.249
22407WAT     H267464   1.942   3.571   7.295
22408WAT      O67465   1.943   5.394   2.140
22408WAT     H167466   1.986   5.480   2.111
22408WAT     H267467   1.847   5.410   2.161
22409WAT      O67468   2.312   1.410   5.770
22409WAT     H167469   2.269   1.480   5.713
22409WAT     H267470   2.276   1.320   5.745
22410WAT      O67471   5.214   1.327   2.415
22410WAT     H167472   5.298   1.376   2.440
22410WAT     H267473   5.158   1.313   2.496
22411WAT      O67474   3.342   8.363   5.771
22411WAT     H167475   3.318   8.266   5.775
22411WAT     H267476   3.375   8.394   5.860
22412WAT      O67477   1.767   3.144   8.144
22412WAT     H167478   1.779   3.081   8.068
22412WAT     H267479   1.852   3.195   8.159
22413WAT      O67480   5.525   1.360   9.509
22413WAT     H167481   5.509   1.351   9.410
22413WAT     H267482   5.587   1.289   9.539
22414WAT      O67483   3.078   4.166   4.069
22414WAT     H167484   3.143   4.094   4.093
22414WAT     H267485   3.067   4.227   4.147
22415WAT      O67486   8.205   0.398   5.848
22415WAT     H167487   8.246   0.405   5.757
22415WAT     H267488   8.108   0.419   5.842
22416WAT      O67489   9.416   0.188   6.512
22416WAT     H167490   9.472   0.265   6.542
22416WAT     H267491   9.461   0.102   6.535
22417WAT      O67492   0.500   5.154   9.273
22417WAT     H167493   0.533   5.089   9.343
22417WAT     H267494   0.407   5.183   9.296
22418WAT      O67495   3.886   4.916   2.475
22418WAT     H167496   3.953   4.974   2.521
22418WAT     H267497   3.933   4.841   2.428
22419WAT      O67498   3.056   5.446   0.181
22419WAT     H167499   2.990   5.520   0.196
22419WAT     H267500   3.015   5.359   0.210
22420WAT      O67501   5.355   3.697   0.152
22420WAT     H167502   5.390   3.685   0.244
22420WAT     H267503   5.293   3.776   0.150
22421WAT      O67504   7.233   6.724   9.511
22421WAT     H167505   7.217   6.823   9.517
22421WAT     H267506   7.147   6.676   9.529
22422WAT      O67507   9.649   9.777   3.039
22422WAT     H167508   9.639   9.873   3.013
22422WAT     H267509   9.568   9.725   3.012
22423WAT      O67510   7.259   6.527   5.432
22423WAT     H167511   7.302   6.478   5.357
22423WAT     H267512   7.295   6.494   5.519
22424WAT      O67513   0.831   9.179   8.839
22424WAT     H167514   0.924   9.174   8.873
22424WAT     H267515   0.770   9.126   8.898
22425WAT      O67516   2.024   7.616   5.336
22425WAT     H167517   1.956   7.658   5.396
22425WAT     H267518   2.076   7.687   5.289
22426WAT      O67519   1.089   2.732   0.614
22426WAT     H167520   1.167   2.792   0.599
22426WAT     H267521   1.094   2.692   0.705
22427WAT      O67522   4.172   3.868   9.634
22427WAT     H167523   4.095   3.932   9.640
22427WAT     H267524   4.255   3.914   9.666
22428WAT      O67525   9.164   3.912   5.501
22428WAT     H167526   9.109   3.831   5.480
22428WAT     H267527   9.236   3.922   5.432
22429WAT      O67528   0.153   3.528   1.851
22429WAT     H167529   0.226   3.460   1.847
22429WAT     H267530   0.077   3.500   1.792
22430WAT      O67531   6.322   1.630   4.556
22430WAT     H167532   6.240   1.683   4.532
22430WAT     H267533   6.396   1.693   4.579
22431WAT      O67534   9.527   4.872   8.681
22431WAT     H167535   9.564   4.946   8.737
22431WAT     H267536   9.580   4.789   8.697
22432WAT      O67537   0.719   0.834   6.203
22432WAT     H167538   0.707   0.739   6.175
22432WAT     H267539   0.776   0.882   6.136
22433WAT      O67540   2.509   3.834   9.127
22433WAT     H167541   2.528   3.750   9.076
22433WAT     H267542   2.491   3.908   9.062
22434WAT      O67543   0.070   5.147   8.939
22434WAT     H167544   0.113   5.094   8.866
22434WAT     H267545   0.067   5.093   9.023
22435WAT      O67546   6.058   4.837   0.881
22435WAT     H167547   6.014   4.751   0.856
22435WAT     H267548   5.994   4.895   0.930
22436WAT      O67549   7.376   5.680   9.677
22436WAT     H167550   7.439   5.733   9.621
22436WAT     H267551   7.424   5.600   9.714
22437WAT      O67552   8.507   5.716   6.092
22437WAT     H167553   8.412   5.698   6.116
22437WAT     H267554   8.548   5.634   6.054
22438WAT      O67555   6.823   4.234   1.584
22438WAT     H167556   6.806   4.192   1.494
22438WAT     H267557   6.907   4.196   1.622
22439WAT      O67558   5.826   0.043   4.585
22439WAT     H167559   5.728   0.038   4.569
22439WAT     H267560   5.851   0.136   4.612
22440WAT      O67561   0.351   9.255   6.938
22440WAT     H167562   0.265   9.298   6.963
22440WAT     H267563   0.379   9.284   6.847
22441WAT      O67564   7.011   5.890   7.358
22441WAT     H167565   6.969   5.805   7.325
22441WAT     H267566   7.052   5.874   7.447
22442WAT      O67567   3.112   8.784   3.017
22442WAT     H167568   3.048   8.780   2.940
22442WAT     H267569   3.180   8.710   3.007
22443WAT      O67570   3.281   6.955   5.323
22443WAT     H167571   3.278   7.052   5.347
22443WAT     H267572   3.375   6.921   5.335
22444WAT      O67573   2.303   1.639   7.080
22444WAT     H167574   2.359   1.564   7.114
22444WAT     H267575   2.207   1.621   7.101
22445WAT      O67576   2.515   2.534   3.964
22445WAT     H167577   2.541   2.521   3.868
22445WAT     H267578   2.508   2.632   3.983
22446WAT      O67579   0.660   5.675   5.952
22446WAT     H167580   0.660   5.627   6.040
22446WAT     H267581   0.670   5.773   5.967
22447WAT      O67582   7.398   8.934   9.451
22447WAT     H167583   7.308   8.947   9.491
22447WAT     H267584   7.468   8.950   9.521
22448WAT      O67585   8.012   6.068   8.846
22448WAT     H167586   8.018   6.064   8.746
22448WAT     H267587   7.928   6.023   8.876
22449WAT      O67588   6.763   6.268   7.176
22449WAT     H167589   6.770   6.213   7.259
22449WAT     H267590   6.669   6.301   7.167
22450WAT      O67591   3.720   9.830   4.182
22450WAT     H167592   3.648   9.864   4.243
22450WAT     H267593   3.751   9.740   4.214
22451WAT      O67594   5.634   3.821   7.510
22451WAT     H167595   5.633   3.823   7.410
22451WAT     H267596   5.543   3.843   7.545
22452WAT      O67597   9.012   8.048   8.061
22452WAT     H167598   9.023   8.129   8.003
22452WAT     H267599   9.074   8.054   8.139
22453WAT      O67600   7.523   7.341   6.200
22453WAT     H167601   7.607   7.287   6.189
22453WAT     H267602   7.465   7.298   6.269
22454WAT      O67603   6.091   0.754   4.068
22454WAT     H167604   6.071   0.676   4.009
22454WAT     H267605   6.063   0.733   4.162
22455WAT      O67606   3.294   4.973   3.232
22455WAT     H167607   3.364   5.019   3.177
22455WAT     H267608   3.263   4.891   3.183
22456WAT      O67609   3.870   0.847   7.773
22456WAT     H167610   3.833   0.828   7.682
22456WAT     H267611   3.917   0.766   7.808
22457WAT      O67612   9.175   7.906   0.504
22457WAT     H167613   9.208   7.971   0.572
22457WAT     H267614   9.224   7.920   0.417
22458WAT      O67615   2.132   4.755   3.414
22458WAT     H167616   2.145   4.698   3.333
22458WAT     H267617   2.174   4.711   3.493
22459WAT      O67618   9.352   7.852   5.198
22459WAT     H167619   9.374   7.795   5.278
22459WAT     H267620   9.422   7.923   5.188
22460WAT      O67621   6.479   6.517   5.855
22460WAT     H167622   6.393   6.534   5.903
22460WAT     H267623   6.510   6.603   5.813
22461WAT      O67624   7.795   9.561   8.828
22461WAT     H167625   7.740   9.510   8.761
22461WAT     H267626   7.777   9.526   8.920
22462WAT      O67627   1.700   8.141   9.562
22462WAT     H167628   1.625   8.188   9.608
22462WAT     H267629   1.667   8.054   9.524
22463WAT      O67630   8.195   6.177   5.305
22463WAT     H167631   8.166   6.211   5.216
22463WAT     H267632   8.279   6.224   5.333
22464WAT      O67633   3.083   1.936   1.688
22464WAT     H167634   3.140   1.979   1.758
22464WAT     H267635   3.004   1.994   1.669
22465WAT      O67636   1.425   3.226   1.696
22465WAT     H167637   1.500   3.260   1.753
22465WAT     H267638   1.448   3.135   1.662
22466WAT      O67639   9.599   8.611   0.766
22466WAT     H167640   9.648   8.526   0.785
22466WAT     H267641   9.638   8.685   0.821
22467WAT      O67642   2.671   7.738   0.913
22467WAT     H167643   2.620   7.814   0.953
22467WAT     H267644   2.674   7.749   0.814
22468WAT      O67645   9.672   4.529   4.258
22468WAT     H167646   9.619   4.609   4.285
22468WAT     H267647   9.769   4.549   4.266
22469WAT      O67648   2.695   5.510   8.152
22469WAT     H167649   2.689   5.478   8.057
22469WAT     H267650   2.791   5.515   8.179
22470WAT      O67651   3.412   2.266   0.870
22470WAT     H167652   3.477   2.194   0.847
22470WAT     H267653   3.461   2.353   0.880
22471WAT      O67654   2.200   6.079   1.101
22471WAT     H167655   2.273   6.098   1.036
22471WAT     H267656   2.120   6.133   1.077
22472WAT      O67657   3.472   4.235   1.998
22472WAT     H167658   3.517   4.259   1.912
22472WAT     H267659   3.384   4.191   1.979
22473WAT      O67660   8.669   9.629   6.960
22473WAT     H167661   8.603   9.648   7.033
22473WAT     H267662   8.759   9.613   7.001
22474WAT      O67663   1.133   1.880   5.864
22474WAT     H167664   1.043   1.893   5.906
22474WAT     H267665   1.205   1.904   5.930
22475WAT      O67666   0.304   7.556   6.578
22475WAT     H167667   0.208   7.534   6.564
22475WAT     H267668   0.361   7.496   6.521
22476WAT      O67669   1.052   3.958   3.717
22476WAT     H167670   1.101   4.042   3.697
22476WAT     H267671   0.980   3.975   3.784
22477WAT      O67672   8.346   2.196   4.514
22477WAT     H167673   8.379   2.290   4.515
22477WAT     H267674   8.286   2.183   4.435
22478WAT      O67675   3.550   2.457   8.220
22478WAT     H167676   3.463   2.506   8.214
22478WAT     H267677   3.576   2.423   8.129
22479WAT      O67678   7.953   9.552   3.862
22479WAT     H167679   7.992   9.552   3.954
22479WAT     H267680   7.898   9.470   3.849
22480WAT      O67681   9.037   4.062   0.041
22480WAT     H167682   8.948   4.017   0.035
22480WAT     H267683   9.096   4.011   0.104
22481WAT      O67684   7.730   4.293   7.691
22481WAT     H167685   7.632   4.279   7.704
22481WAT     H267686   7.752   4.388   7.712
22482WAT      O67687   5.605   1.279   4.430
22482WAT     H167688   5.591   1.364   4.378
22482WAT     H267689   5.517   1.245   4.461
22483WAT      O67690   3.649   1.227   5.478
22483WAT     H167691   3.747   1.245   5.478
22483WAT     H267692   3.602   1.293   5.538
22484WAT      O67693   5.221   0.727   0.477
22484WAT     H167694   5.167   0.769   0.403
22484WAT     H267695   5.263   0.799   0.532
22485WAT      O67696   8.686   4.475   7.663
22485WAT     H167697   8.746   4.404   7.627
22485WAT     H267698   8.691   4.476   7.763
22486WAT      O67699   9.710   0.509   6.739
22486WAT     H167700   9.802   0.481   6.713
22486WAT     H267701   9.664   0.548   6.660
22487WAT      O67702   2.401   8.362   4.995
22487WAT     H167703   2.321   8.392   5.045
22487WAT     H267704   2.386   8.269   4.959
22488WAT      O67705   3.074   8.368   9.241
22488WAT     H167706   3.078   8.321   9.153
22488WAT     H267707   3.154   8.344   9.296
22489WAT      O67708   0.166   4.340   8.442
22489WAT     H167709   0.159   4.403   8.519
22489WAT     H267710   0.196   4.251   8.474
22490WAT      O67711   6.266   2.948   5.216
22490WAT     H167712   6.322   2.942   5.134
22490WAT     H267713   6.287   3.033   5.265
22491WAT      O67714   0.394   6.279   3.473
22491WAT     H167715   0.466   6.213   3.455
22491WAT     H267716   0.410   6.362   3.419
22492WAT      O67717   5.943   2.079   6.114
22492WAT     H167718   6.035   2.114   6.093
22492WAT     H267719   5.890   2.072   6.030
22493WAT      O67720   8.679   5.833   7.879
22493WAT     H167721   8.635   5.821   7.968
22493WAT     H267722   8.616   5.804   7.807
22494WAT      O67723   9.561   7.599   7.979
22494WAT     H167724   9.562   7.543   7.897
22494WAT     H267725   9.601   7.688   7.959
22495WAT      O67726   6.487   5.749   8.801
22495WAT     H167727   6.511   5.763   8.897
22495WAT     H267728   6.408   5.688   8.795
22496WAT      O67729   8.677   4.294   6.922
22496WAT     H167730   8.663   4.205   6.878
22496WAT     H267731   8.773   4.302   6.949
22497WAT      O67732   9.412   0.589   8.568
22497WAT     H167733   9.433   0.618   8.475
22497WAT     H267734   9.401   0.670   8.626
22498WAT      O67735   7.688   1.955   0.227
22498WAT     H167736   7.601   1.972   0.274
22498WAT     H267737   7.723   1.865   0.253
22499WAT      O67738   5.609   9.121   2.653
22499WAT     H167739   5.686   9.154   2.598
22499WAT     H267740   5.624   9.025   2.677
22500WAT      O67741   6.883   2.829   9.675
22500WAT     H167742   6.858   2.760   9.743
22500WAT     H267743   6.980   2.851   9.683
22501WAT      O67744   9.655   4.147   0.464
22501WAT     H167745   9.639   4.233   0.513
22501WAT     H267746   9.668   4.165   0.367
22502WAT      O67747   9.035   0.859   2.482
22502WAT     H167748   9.117   0.901   2.521
22502WAT     H267749   9.061   0.799   2.407
22503WAT      O67750   6.727   1.066   2.809
22503WAT     H167751   6.635   1.071   2.770
22503WAT     H267752   6.793   1.100   2.742
22504WAT      O67753   5.227   4.946   3.779
22504WAT     H167754   5.227   5.045   3.768
22504WAT     H267755   5.146   4.918   3.830
22505WAT      O67756   8.123   4.252   6.144
22505WAT     H167757   8.050   4.190   6.169
22505WAT     H267758   8.161   4.295   6.226
22506WAT      O67759   1.220   3.805   4.185
22506WAT     H167760   1.214   3.762   4.275
22506WAT     H267761   1.273   3.747   4.123
22507WAT      O67762   0.559   7.071   8.155
22507WAT     H167763   0.625   7.146   8.159
22507WAT     H267764   0.606   6.984   8.169
22508WAT      O67765   5.368   0.793   5.061
22508WAT     H167766   5.329   0.879   5.095
22508WAT     H267767   5.392   0.734   5.139
22509WAT      O67768   9.067   6.556   8.259
22509WAT     H167769   8.973   6.576   8.230
22509WAT     H267770   9.091   6.463   8.229
22510WAT      O67771   5.549   6.350   6.654
22510WAT     H167772   5.501   6.346   6.567
22510WAT     H267773   5.527   6.437   6.700
22511WAT      O67774   5.758   5.963   1.735
22511WAT     H167775   5.694   6.033   1.767
22511WAT     H267776   5.787   5.907   1.812
22512WAT      O67777   4.257   3.797   7.372
22512WAT     H167778   4.181   3.841   7.419
22512WAT     H267779   4.236   3.700   7.358
22513WAT      O67780   8.053   4.263   9.130
22513WAT     H167781   8.037   4.165   9.144
22513WAT     H267782   8.152   4.280   9.130
22514WAT      O67783   8.836   5.916   6.368
22514WAT     H167784   8.737   5.928   6.368
22514WAT     H267785   8.872   5.929   6.461
22515WAT      O67786   2.161   6.548   2.467
22515WAT     H167787   2.253   6.509   2.461
22515WAT     H267788   2.098   6.480   2.504
22516WAT      O67789   7.560   2.607   4.628
22516WAT     H167790   7.628   2.534   4.624
22516WAT     H267791   7.473   2.571   4.662
22517WAT      O67792   2.011   1.016   4.610
22517WAT     H167793   1.974   1.052   4.695
22517WAT     H267794   1.950   1.038   4.534
22518WAT      O67795   7.034   8.777   3.512
22518WAT     H167796   7.101   8.841   3.548
22518WAT     H267797   6.978   8.823   3.443
22519WAT      O67798   0.688   8.938   4.960
22519WAT     H167799   0.769   8.986   4.928
22519WAT     H267800   0.614   9.004   4.977
22520WAT      O67801   5.817   5.922   8.354
22520WAT     H167802   5.844   5.997   8.295
22520WAT     H267803   5.747   5.866   8.309
22521WAT      O67804   1.583   2.868   6.733
22521WAT     H167805   1.576   2.796   6.802
22521WAT     H267806   1.492   2.907   6.715
22522WAT      O67807   7.172   1.038   1.593
22522WAT     H167808   7.083   1.081   1.610
22522WAT     H267809   7.211   1.073   1.508
22523WAT      O67810   0.666   8.287   3.883
22523WAT     H167811   0.609   8.208   3.906
22523WAT     H267812   0.745   8.290   3.945
22524WAT      O67813   5.195   1.282   7.679
22524WAT     H167814   5.166   1.369   7.639
22524WAT     H267815   5.285   1.293   7.721
22525WAT      O67816   7.548   0.315   4.675
22525WAT     H167817   7.616   0.353   4.613
22525WAT     H267818   7.474   0.272   4.623
22526WAT      O67819   7.286   7.090   1.588
22526WAT     H167820   7.373   7.115   1.547
22526WAT     H267821   7.284   6.992   1.607
22527WAT      O67822   8.943   0.179   7.791
22527WAT     H167823   8.975   0.236   7.715
22527WAT     H267824   8.854   0.141   7.769
22528WAT      O67825   2.133   6.502   4.341
22528WAT     H167826   2.107   6.435   4.272
22528WAT     H267827   2.168   6.584   4.296
22529WAT      O67828   4.874   0.240   8.495
22529WAT     H167829   4.932   0.288   8.560
22529WAT     H267830   4.916   0.153   8.470
22530WAT      O67831   8.625   4.601   0.852
22530WAT     H167832   8.544   4.629   0.904
22530WAT     H267833   8.687   4.551   0.912
22531WAT      O67834   7.850   0.707   1.629
22531WAT     H167835   7.912   0.781   1.605
22531WAT     H267836   7.892   0.649   1.699
22532WAT      O67837   3.381   8.857   4.536
22532WAT     H167838   3.470   8.812   4.540
22532WAT     H267839   3.337   8.851   4.626
22533WAT      O67840   4.115   0.379   4.781
22533WAT     H167841   4.077   0.456   4.730
22533WAT     H267842   4.207   0.401   4.812
22534WAT      O67843   7.712   0.510   9.044
22534WAT     H167844   7.723   0.473   8.952
22534WAT     H267845   7.754   0.601   9.049
22535WAT      O67846   5.150   1.778   3.829
22535WAT     H167847   5.164   1.824   3.742
22535WAT     H267848   5.052   1.770   3.848
22536WAT      O67849   8.855   2.815   0.469
22536WAT     H167850   8.932   2.878   0.477
22536WAT     H267851   8.796   2.843   0.393
22537WAT      O67852   0.657   1.500   6.653
22537WAT     H167853   0.743   1.496   6.704
22537WAT     H267854   0.630   1.407   6.626
22538WAT      O67855   1.439   7.570   2.719
22538WAT     H167856   1.516   7.600   2.663
22538WAT     H267857   1.465   7.572   2.816
22539WAT      O67858   4.587   6.274   5.739
22539WAT     H167859   4.609   6.252   5.643
22539WAT     H267860   4.660   6.331   5.777
22540WAT      O67861   7.735   7.406   3.119
22540WAT     H167862   7.722   7.505   3.117
22540WAT     H267863   7.672   7.366   3.186
22541WAT      O67864   5.106   6.728   3.236
22541WAT     H167865   5.016   6.750   3.274
22541WAT     H267866   5.175   6.732   3.309
22542WAT      O67867   3.966   2.240   3.752
22542WAT     H167868   4.022   2.210   3.829
22542WAT     H267869   3.871   2.245   3.780
22543WAT      O67870   7.472   2.734   1.439
22543WAT     H167871   7.518   2.740   1.527
22543WAT     H267872   7.517   2.666   1.382
22544WAT      O67873   9.523   3.374   1.374
22544WAT     H167874   9.513   3.275   1.386
22544WAT     H267875   9.619   3.399   1.388
22545WAT      O67876   0.692   8.070   1.084
22545WAT     H167877   0.655   8.163   1.083
22545WAT     H267878   0.759   8.061   1.157
22546WAT      O67879   7.646   3.742   0.287
22546WAT     H167880   7.668   3.705   0.377
22546WAT     H267881   7.655   3.842   0.289
22547WAT      O67882   7.455   7.175   5.375
22547WAT     H167883   7.410   7.176   5.465
22547WAT     H267884   7.529   7.108   5.376
22548WAT      O67885   2.225   5.905   6.855
22548WAT     H167886   2.202   5.863   6.767
22548WAT     H267887   2.296   5.974   6.842
22549WAT      O67888   9.313   4.092   2.830
22549WAT     H167889   9.219   4.057   2.839
22549WAT     H267890   9.377   4.021   2.859
22550WAT      O67891   4.469   4.311   9.400
22550WAT     H167892   4.504   4.394   9.356
22550WAT     H267893   4.376   4.329   9.433
22551WAT      O67894   1.220   4.839   6.069
22551WAT     H167895   1.282   4.808   5.996
22551WAT     H267896   1.182   4.760   6.117
22552WAT      O67897   5.528   1.625   5.054
22552WAT     H167898   5.494   1.578   4.973
22552WAT     H267899   5.537   1.723   5.035
22553WAT      O67900   3.806   6.619   3.070
22553WAT     H167901   3.762   6.600   2.982
22553WAT     H267902   3.888   6.563   3.079
22554WAT      O67903   4.880   1.685   3.290
22554WAT     H167904   4.805   1.734   3.245
22554WAT     H267905   4.928   1.628   3.223
22555WAT      O67906   7.422   3.594   2.898
22555WAT     H167907   7.515   3.630   2.909
22555WAT     H267908   7.412   3.552   2.808
22556WAT      O67909   8.907   4.702   9.338
22556WAT     H167910   8.993   4.701   9.287
22556WAT     H267911   8.844   4.768   9.296
22557WAT      O67912   3.513   2.333   6.964
22557WAT     H167913   3.529   2.249   7.016
22557WAT     H267914   3.592   2.351   6.905
22558WAT      O67915   0.270   1.510   4.694
22558WAT     H167916   0.239   1.476   4.605
22558WAT     H267917   0.365   1.540   4.687
22559WAT      O67918   1.031   9.376   7.592
22559WAT     H167919   1.123   9.414   7.590
22559WAT     H267920   0.967   9.444   7.629
22560WAT      O67921   4.663   0.120   8.643
22560WAT     H167922   4.730   0.073   8.701
22560WAT     H267923   4.708   0.191   8.589
22561WAT      O67924   7.531   1.954   1.428
22561WAT     H167925   7.435   1.924   1.419
22561WAT     H267926   7.591   1.884   1.389
22562WAT      O67927   8.667   1.738   5.905
22562WAT     H167928   8.622   1.649   5.906
22562WAT     H267929   8.766   1.726   5.900
22563WAT      O67930   9.523   3.739   6.239
22563WAT     H167931   9.525   3.642   6.213
22563WAT     H267932   9.616   3.776   6.237
22564WAT      O67933   0.371   6.117   1.177
22564WAT     H167934   0.369   6.044   1.108
22564WAT     H267935   0.297   6.102   1.243
22565WAT      O67936   5.488   8.689   5.456
22565WAT     H167937   5.560   8.651   5.397
22565WAT     H267938   5.489   8.643   5.545
22566WAT      O67939   4.514   8.084   8.024
22566WAT     H167940   4.594   8.125   8.068
22566WAT     H267941   4.543   8.001   7.975
22567WAT      O67942   0.545   4.313   1.514
22567WAT     H167943   0.517   4.297   1.419
22567WAT     H267944   0.486   4.382   1.556
22568WAT      O67945   0.908   1.020   4.954
22568WAT     H167946   0.933   1.116   4.941
22568WAT     H267947   0.869   1.008   5.046
22569WAT      O67948   7.102   8.814   8.956
22569WAT     H167949   7.108   8.762   9.041
22569WAT     H267950   7.041   8.768   8.892
22570WAT      O67951   0.171   2.321   7.640
22570WAT     H167952   0.090   2.274   7.677
22570WAT     H267953   0.141   2.391   7.576
22571WAT      O67954   7.528   8.539   7.624
22571WAT     H167955   7.442   8.531   7.572
22571WAT     H267956   7.592   8.468   7.593
22572WAT      O67957   4.305   4.590   7.558
22572WAT     H167958   4.337   4.598   7.464
22572WAT     H267959   4.343   4.507   7.599
22573WAT      O67960   3.743   6.473   7.883
22573WAT     H167961   3.826   6.525   7.864
22573WAT     H267962   3.669   6.535   7.908
22574WAT      O67963   0.490   3.934   2.499
22574WAT     H167964   0.482   4.033   2.510
22574WAT     H267965   0.492   3.911   2.402
22575WAT      O67966   8.917   1.797   0.969
22575WAT     H167967   9.016   1.788   0.960
22575WAT     H267968   8.892   1.799   1.066
22576WAT      O67969   3.001   2.874   1.746
22576WAT     H167970   2.941   2.797   1.726
22576WAT     H267971   2.953   2.960   1.727
22577WAT      O67972   1.090   6.409   7.642
22577WAT     H167973   1.155   6.480   7.614
22577WAT     H267974   0.997   6.441   7.626
22578WAT      O67975   5.963   1.603   6.279
22578WAT     H167976   5.867   1.580   6.289
22578WAT     H267977   5.979   1.695   6.315
22579WAT      O67978   9.662   4.243   2.354
22579WAT     H167979   9.756   4.270   2.333
22579WAT     H267980   9.648   4.246   2.453
22580WAT      O67981   5.876   7.812   8.795
22580WAT     H167982   5.904   7.879   8.726
22580WAT     H267983   5.905   7.721   8.766
22581WAT      O67984   0.125   0.591   6.183
22581WAT     H167985   0.108   0.504   6.137
22581WAT     H267986   0.093   0.666   6.125
22582WAT      O67987   2.777   5.986   8.771
22582WAT     H167988   2.780   5.958   8.867
22582WAT     H267989   2.834   5.924   8.717
22583WAT      O67990   8.824   0.585   1.876
22583WAT     H167991   8.775   0.657   1.828
22583WAT     H267992   8.781   0.568   1.965
22584WAT      O67993   9.716   2.930   4.431
22584WAT     H167994   9.644   2.931   4.362
22584WAT     H267995   9.680   2.894   4.517
22585WAT      O67996   3.810   5.361   6.394
22585WAT     H167997   3.877   5.361   6.320
22585WAT     H267998   3.763   5.450   6.397
22586WAT      O67999   2.910   9.530   4.547
22586WAT     H168000   2.905   9.616   4.598
22586WAT     H268001   3.001   9.490   4.558
22587WAT      O68002   8.284   7.580   8.003
22587WAT     H168003   8.264   7.529   7.919
22587WAT     H268004   8.300   7.515   8.078
22588WAT      O68005   8.112   1.899   4.405
22588WAT     H168006   8.126   1.933   4.498
22588WAT     H268007   8.096   1.800   4.408
22589WAT      O68008   3.803   9.276   2.867
22589WAT     H168009   3.812   9.205   2.796
22589WAT     H268010   3.894   9.298   2.903
22590WAT      O68011   1.086   1.055   9.648
22590WAT     H168012   1.007   0.994   9.640
22590WAT     H268013   1.159   1.024   9.587
22591WAT      O68014   1.802   7.753   6.465
22591WAT     H168015   1.863   7.702   6.525
22591WAT     H268016   1.769   7.835   6.512
22592WAT      O68017   3.494   1.231   6.409
22592WAT     H168018   3.556   1.195   6.478
22592WAT     H268019   3.546   1.257   6.328
22593WAT      O68020   0.699   5.695   5.053
22593WAT     H168021   0.764   5.681   4.978
22593WAT     H268022   0.748   5.691   5.140
22594WAT      O68023   0.955   4.294   4.933
22594WAT     H168024   1.012   4.368   4.969
22594WAT     H268025   0.993   4.262   4.846
22595WAT      O68026   0.102   8.656   7.350
22595WAT     H168027   0.120   8.711   7.269
22595WAT     H268028   0.105   8.559   7.327
22596WAT      O68029   1.705   1.199   7.362
22596WAT     H168030   1.647   1.133   7.315
22596WAT     H268031   1.671   1.291   7.346
22597WAT      O68032   7.045   0.177   0.471
22597WAT     H168033   6.986   0.207   0.396
22597WAT     H268034   7.109   0.250   0.495
22598WAT      O68035   5.950   6.286   6.030
22598WAT     H168036   5.936   6.195   5.992
22598WAT     H268037   5.884   6.303   6.103
22599WAT      O68038   8.731   3.969   9.682
22599WAT     H168039   8.753   3.951   9.778
22599WAT     H268040   8.664   3.901   9.651
22600WAT      O68041   2.900   8.629   2.167
22600WAT     H168042   2.991   8.671   2.173
22600WAT     H268043   2.861   8.619   2.258
22601WAT      O68044   9.540   7.781   0.790
22601WAT     H168045   9.476   7.705   0.781
22601WAT     H268046   9.618   7.754   0.847
22602WAT      O68047   1.450   2.213   2.243
22602WAT     H168048   1.465   2.163   2.328
22602WAT     H268049   1.480   2.307   2.254
22603WAT      O68050   5.765   5.285   0.227
22603WAT     H168051   5.792   5.292   0.323
22603WAT     H268052   5.669   5.313   0.218
22604WAT      O68053   0.761   7.245   7.383
22604WAT     H168054   0.823   7.183   7.432
22604WAT     H268055   0.807   7.332   7.367
22605WAT      O68056   7.628   6.025   1.543
22605WAT     H168057   7.627   5.963   1.465
22605WAT     H268058   7.539   6.023   1.589
22606WAT      O68059   1.187   3.336   8.599
22606WAT     H168060   1.217   3.245   8.627
22606WAT     H268061   1.267   3.389   8.567
22607WAT      O68062   7.136   6.988   0.250
22607WAT     H168063   7.179   6.998   0.340
22607WAT     H268064   7.156   6.897   0.213
22608WAT      O68065   3.862   1.904   0.824
22608WAT     H168066   3.921   1.874   0.899
22608WAT     H268067   3.808   1.826   0.791
22609WAT      O68068   0.375   2.893   5.807
22609WAT     H168069   0.337   2.965   5.865
22609WAT     H268070   0.466   2.869   5.839
22610WAT      O68071   5.120   8.073   6.820
22610WAT     H168072   5.098   8.093   6.724
22610WAT     H268073   5.052   8.116   6.879
22611WAT      O68074   7.476   9.791   6.736
22611WAT     H168075   7.468   9.721   6.665
22611WAT     H268076   7.469   9.748   6.826
22612WAT      O68077   6.795   6.911   7.624
22612WAT     H168078   6.844   6.937   7.707
22612WAT     H268079   6.859   6.902   7.548
22613WAT      O68080   4.106   2.074   3.944
22613WAT     H168081   4.187   2.016   3.936
22613WAT     H268082   4.073   2.073   4.038
22614WAT      O68083   8.314   0.076   2.802
22614WAT     H168084   8.277   0.165   2.773
22614WAT     H268085   8.253   0.036   2.870
22615WAT      O68086   8.757   9.033   4.329
22615WAT     H168087   8.695   8.993   4.396
22615WAT     H268088   8.848   8.990   4.337
22616WAT      O68089   1.283   8.360   7.450
22616WAT     H168090   1.229   8.364   7.366
22616WAT     H268091   1.221   8.348   7.528
22617WAT      O68092   0.744   1.585   6.277
22617WAT     H168093   0.761   1.533   6.361
22617WAT     H268094   0.783   1.536   6.199
22618WAT      O68095   3.676   4.737   1.311
22618WAT     H168096   3.774   4.719   1.324
22618WAT     H268097   3.642   4.686   1.233
22619WAT      O68098   3.487   0.494   6.846
22619WAT     H168099   3.448   0.586   6.838
22619WAT     H268100   3.456   0.453   6.932
22620WAT      O68101   5.392   7.281   6.379
22620WAT     H168102   5.409   7.258   6.283
22620WAT     H268103   5.372   7.379   6.386
22621WAT      O68104   6.464   4.762   6.378
22621WAT     H168105   6.399   4.734   6.448
22621WAT     H268106   6.426   4.743   6.288
22622WAT      O68107   4.430   3.543   4.897
22622WAT     H168108   4.408   3.536   4.800
22622WAT     H268109   4.423   3.639   4.926
22623WAT      O68110   2.835   9.430   4.945
22623WAT     H168111   2.748   9.465   4.909
22623WAT     H268112   2.886   9.505   4.988
22624WAT      O68113   2.831   4.925   5.268
22624WAT     H168114   2.858   5.021   5.279
22624WAT     H268115   2.881   4.885   5.191
22625WAT      O68116   9.547   6.928   7.186
22625WAT     H168117   9.450   6.953   7.184
22625WAT     H268118   9.559   6.836   7.149
22626WAT      O68119   9.370   2.283   9.787
22626WAT     H168120   9.352   2.236   9.873
22626WAT     H268121   9.332   2.375   9.790
22627WAT      O68122   4.127   8.859   4.834
22627WAT     H168123   4.066   8.787   4.866
22627WAT     H268124   4.220   8.823   4.827
22628WAT      O68125   1.604   8.466   0.664
22628WAT     H168126   1.703   8.462   0.656
22628WAT     H268127   1.562   8.411   0.591
22629WAT      O68128   5.367   5.529   1.184
22629WAT     H168129   5.342   5.496   1.093
22629WAT     H268130   5.413   5.456   1.234
22630WAT      O68131   9.281   6.255   1.832
22630WAT     H168132   9.286   6.202   1.748
22630WAT     H268133   9.370   6.255   1.877
22631WAT      O68134   1.975   4.910   6.486
22631WAT     H168135   2.020   4.825   6.458
22631WAT     H268136   2.037   4.987   6.472
22632WAT      O68137   6.567   1.303   0.631
22632WAT     H168138   6.596   1.270   0.721
22632WAT     H268139   6.608   1.246   0.560
22633WAT      O68140   1.931   2.674   5.207
22633WAT     H168141   1.917   2.670   5.108
22633WAT     H268142   1.943   2.769   5.235
22634WAT      O68143   6.689   9.845   0.402
22634WAT     H168144   6.747   9.834   0.321
22634WAT     H268145   6.600   9.803   0.386
22635WAT      O68146   4.345   8.582   4.271
22635WAT     H168147   4.394   8.643   4.210
22635WAT     H268148   4.249   8.576   4.244
22636WAT      O68149   4.586   4.622   3.784
22636WAT     H168150   4.557   4.559   3.712
22636WAT     H268151   4.526   4.611   3.863
22637WAT      O68152   1.684   1.239   7.087
22637WAT     H168153   1.604   1.188   7.117
22637WAT     H268154   1.766   1.200   7.128
22638WAT      O68155   8.698   3.212   1.620
22638WAT     H168156   8.747   3.173   1.697
22638WAT     H268157   8.603   3.181   1.622
22639WAT      O68158   8.022   8.748   6.428
22639WAT     H168159   8.080   8.828   6.442
22639WAT     H268160   7.942   8.774   6.374
22640WAT      O68161   8.981   6.207   0.853
22640WAT     H168162   8.889   6.171   0.871
22640WAT     H268163   9.017   6.249   0.936
22641WAT      O68164   1.280   4.405   0.724
22641WAT     H168165   1.264   4.331   0.790
22641WAT     H268166   1.370   4.392   0.681
22642WAT      O68167   2.918   4.020   3.389
22642WAT     H168168   2.829   4.038   3.430
22642WAT     H268169   2.906   3.968   3.304
22643WAT      O68170   9.753   8.304   6.752
22643WAT     H168171   9.657   8.317   6.778
22643WAT     H268172   9.759   8.234   6.681
22644WAT      O68173   4.973   8.582   4.635
22644WAT     H168174   5.056   8.637   4.641
22644WAT     H268175   4.982   8.502   4.694
22645WAT      O68176   3.443   4.897   1.702
22645WAT     H168177   3.357   4.896   1.754
22645WAT     H268178   3.450   4.813   1.649
22646WAT      O68179   2.141   2.497   3.429
22646WAT     H168180   2.241   2.498   3.424
22646WAT     H268181   2.107   2.405   3.409
22647WAT      O68182   0.072   3.416   4.628
22647WAT     H168183   0.000   3.409   4.698
22647WAT     H268184   0.036   3.383   4.541
22648WAT      O68185   6.927   8.717   6.290
22648WAT     H168186   6.990   8.691   6.364
22648WAT     H268187   6.858   8.646   6.280
22649WAT      O68188   5.300   0.364   6.352
22649WAT     H168189   5.377   0.334   6.409
22649WAT     H268190   5.215   0.346   6.401
22650WAT      O68191   7.210   7.241   0.959
22650WAT     H168192   7.127   7.281   0.918
22650WAT     H268193   7.196   7.230   1.058
22651WAT      O68194   7.440   8.022   4.756
22651WAT     H168195   7.436   7.988   4.850
22651WAT     H268196   7.458   7.946   4.694
22652WAT      O68197   0.849   6.263   3.851
22652WAT     H168198   0.860   6.173   3.809
22652WAT     H268199   0.786   6.318   3.795
22653WAT      O68200   1.358   1.476   5.040
22653WAT     H168201   1.426   1.477   4.967
22653WAT     H268202   1.345   1.569   5.076
22654WAT      O68203   7.150   4.382   2.182
22654WAT     H168204   7.072   4.435   2.151
22654WAT     H268205   7.228   4.397   2.121
22655WAT      O68206   3.946   2.128   6.121
22655WAT     H168207   4.001   2.152   6.201
22655WAT     H268208   3.873   2.196   6.109
22656WAT      O68209   3.593   7.699   1.145
22656WAT     H168210   3.537   7.671   1.223
22656WAT     H268211   3.603   7.623   1.082
22657WAT      O68212   7.068   5.922   1.284
22657WAT     H168213   7.122   5.997   1.324
22657WAT     H268214   7.123   5.875   1.216
22658WAT      O68215   6.165   1.021   9.623
22658WAT     H168216   6.075   0.992   9.656
22658WAT     H268217   6.213   0.942   9.585
22659WAT      O68218   3.461   3.130   9.152
22659WAT     H168219   3.516   3.120   9.069
22659WAT     H268220   3.445   3.227   9.170
22660WAT      O68221   0.484   6.148   4.329
22660WAT     H168222   0.468   6.180   4.236
22660WAT     H268223   0.522   6.055   4.327
22661WAT      O68224   0.257   0.994   5.548
22661WAT     H168225   0.176   0.972   5.493
22661WAT     H268226   0.251   1.088   5.580
22662WAT      O68227   1.914   6.730   4.129
22662WAT     H168228   1.976   6.680   4.069
22662WAT     H268229   1.917   6.690   4.221
22663WAT      O68230   1.236   4.304   8.488
22663WAT     H168231   1.264   4.388   8.441
22663WAT     H268232   1.146   4.276   8.455
22664WAT      O68233   2.812   8.939   4.850
22664WAT     H168234   2.743   8.974   4.788
22664WAT     H268235   2.769   8.875   4.915
22665WAT      O68236   7.473   6.816   4.967
22665WAT     H168237   7.509   6.861   5.049
22665WAT     H268238   7.442   6.885   4.902
22666WAT      O68239   4.019   7.153   6.052
22666WAT     H168240   4.105   7.153   6.101
22666WAT     H268241   4.036   7.167   5.954
22667WAT      O68242   6.686   6.663   6.262
22667WAT     H168243   6.739   6.747   6.275
22667WAT     H268244   6.720   6.615   6.181
22668WAT      O68245   7.224   6.841   3.335
22668WAT     H168246   7.278   6.886   3.264
22668WAT     H268247   7.139   6.892   3.350
22669WAT      O68248   7.792   4.484   3.740
22669WAT     H168249   7.793   4.387   3.761
22669WAT     H268250   7.866   4.530   3.789
22670WAT      O68251   1.541   4.471   0.578
22670WAT     H168252   1.598   4.453   0.498
22670WAT     H268253   1.599   4.473   0.660
22671WAT      O68254   8.625   5.924   1.811
22671WAT     H168255   8.626   5.884   1.903
22671WAT     H268256   8.604   5.852   1.744
22672WAT      O68257   7.095   5.020   0.529
22672WAT     H168258   7.116   5.086   0.457
22672WAT     H268259   7.103   5.065   0.618
22673WAT      O68260   0.651   3.688   0.350
22673WAT     H168261   0.591   3.639   0.412
22673WAT     H268262   0.728   3.630   0.324
22674WAT      O68263   5.003   0.924   1.866
22674WAT     H168264   5.066   0.882   1.932
22674WAT     H268265   5.003   0.871   1.781
22675WAT      O68266   5.519   7.912   3.385
22675WAT     H168267   5.441   7.874   3.435
22675WAT     H268268   5.538   8.004   3.420
22676WAT      O68269   6.792   9.827   9.579
22676WAT     H168270   6.806   9.829   9.480
22676WAT     H268271   6.756   9.915   9.610
22677WAT      O68272   5.305   8.790   6.573
22677WAT     H168273   5.401   8.782   6.598
22677WAT     H268274   5.297   8.831   6.482
22678WAT      O68275   3.218   6.624   8.275
22678WAT     H168276   3.202   6.716   8.239
22678WAT     H268277   3.317   6.607   8.278
22679WAT      O68278   0.743   7.056   9.590
22679WAT     H168279   0.790   6.981   9.636
22679WAT     H268280   0.810   7.108   9.535
22680WAT      O68281   9.848   7.938   2.329
22680WAT     H168282   9.875   7.863   2.389
22680WAT     H268283   9.815   7.900   2.242
22681WAT      O68284   1.279   2.738   7.185
22681WAT     H168285   1.364   2.690   7.164
22681WAT     H268286   1.208   2.708   7.121
22682WAT      O68287   6.981   8.344   5.002
22682WAT     H168288   6.890   8.312   4.975
22682WAT     H268289   7.050   8.286   4.960
22683WAT      O68290   9.373   0.795   3.240
22683WAT     H168291   9.312   0.867   3.275
22683WAT     H268292   9.456   0.837   3.203
22684WAT      O68293   9.228   5.930   8.818
22684WAT     H168294   9.145   5.880   8.793
22684WAT     H268295   9.215   5.975   8.906
22685WAT      O68296   8.664   0.333   0.977
22685WAT     H168297   8.566   0.335   0.960
22685WAT     H268298   8.682   0.352   1.074
22686WAT      O68299   7.913   4.113   8.282
22686WAT     H168300   7.942   4.180   8.351
22686WAT     H268301   7.813   4.103   8.286
22687WAT      O68302   7.744   3.956   4.356
22687WAT     H168303   7.745   3.912   4.265
22687WAT     H268304   7.834   3.943   4.399
22688WAT      O68305   1.804   9.241   9.167
22688WAT     H168306   1.724   9.203   9.121
22688WAT     H268307   1.780   9.261   9.262
22689WAT      O68308   1.913   8.333   3.861
22689WAT     H168309   1.912   8.337   3.961
22689WAT     H268310   1.882   8.242   3.832
22690WAT      O68311   1.744   2.088   3.532
22690WAT     H168312   1.644   2.088   3.537
22690WAT     H268313   1.781   2.074   3.624
22691WAT      O68314   2.242   8.934   4.163
22691WAT     H168315   2.269   8.997   4.090
22691WAT     H268316   2.323   8.907   4.215
22692WAT      O68317   7.669   3.563   5.102
22692WAT     H168318   7.673   3.515   5.189
22692WAT     H268319   7.762   3.585   5.071
22693WAT      O68320   5.493   1.952   2.221
22693WAT     H168321   5.554   1.937   2.143
22693WAT     H268322   5.422   2.017   2.195
22694WAT      O68323   9.403   4.254   5.042
22694WAT     H168324   9.376   4.341   5.001
22694WAT     H268325   9.329   4.220   5.100
22695WAT      O68326   1.012   0.837   0.359
22695WAT     H168327   1.025   0.894   0.441
22695WAT     H268328   0.924   0.859   0.317
22696WAT      O68329   8.622   6.716   1.319
22696WAT     H168330   8.709   6.669   1.303
22696WAT     H268331   8.560   6.699   1.243
22697WAT      O68332   4.751   6.272   6.080
22697WAT     H168333   4.678   6.309   6.137
22697WAT     H268334   4.817   6.223   6.138
22698WAT      O68335   3.309   4.429   7.155
22698WAT     H168336   3.300   4.373   7.073
22698WAT     H268337   3.386   4.397   7.210
22699WAT      O68338   1.018   0.575   0.488
22699WAT     H168339   1.034   0.671   0.464
22699WAT     H268340   0.944   0.538   0.432
22700WAT      O68341   4.785   6.707   1.439
22700WAT     H168342   4.687   6.697   1.428
22700WAT     H268343   4.831   6.621   1.415
22701WAT      O68344   8.971   1.260   0.438
22701WAT     H168345   9.016   1.286   0.352
22701WAT     H268346   9.005   1.317   0.512
22702WAT      O68347   3.033   0.849   2.535
22702WAT     H168348   2.970   0.807   2.599
22702WAT     H268349   2.982   0.898   2.464
22703WAT      O68350   7.400   8.438   2.473
22703WAT     H168351   7.312   8.398   2.447
22703WAT     H268352   7.407   8.531   2.438
22704WAT      O68353   3.162   2.815   4.193
22704WAT     H168354   3.212   2.899   4.213
22704WAT     H268355   3.149   2.807   4.094
22705WAT      O68356   0.647   4.509   9.674
22705WAT     H168357   0.625   4.420   9.715
22705WAT     H268358   0.683   4.496   9.582
22706WAT      O68359   0.116   6.823   8.983
22706WAT     H168360   0.210   6.787   8.986
22706WAT     H268361   0.052   6.753   9.014
22707WAT      O68362   2.894   3.273   4.585
22707WAT     H168363   2.918   3.188   4.632
22707WAT     H268364   2.877   3.345   4.653
22708WAT      O68365   8.899   9.272   8.537
22708WAT     H168366   8.926   9.341   8.603
22708WAT     H268367   8.835   9.312   8.470
22709WAT      O68368   2.512   4.297   0.542
22709WAT     H168369   2.505   4.374   0.479
22709WAT     H268370   2.528   4.331   0.635
22710WAT      O68371   8.899   8.427   3.268
22710WAT     H168372   8.926   8.460   3.177
22710WAT     H268373   8.951   8.476   3.338
22711WAT      O68374   8.364   2.422   5.406
22711WAT     H168375   8.426   2.395   5.333
22711WAT     H268376   8.284   2.467   5.367
22712WAT      O68377   6.629   4.961   8.484
22712WAT     H168378   6.545   4.926   8.443
22712WAT     H268379   6.641   4.922   8.575
22713WAT      O68380   5.551   0.057   2.551
22713WAT     H168381   5.567   0.111   2.634
22713WAT     H268382   5.528  -0.037   2.577
22714WAT      O68383   6.978   1.662   0.642
22714WAT     H168384   6.934   1.573   0.651
22714WAT     H268385   7.074   1.656   0.669
22715WAT      O68386   2.897   2.377   4.729
22715WAT     H168387   2.802   2.393   4.753
22715WAT     H268388   2.950   2.461   4.743
22716WAT      O68389   8.270   5.603   2.916
22716WAT     H168390   8.367   5.578   2.926
22716WAT     H268391   8.229   5.616   3.006
22717WAT      O68392   5.233   0.928   2.787
22717WAT     H168393   5.239   0.829   2.799
22717WAT     H268394   5.138   0.957   2.801
22718WAT      O68395   5.863   0.715   8.405
22718WAT     H168396   5.938   0.748   8.347
22718WAT     H268397   5.797   0.665   8.349
22719WAT      O68398   2.302   4.824   9.281
22719WAT     H168399   2.254   4.753   9.231
22719WAT     H268400   2.389   4.788   9.316
22720WAT      O68401   0.758   3.117   5.277
22720WAT     H168402   0.845   3.120   5.327
22720WAT     H268403   0.684   3.150   5.335
22721WAT      O68404   1.055   1.292   4.412
22721WAT     H168405   1.052   1.253   4.504
22721WAT     H268406   1.133   1.255   4.362
22722WAT      O68407   0.546   6.336   8.627
22722WAT     H168408   0.465   6.394   8.620
22722WAT     H268409   0.546   6.289   8.716
22723WAT      O68410   1.419   5.343   4.457
22723WAT     H168411   1.330   5.325   4.500
22723WAT     H268412   1.481   5.267   4.477
22724WAT      O68413   1.185   4.054   5.277
22724WAT     H168414   1.218   3.994   5.204
22724WAT     H268415   1.193   4.007   5.365
22725WAT      O68416   9.129   3.758   2.507
22725WAT     H168417   9.150   3.666   2.473
22725WAT     H268418   9.156   3.826   2.439
22726WAT      O68419   1.968   9.330   3.701
22726WAT     H168420   2.032   9.303   3.773
22726WAT     H268421   1.982   9.272   3.621
22727WAT      O68422   4.932   1.030   8.902
22727WAT     H168423   5.004   0.972   8.941
22727WAT     H268424   4.843   0.994   8.930
22728WAT      O68425   7.547   1.301   9.423
22728WAT     H168426   7.499   1.236   9.482
22728WAT     H268427   7.481   1.356   9.373
22729WAT      O68428   0.354   8.807   4.518
22729WAT     H168429   0.336   8.906   4.514
22729WAT     H268430   0.383   8.783   4.610
22730WAT      O68431   9.223   7.448   6.325
22730WAT     H168432   9.225   7.548   6.320
22730WAT     H268433   9.301   7.411   6.275
22731WAT      O68434   5.604   4.222   9.631
22731WAT     H168435   5.572   4.165   9.707
22731WAT     H268436   5.653   4.164   9.566
22732WAT      O68437   9.709   8.528   3.116
22732WAT     H168438   9.738   8.433   3.104
22732WAT     H268439   9.617   8.540   3.079
22733WAT      O68440   8.112   1.360   3.223
22733WAT     H168441   8.144   1.268   3.204
22733WAT     H268442   8.035   1.381   3.162
22734WAT      O68443   4.438   7.459   2.132
22734WAT     H168444   4.533   7.427   2.139
22734WAT     H268445   4.421   7.494   2.040
22735WAT      O68446   3.096   4.902   2.491
22735WAT     H168447   3.195   4.892   2.481
22735WAT     H268448   3.057   4.816   2.525
22736WAT      O68449   4.159   6.817   8.798
22736WAT     H168450   4.218   6.801   8.877
22736WAT     H268451   4.210   6.868   8.729
22737WAT      O68452   5.717   6.617   8.700
22737WAT     H168453   5.727   6.679   8.622
22737WAT     H268454   5.759   6.529   8.679
22738WAT      O68455   8.522   4.825   3.828
22738WAT     H168456   8.543   4.744   3.883
22738WAT     H268457   8.561   4.905   3.872
22739WAT      O68458   2.293   3.174   5.564
22739WAT     H168459   2.222   3.224   5.514
22739WAT     H268460   2.347   3.238   5.617
22740WAT      O68461   9.308   8.925   9.328
22740WAT     H168462   9.229   8.980   9.300
22740WAT     H268463   9.312   8.920   9.427
22741WAT      O68464   3.973   6.317   8.432
22741WAT     H168465   4.039   6.251   8.469
22741WAT     H268466   3.931   6.368   8.507
22742WAT      O68467   0.823   5.649   5.303
22742WAT     H168468   0.793   5.714   5.372
22742WAT     H268469   0.783   5.559   5.322
22743WAT      O68470   5.737   0.861   0.654
22743WAT     H168471   5.821   0.830   0.610
22743WAT     H268472   5.663   0.863   0.586
22744WAT      O68473   6.150   3.264   9.774
22744WAT     H168474   6.168   3.287   9.870
22744WAT     H268475   6.207   3.321   9.715
22745WAT      O68476   0.175   2.688   4.157
22745WAT     H168477   0.080   2.712   4.176
22745WAT     H268478   0.185   2.589   4.157
22746WAT      O68479   8.514   8.642   6.451
22746WAT     H168480   8.477   8.710   6.387
22746WAT     H268481   8.449   8.567   6.461
22747WAT      O68482   4.583   1.867   1.424
22747WAT     H168483   4.645   1.865   1.346
22747WAT     H268484   4.510   1.932   1.407
22748WAT      O68485   3.129   8.229   9.020
22748WAT     H168486   3.223   8.260   9.004
22748WAT     H268487   3.126   8.129   9.018
22749WAT      O68488   0.434   7.359   5.559
22749WAT     H168489   0.420   7.366   5.460
22749WAT     H268490   0.388   7.436   5.604
22750WAT      O68491   1.849   5.141   0.830
22750WAT     H168492   1.782   5.152   0.905
22750WAT     H268493   1.843   5.220   0.769
22751WAT      O68494   0.651   4.406   7.077
22751WAT     H168495   0.692   4.469   7.143
22751WAT     H268496   0.692   4.422   6.987
22752WAT      O68497   8.685   8.015   9.202
22752WAT     H168498   8.593   8.013   9.163
22752WAT     H268499   8.748   7.966   9.141
22753WAT      O68500   9.874   8.062   3.237
22753WAT     H168501   9.841   8.084   3.329
22753WAT     H268502   9.876   7.963   3.226
22754WAT      O68503   5.074   3.132   2.870
22754WAT     H168504   5.144   3.173   2.811
22754WAT     H268505   4.985   3.173   2.850
22755WAT      O68506   7.551   6.405   0.446
22755WAT     H168507   7.607   6.433   0.368
22755WAT     H268508   7.597   6.428   0.531
22756WAT      O68509   5.266   8.366   3.718
22756WAT     H168510   5.296   8.273   3.739
22756WAT     H268511   5.178   8.384   3.761
22757WAT      O68512   6.841   9.513   9.366
22757WAT     H168513   6.858   9.610   9.350
22757WAT     H268514   6.778   9.478   9.297
22758WAT      O68515   6.586   2.332   8.631
22758WAT     H168516   6.658   2.389   8.591
22758WAT     H268517   6.513   2.389   8.667
22759WAT      O68518   1.285   6.277   6.583
22759WAT     H168519   1.372   6.236   6.554
22759WAT     H268520   1.269   6.256   6.679
22760WAT      O68521   1.989   1.162   7.143
22760WAT     H168522   2.033   1.127   7.060
22760WAT     H268523   1.999   1.094   7.217
22761WAT      O68524   8.366   9.239   7.005
22761WAT     H168525   8.359   9.215   7.102
22761WAT     H268526   8.317   9.171   6.950
22762WAT      O68527   3.742   9.299   2.439
22762WAT     H168528   3.836   9.322   2.463
22762WAT     H268529   3.685   9.297   2.521
22763WAT      O68530   9.018   9.121   2.523
22763WAT     H168531   9.109   9.162   2.512
22763WAT     H268532   8.955   9.161   2.456
22764WAT      O68533   5.297   9.187   7.943
22764WAT     H168534   5.273   9.283   7.955
22764WAT     H268535   5.316   9.146   8.032
22765WAT      O68536   4.258   2.994   8.916
22765WAT     H168537   4.225   3.065   8.978
22765WAT     H268538   4.321   2.934   8.965
22766WAT      O68539   5.507   9.815   8.068
22766WAT     H168540   5.426   9.777   8.024
22766WAT     H268541   5.584   9.753   8.057
22767WAT      O68542   2.124   8.930   5.042
22767WAT     H168543   2.212   8.972   5.065
22767WAT     H268544   2.140   8.837   5.009
22768WAT      O68545   9.779   0.291   1.727
22768WAT     H168546   9.704   0.227   1.711
22768WAT     H268547   9.761   0.376   1.678
22769WAT      O68548   3.628   2.637   3.998
22769WAT     H168549   3.702   2.701   4.018
22769WAT     H268550   3.635   2.606   3.903
22770WAT      O68551   8.608   8.384   2.638
22770WAT     H168552   8.580   8.363   2.545
22770WAT     H268553   8.701   8.350   2.654
22771WAT      O68554   4.260   3.406   3.413
22771WAT     H168555   4.274   3.419   3.315
22771WAT     H268556   4.184   3.343   3.428
22772WAT      O68557   3.251   0.820   2.348
22772WAT     H168558   3.333   0.841   2.402
22772WAT     H268559   3.173   0.806   2.409
22773WAT      O68560   9.805   7.850   1.204
22773WAT     H168561   9.773   7.943   1.188
22773WAT     H268562   9.904   7.851   1.217
22774WAT      O68563   2.269   0.946   4.198
22774WAT     H168564   2.243   1.042   4.210
22774WAT     H268565   2.303   0.910   4.284
22775WAT      O68566   8.541   8.719   3.437
22775WAT     H168567   8.484   8.754   3.362
22775WAT     H268568   8.632   8.696   3.401
22776WAT      O68569   3.561   4.414   7.269
22776WAT     H168570   3.602   4.503   7.291
22776WAT     H268571   3.561   4.356   7.351
22777WAT      O68572   0.502   3.879   2.223
22777WAT     H168573   0.540   3.789   2.202
22777WAT     H268574   0.552   3.949   2.173
22778WAT      O68575   4.585   3.319   9.757
22778WAT     H168576   4.489   3.320   9.785
22778WAT     H268577   4.604   3.235   9.707
22779WAT      O68578   2.143   5.505   6.718
22779WAT     H168579   2.176   5.411   6.731
22779WAT     H268580   2.199   5.550   6.649
22780WAT      O68581   8.238   7.600   9.738
22780WAT     H168582   8.262   7.552   9.823
22780WAT     H268583   8.271   7.548   9.660
22781WAT      O68584   1.192   9.274   7.070
22781WAT     H168585   1.283   9.305   7.041
22781WAT     H268586   1.181   9.291   7.168
22782WAT      O68587   9.373   4.736   1.967
22782WAT     H168588   9.309   4.706   2.037
22782WAT     H268589   9.348   4.695   1.879
22783WAT      O68590   2.182   0.009   8.273
22783WAT     H168591   2.118  -0.051   8.227
22783WAT     H268592   2.154   0.021   8.368
22784WAT      O68593   7.225   6.577   8.358
22784WAT     H168594   7.142   6.570   8.302
22784WAT     H268595   7.214   6.523   8.441
22785WAT      O68596   9.077   1.230   6.478
22785WAT     H168597   9.042   1.275   6.560
22785WAT     H268598   9.132   1.150   6.504
22786WAT      O68599   7.847   3.477   3.937
22786WAT     H168600   7.754   3.503   3.911
22786WAT     H268601   7.870   3.519   4.025
22787WAT      O68602   9.445   1.862   1.274
22787WAT     H168603   9.517   1.866   1.343
22787WAT     H268604   9.433   1.953   1.233
22788WAT      O68605   2.128   3.639   5.807
22788WAT     H168606   2.051   3.618   5.867
22788WAT     H268607   2.135   3.739   5.796
22789WAT      O68608   3.412   1.515   6.140
22789WAT     H168609   3.336   1.451   6.130
22789WAT     H268610   3.493   1.479   6.093
22790WAT      O68611   2.553   8.282   1.801
22790WAT     H168612   2.570   8.338   1.882
22790WAT     H268613   2.613   8.202   1.803
22791WAT      O68614   8.959   4.626   3.307
22791WAT     H168615   8.864   4.655   3.312
22791WAT     H268616   8.997   4.652   3.218
22792WAT      O68617   1.248   0.217   2.112
22792WAT     H168618   1.223   0.136   2.059
22792WAT     H268619   1.324   0.264   2.067
22793WAT      O68620   6.866   9.526   6.749
22793WAT     H168621   6.813   9.449   6.785
22793WAT     H268622   6.810   9.579   6.685
22794WAT      O68623   8.893   2.823   4.866
22794WAT     H168624   8.970   2.760   4.878
22794WAT     H268625   8.821   2.801   4.932
22795WAT      O68626   1.017   3.745   0.056
22795WAT     H168627   1.098   3.692   0.083
22795WAT     H268628   0.980   3.792   0.135
22796WAT      O68629   8.275   8.100   0.147
22796WAT     H168630   8.188   8.052   0.129
22796WAT     H268631   8.275   8.135   0.240
22797WAT      O68632   8.374   7.160   8.312
22797WAT     H168633   8.464   7.143   8.352
22797WAT     H268634   8.303   7.137   8.379
22798WAT      O68635   4.043   1.216   7.586
22798WAT     H168636   3.999   1.258   7.665
22798WAT     H268637   4.084   1.128   7.613
22799WAT      O68638   8.239   1.724   1.766
22799WAT     H168639   8.234   1.628   1.741
22799WAT     H268640   8.321   1.765   1.726
22800WAT      O68641   0.844   8.294   5.121
22800WAT     H168642   0.910   8.257   5.186
22800WAT     H268643   0.809   8.221   5.063
22801WAT      O68644   7.560   8.290   5.459
22801WAT     H168645   7.585   8.230   5.535
22801WAT     H268646   7.634   8.355   5.442
22802WAT      O68647   9.386   4.218   5.414
22802WAT     H168648   9.364   4.195   5.509
22802WAT     H268649   9.381   4.135   5.358
22803WAT      O68650   8.172   4.868   7.765
22803WAT     H168651   8.096   4.894   7.705
22803WAT     H268652   8.258   4.877   7.715
22804WAT      O68653   4.216   9.161   0.912
22804WAT     H168654   4.267   9.175   0.827
22804WAT     H268655   4.186   9.066   0.917
22805WAT      O68656   2.807   9.409   4.338
22805WAT     H168657   2.879   9.398   4.270
22805WAT     H268658   2.841   9.464   4.414
22806WAT      O68659   4.194   2.146   2.469
22806WAT     H168660   4.097   2.120   2.471
22806WAT     H268661   4.215   2.191   2.382
22807WAT      O68662   9.238   9.632   1.751
22807WAT     H168663   9.324   9.582   1.745
22807WAT     H268664   9.164   9.573   1.718
22808WAT      O68665   1.257   2.944   7.496
22808WAT     H168666   1.290   2.961   7.403
22808WAT     H268667   1.165   2.907   7.492
22809WAT      O68668   5.200   6.560   0.185
22809WAT     H168669   5.280   6.575   0.126
22809WAT     H268670   5.123   6.531   0.129
22810WAT      O68671   1.700   1.775   8.077
22810WAT     H168672   1.626   1.828   8.120
22810WAT     H268673   1.661   1.692   8.036
22811WAT      O68674   0.997   1.026   0.571
22811WAT     H168675   0.980   1.122   0.550
22811WAT     H268676   0.943   0.999   0.651
22812WAT      O68677   1.357   5.936   6.590
22812WAT     H168678   1.436   5.995   6.574
22812WAT     H268679   1.388   5.845   6.618
22813WAT      O68680   7.425   5.104   3.804
22813WAT     H168681   7.453   5.025   3.749
22813WAT     H268682   7.372   5.167   3.747
22814WAT      O68683   6.489   9.078   8.820
22814WAT     H168684   6.524   9.148   8.758
22814WAT     H268685   6.565   9.030   8.863
22815WAT      O68686   2.310   8.211   8.253
22815WAT     H168687   2.245   8.176   8.320
22815WAT     H268688   2.303   8.157   8.169
22816WAT      O68689   4.001   8.230   8.307
22816WAT     H168690   4.089   8.247   8.263
22816WAT     H268691   4.015   8.178   8.391
22817WAT      O68692   4.218   7.746   3.437
22817WAT     H168693   4.146   7.698   3.486
22817WAT     H268694   4.233   7.836   3.479
22818WAT      O68695   8.518   5.701   6.565
22818WAT     H168696   8.531   5.765   6.489
22818WAT     H268697   8.601   5.699   6.622
22819WAT      O68698   5.158   7.257   9.553
22819WAT     H168699   5.253   7.266   9.523
22819WAT     H268700   5.099   7.311   9.492
22820WAT      O68701   3.857   5.024   6.542
22820WAT     H168702   3.908   4.940   6.558
22820WAT     H268703   3.830   5.028   6.446
22821WAT      O68704   7.573   8.455   9.504
22821WAT     H168705   7.653   8.503   9.468
22821WAT     H268706   7.551   8.490   9.595
22822WAT      O68707   2.421   6.874   5.207
22822WAT     H168708   2.333   6.868   5.161
22822WAT     H268709   2.462   6.783   5.212
22823WAT      O68710   8.438   5.712   3.381
22823WAT     H168711   8.459   5.807   3.406
22823WAT     H268712   8.441   5.655   3.463
22824WAT      O68713   6.563   6.320   0.494
22824WAT     H168714   6.650   6.273   0.512
22824WAT     H268715   6.560   6.404   0.548
22825WAT      O68716   7.144   4.134   7.044
22825WAT     H168717   7.228   4.183   7.065
22825WAT     H268718   7.144   4.107   6.948
22826WAT      O68719   5.185   2.060   6.207
22826WAT     H168720   5.246   2.045   6.129
22826WAT     H268721   5.159   1.971   6.246
22827WAT      O68722   8.594   7.757   8.886
22827WAT     H168723   8.567   7.852   8.896
22827WAT     H268724   8.680   7.751   8.836
22828WAT      O68725   9.300   0.757   3.886
22828WAT     H168726   9.337   0.751   3.979
22828WAT     H268727   9.324   0.674   3.835
22829WAT      O68728   6.840   1.021   3.518
22829WAT     H168729   6.810   1.019   3.423
22829WAT     H268730   6.814   0.936   3.563
22830WAT      O68731   9.682   1.778   9.473
22830WAT     H168732   9.591   1.819   9.468
22830WAT     H268733   9.741   1.820   9.403
22831WAT      O68734   4.772   8.290   4.679
22831WAT     H168735   4.847   8.325   4.736
22831WAT     H268736   4.703   8.362   4.668
22832WAT      O68737   0.267   6.953   7.346
22832WAT     H168738   0.330   6.908   7.283
22832WAT     H268739   0.315   6.973   7.432
22833WAT      O68740   2.886   6.969   3.550
22833WAT     H168741   2.849   7.034   3.617
22833WAT     H268742   2.985   6.961   3.562
22834WAT      O68743   7.127   4.712   6.628
22834WAT     H168744   7.111   4.721   6.529
22834WAT     H268745   7.201   4.774   6.655
22835WAT      O68746   2.807   4.432   2.911
22835WAT     H168747   2.709   4.447   2.921
22835WAT     H268748   2.828   4.334   2.919
22836WAT      O68749   8.688   9.107   3.771
22836WAT     H168750   8.614   9.146   3.826
22836WAT     H268751   8.651   9.036   3.711
22837WAT      O68752   8.575   5.803   0.507
22837WAT     H168753   8.623   5.847   0.431
22837WAT     H268754   8.476   5.815   0.496
22838WAT      O68755   6.312   1.369   1.812
22838WAT     H168756   6.281   1.463   1.823
22838WAT     H268757   6.378   1.365   1.737
22839WAT      O68758   0.134   6.046   7.397
22839WAT     H168759   0.074   5.969   7.374
22839WAT     H268760   0.167   6.035   7.491
22840WAT      O68761   4.481   1.716   2.035
22840WAT     H168762   4.528   1.656   2.099
22840WAT     H268763   4.549   1.774   1.988
22841WAT      O68764   9.226   1.245   4.354
22841WAT     H168765   9.168   1.270   4.431
22841WAT     H268766   9.170   1.208   4.280
22842WAT      O68767   9.488   3.005   2.225
22842WAT     H168768   9.419   3.025   2.295
22842WAT     H268769   9.511   2.908   2.227
22843WAT      O68770   6.168   0.848   1.398
22843WAT     H168771   6.245   0.834   1.336
22843WAT     H268772   6.114   0.926   1.366
22844WAT      O68773   4.721   6.192   8.113
22844WAT     H168774   4.654   6.136   8.065
22844WAT     H268775   4.721   6.285   8.075
22845WAT      O68776   4.118   7.888   8.159
22845WAT     H168777   4.152   7.965   8.104
22845WAT     H268778   4.161   7.891   8.250
22846WAT      O68779   2.125   7.442   8.649
22846WAT     H168780   2.148   7.346   8.632
22846WAT     H268781   2.102   7.487   8.563
22847WAT      O68782   9.478   5.867   3.326
22847WAT     H168783   9.514   5.855   3.418
22847WAT     H268784   9.550   5.902   3.266
22848WAT      O68785   3.401   2.924   5.854
22848WAT     H168786   3.396   2.989   5.930
22848WAT     H268787   3.374   2.834   5.886
22849WAT      O68788   5.066   3.371   6.599
22849WAT     H168789   4.993   3.417   6.648
22849WAT     H268790   5.146   3.431   6.592
22850WAT      O68791   9.185   4.661   9.228
22850WAT     H168792   9.230   4.620   9.308
22850WAT     H268793   9.207   4.759   9.225
22851WAT      O68794   6.511   5.361   7.205
22851WAT     H168795   6.562   5.421   7.144
22851WAT     H268796   6.471   5.415   7.279
22852WAT      O68797   1.638   3.611   5.417
22852WAT     H168798   1.674   3.696   5.379
22852WAT     H268799   1.626   3.545   5.343
22853WAT      O68800   1.585   0.369   9.131
22853WAT     H168801   1.643   0.443   9.097
22853WAT     H268802   1.563   0.386   9.227
22854WAT      O68803   1.086   0.765   9.217
22854WAT     H168804   1.147   0.813   9.280
22854WAT     H268805   1.029   0.831   9.169
22855WAT      O68806   4.045   6.534   4.519
22855WAT     H168807   3.977   6.527   4.445
22855WAT     H268808   4.110   6.607   4.499
22856WAT      O68809   6.116   5.482   7.367
22856WAT     H168810   6.097   5.386   7.344
22856WAT     H268811   6.206   5.507   7.332
22857WAT      O68812   9.796   9.447   5.694
22857WAT     H168813   9.776   9.360   5.650
22857WAT     H268814   9.823   9.432   5.789
22858WAT      O68815   0.077   3.655   5.890
22858WAT     H168816   0.049   3.616   5.803
22858WAT     H268817   0.146   3.726   5.875
22859WAT      O68818   1.216   8.387   7.014
22859WAT     H168819   1.200   8.480   6.980
22859WAT     H268820   1.257   8.332   6.942
22860WAT      O68821   7.804   5.393   8.837
22860WAT     H168822   7.902   5.373   8.838
22860WAT     H268823   7.776   5.422   8.928
22861WAT      O68824   6.691   1.722   2.644
22861WAT     H168825   6.723   1.817   2.650
22861WAT     H268826   6.602   1.721   2.599
22862WAT      O68827   7.655   3.889   2.175
22862WAT     H168828   7.559   3.864   2.183
22862WAT     H268829   7.663   3.988   2.161
22863WAT      O68830   1.365   5.608   3.846
22863WAT     H168831   1.268   5.620   3.870
22863WAT     H268832   1.374   5.536   3.777
22864WAT      O68833   1.352   1.687   5.207
22864WAT     H168834   1.258   1.709   5.234
22864WAT     H268835   1.414   1.708   5.282
22865WAT      O68836   8.762   0.281   6.784
22865WAT     H168837   8.715   0.205   6.738
22865WAT     H268838   8.717   0.367   6.759
22866WAT      O68839   1.697   3.075   9.575
22866WAT     H168840   1.602   3.090   9.547
22866WAT     H268841   1.754   3.060   9.494
22867WAT      O68842   4.141   0.532   9.746
22867WAT     H168843   4.175   0.578   9.664
22867WAT     H268844   4.104   0.442   9.721
22868WAT      O68845   5.609   8.177   5.978
22868WAT     H168846   5.596   8.085   5.942
22868WAT     H268847   5.706   8.203   5.969
22869WAT      O68848   1.076   0.239   5.871
22869WAT     H168849   1.169   0.268   5.892
22869WAT     H268850   1.075   0.188   5.785
22870WAT      O68851   7.240   9.287   2.168
22870WAT     H168852   7.254   9.237   2.253
22870WAT     H268853   7.170   9.240   2.113
22871WAT      O68854   2.578   5.225   2.107
22871WAT     H168855   2.495   5.173   2.085
22871WAT     H268856   2.639   5.167   2.162
22872WAT      O68857   5.506   2.141   7.347
22872WAT     H168858   5.459   2.181   7.268
22872WAT     H268859   5.451   2.065   7.383
22873WAT      O68860   8.626   1.423   4.630
22873WAT     H168861   8.526   1.415   4.626
22873WAT     H268862   8.655   1.434   4.725
22874WAT      O68863   3.685   7.347   4.507
22874WAT     H168864   3.603   7.398   4.535
22874WAT     H268865   3.667   7.299   4.421
22875WAT      O68866   1.346   8.997   6.958
22875WAT     H168867   1.285   8.968   7.032
22875WAT     H268868   1.293   9.015   6.876
22876WAT      O68869   9.437   2.705   5.605
22876WAT     H168870   9.495   2.784   5.585
22876WAT     H268871   9.495   2.626   5.628
22877WAT      O68872   7.304   1.332   6.675
22877WAT     H168873   7.370   1.257   6.670
22877WAT     H268874   7.318   1.382   6.760
22878WAT      O68875   3.319   7.707   8.913
22878WAT     H168876   3.397   7.646   8.930
22878WAT     H268877   3.247   7.656   8.867
22879WAT      O68878   1.390   0.751   0.649
22879WAT     H168879   1.490   0.759   0.648
22879WAT     H268880   1.350   0.834   0.608
22880WAT      O68881   5.167   0.304   2.383
22880WAT     H168882   5.109   0.228   2.354
22880WAT     H268883   5.262   0.273   2.388
22881WAT      O68884   9.320   4.347   6.196
22881WAT     H168885   9.296   4.292   6.276
22881WAT     H268886   9.381   4.421   6.224
22882WAT      O68887   3.832   5.300   3.172
22882WAT     H168888   3.889   5.381   3.175
22882WAT     H268889   3.809   5.272   3.266
22883WAT      O68890   0.496   3.020   0.286
22883WAT     H168891   0.430   2.948   0.311
22883WAT     H268892   0.494   3.033   0.187
22884WAT      O68893   5.534   4.983   0.528
22884WAT     H168894   5.487   4.895   0.521
22884WAT     H268895   5.508   5.040   0.450
22885WAT      O68896   4.417   4.374   9.807
22885WAT     H168897   4.418   4.468   9.773
22885WAT     H268898   4.461   4.314   9.739
22886WAT      O68899   8.019   5.116   2.139
22886WAT     H168900   7.990   5.178   2.212
22886WAT     H268901   7.939   5.066   2.105
22887WAT      O68902   4.316   4.799   5.675
22887WAT     H168903   4.382   4.863   5.716
22887WAT     H268904   4.240   4.850   5.636
22888WAT      O68905   2.908   1.781   4.069
22888WAT     H168906   2.850   1.805   3.991
22888WAT     H268907   2.955   1.863   4.102
22889WAT      O68908   2.459   5.910   7.297
22889WAT     H168909   2.552   5.886   7.323
22889WAT     H268910   2.461   5.968   7.215
22890WAT      O68911   7.668   6.297   3.787
22890WAT     H168912   7.722   6.262   3.863
22890WAT     H268913   7.625   6.220   3.738
22891WAT      O68914   1.307   9.388   3.504
22891WAT     H168915   1.243   9.455   3.466
22891WAT     H268916   1.363   9.431   3.575
22892WAT      O68917   6.997   0.881   5.354
22892WAT     H168918   7.079   0.825   5.340
22892WAT     H268919   6.916   0.827   5.333
22893WAT      O68920   7.373   3.907   2.154
22893WAT     H168921   7.367   3.985   2.092
22893WAT     H268922   7.317   3.924   2.235
22894WAT      O68923   0.967   4.332   4.396
22894WAT     H168924   0.942   4.314   4.301
22894WAT     H268925   1.063   4.310   4.410
22895WAT      O68926   0.609   3.509   9.022
22895WAT     H168927   0.670   3.452   8.965
22895WAT     H268928   0.556   3.569   8.963
22896WAT      O68929   1.092   3.064   1.597
22896WAT     H168930   1.146   2.982   1.615
22896WAT     H268931   1.063   3.106   1.683
22897WAT      O68932   0.926   7.984   2.797
22897WAT     H168933   0.965   8.058   2.741
22897WAT     H268934   0.952   7.896   2.758
22898WAT      O68935   0.362   4.878   7.146
22898WAT     H168936   0.443   4.878   7.086
22898WAT     H268937   0.294   4.815   7.109
22899WAT      O68938   0.347   3.300   7.997
22899WAT     H168939   0.419   3.231   7.985
22899WAT     H268940   0.322   3.338   7.908
22900WAT      O68941   9.276   4.276   0.208
22900WAT     H168942   9.288   4.275   0.307
22900WAT     H268943   9.181   4.255   0.185
22901WAT      O68944   4.438   9.673   6.712
22901WAT     H168945   4.401   9.625   6.791
22901WAT     H268946   4.365   9.722   6.665
22902WAT      O68947   0.346   0.583   6.388
22902WAT     H168948   0.292   0.545   6.463
22902WAT     H268949   0.285   0.610   6.314
22903WAT      O68950   5.443   5.434   4.564
22903WAT     H168951   5.344   5.443   4.559
22903WAT     H268952   5.468   5.385   4.647
22904WAT      O68953   6.612   2.246   2.263
22904WAT     H168954   6.694   2.234   2.207
22904WAT     H268955   6.590   2.160   2.308
22905WAT      O68956   3.672   7.275   1.623
22905WAT     H168957   3.655   7.373   1.621
22905WAT     H268958   3.612   7.232   1.691
22906WAT      O68959   8.438   4.517   3.944
22906WAT     H168960   8.374   4.479   4.011
22906WAT     H268961   8.528   4.475   3.956
22907WAT      O68962   9.284   3.368   0.865
22907WAT     H168963   9.278   3.464   0.837
22907WAT     H268964   9.192   3.334   0.886
22908WAT      O68965   3.182   6.050   6.657
22908WAT     H168966   3.264   6.098   6.688
22908WAT     H268967   3.183   5.956   6.692
22909WAT      O68968   2.388   4.958   1.920
22909WAT     H168969   2.348   5.034   1.971
22909WAT     H268970   2.316   4.910   1.871
22910WAT      O68971   8.825   1.628   2.953
22910WAT     H168972   8.769   1.545   2.951
22910WAT     H268973   8.826   1.664   3.046
22911WAT      O68974   5.859   0.247   6.437
22911WAT     H168975   5.913   0.226   6.519
22911WAT     H268976   5.821   0.339   6.445
22912WAT      O68977   4.771   0.282   4.581
22912WAT     H168978   4.733   0.194   4.611
22912WAT     H268979   4.838   0.314   4.648
22913WAT      O68980   6.304   6.402   4.668
22913WAT     H168981   6.256   6.473   4.617
22913WAT     H268982   6.289   6.416   4.766
22914WAT      O68983   5.739   3.214   5.547
22914WAT     H168984   5.801   3.169   5.482
22914WAT     H268985   5.748   3.313   5.539
22915WAT      O68986   4.396   5.949   2.263
22915WAT     H168987   4.425   6.044   2.276
22915WAT     H268988   4.375   5.933   2.167
22916WAT      O68989   7.004   3.940   2.093
22916WAT     H168990   6.967   3.912   2.181
22916WAT     H268991   7.075   4.009   2.107
22917WAT      O68992   9.336   0.378   5.946
22917WAT     H168993   9.348   0.435   6.027
22917WAT     H268994   9.330   0.436   5.865
22918WAT      O68995   1.593   6.312   3.045
22918WAT     H168996   1.560   6.321   2.951
22918WAT     H268997   1.590   6.401   3.090
22919WAT      O68998   3.919   3.546   7.511
22919WAT     H168999   3.899   3.451   7.537
22919WAT     H269000   4.005   3.549   7.459
22920WAT      O69001   1.001   1.764   0.996
22920WAT     H169002   1.071   1.833   1.012
22920WAT     H269003   1.043   1.673   1.000
22921WAT      O69004   0.301   8.915   4.016
22921WAT     H169005   0.328   8.917   3.920
22921WAT     H269006   0.375   8.951   4.073
22922WAT      O69007   3.388   7.954   4.911
22922WAT     H169008   3.440   7.872   4.886
22922WAT     H269009   3.292   7.929   4.926
22923WAT      O69010   9.716   5.338   8.652
22923WAT     H169011   9.673   5.315   8.565
22923WAT     H269012   9.815   5.325   8.645
22924WAT      O69013   1.709   0.376   8.793
22924WAT     H169014   1.632   0.325   8.831
22924WAT     H269015   1.676   0.436   8.721
22925WAT      O69016   1.525   4.173   5.463
22925WAT     H169017   1.520   4.143   5.367
22925WAT     H269018   1.554   4.096   5.520
22926WAT      O69019   8.014   2.873   7.945
22926WAT     H169020   8.039   2.833   7.857
22926WAT     H269021   7.997   2.799   8.011
22927WAT      O69022   2.483   0.578   6.533
22927WAT     H169023   2.541   0.563   6.453
22927WAT     H269024   2.535   0.561   6.616
22928WAT      O69025   7.967   4.475   2.882
22928WAT     H169026   7.885   4.437   2.924
22928WAT     H269027   8.000   4.552   2.937
22929WAT      O69028   6.912   8.015   3.641
22929WAT     H169029   6.875   8.103   3.672
22929WAT     H269030   6.914   8.013   3.541
22930WAT      O69031   2.198   3.536   0.953
22930WAT     H169032   2.171   3.613   1.010
22930WAT     H269033   2.272   3.563   0.892
22931WAT      O69034   9.461   0.051   4.490
22931WAT     H169035   9.366   0.046   4.521
22931WAT     H269036   9.517   0.095   4.560
22932WAT      O69037   5.006   1.677   5.640
22932WAT     H169038   4.965   1.634   5.559
22932WAT     H269039   4.956   1.649   5.721
22933WAT      O69040   5.850   5.494   1.004
22933WAT     H169041   5.761   5.527   0.973
22933WAT     H269042   5.839   5.446   1.092
22934WAT      O69043   3.198   3.192   6.912
22934WAT     H169044   3.265   3.266   6.911
22934WAT     H269045   3.170   3.174   7.007
22935WAT      O69046   6.763   1.560   2.311
22935WAT     H169047   6.754   1.644   2.257
22935WAT     H269048   6.799   1.582   2.402
22936WAT      O69049   4.240   1.708   2.954
22936WAT     H169050   4.262   1.749   2.866
22936WAT     H269051   4.140   1.704   2.965
22937WAT      O69052   1.300   9.005   0.075
22937WAT     H169053   1.305   8.929   0.011
22937WAT     H269054   1.204   9.027   0.094
22938WAT      O69055   3.955   5.061   0.586
22938WAT     H169056   4.053   5.046   0.603
22938WAT     H269057   3.944   5.141   0.527
22939WAT      O69058   9.082   0.925   4.395
22939WAT     H169059   9.009   0.890   4.337
22939WAT     H269060   9.136   0.992   4.343
22940WAT      O69061   9.564   9.021   1.433
22940WAT     H169062   9.629   9.094   1.411
22940WAT     H269063   9.505   9.051   1.508
22941WAT      O69064   9.683   6.817   0.198
22941WAT     H169065   9.646   6.765   0.120
22941WAT     H269066   9.747   6.759   0.248
22942WAT      O69067   5.127   8.867   9.052
22942WAT     H169068   5.061   8.905   8.987
22942WAT     H269069   5.185   8.801   9.004
22943WAT      O69070   1.319   2.338   0.993
22943WAT     H169071   1.339   2.412   1.056
22943WAT     H269072   1.398   2.322   0.933
22944WAT      O69073   8.622   8.673   3.838
22944WAT     H169074   8.663   8.715   3.919
22944WAT     H269075   8.694   8.632   3.782
22945WAT      O69076   3.064   5.917   6.360
22945WAT     H169077   3.123   5.982   6.406
22945WAT     H269078   2.969   5.933   6.386
22946WAT      O69079   5.948   5.555   2.685
22946WAT     H169080   6.013   5.606   2.741
22946WAT     H269081   5.907   5.616   2.617
22947WAT      O69082   2.296   5.165   5.635
22947WAT     H169083   2.241   5.109   5.697
22947WAT     H269084   2.261   5.157   5.542
22948WAT      O69085   4.577   9.144   3.427
22948WAT     H169086   4.655   9.110   3.479
22948WAT     H269087   4.610   9.200   3.351
22949WAT      O69088   8.897   8.760   4.992
22949WAT     H169089   8.841   8.838   5.019
22949WAT     H269090   8.863   8.723   4.905
22950WAT      O69091   3.131   7.335   6.362
22950WAT     H169092   3.140   7.424   6.407
22950WAT     H269093   3.046   7.291   6.391
22951WAT      O69094   6.037   4.249   3.504
22951WAT     H169095   6.119   4.196   3.526
22951WAT     H269096   6.053   4.345   3.522
22952WAT      O69097   1.642   5.602   4.219
22952WAT     H169098   1.612   5.640   4.132
22952WAT     H269099   1.565   5.601   4.284
22953WAT      O69100   9.292   3.307   9.457
22953WAT     H169101   9.312   3.268   9.547
22953WAT     H269102   9.334   3.397   9.449
22954WAT      O69103   4.964   5.138   6.412
22954WAT     H169104   4.971   5.133   6.312
22954WAT     H269105   4.989   5.231   6.441
22955WAT      O69106   7.796   9.753   5.980
22955WAT     H169107   7.808   9.782   6.075
22955WAT     H269108   7.798   9.653   5.975
22956WAT      O69109   4.341   1.939   3.914
22956WAT     H169110   4.413   1.974   3.854
22956WAT     H269111   4.382   1.898   3.995
22957WAT      O69112   0.262   2.547   9.467
22957WAT     H169113   0.314   2.463   9.484
22957WAT     H269114   0.186   2.552   9.531
22958WAT      O69115   5.756   7.495   1.544
22958WAT     H169116   5.733   7.592   1.551
22958WAT     H269117   5.765   7.469   1.448
22959WAT      O69118   9.282   8.193   8.455
22959WAT     H169119   9.322   8.126   8.393
22959WAT     H269120   9.281   8.283   8.411
22960WAT      O69121   3.990   2.425   2.305
22960WAT     H169122   4.007   2.501   2.367
22960WAT     H269123   3.926   2.454   2.234
22961WAT      O69124   4.542   2.288   7.234
22961WAT     H169125   4.500   2.313   7.321
22961WAT     H269126   4.471   2.273   7.165
22962WAT      O69127   6.229   2.175   5.764
22962WAT     H169128   6.147   2.145   5.716
22962WAT     H269129   6.204   2.218   5.850
22963WAT      O69130   4.846   2.460   8.879
22963WAT     H169131   4.793   2.540   8.851
22963WAT     H269132   4.787   2.396   8.928
22964WAT      O69133   2.839   7.829   7.389
22964WAT     H169134   2.925   7.879   7.384
22964WAT     H269135   2.765   7.886   7.353
22965WAT      O69136   5.916   7.844   0.075
22965WAT     H169137   6.004   7.877   0.041
22965WAT     H269138   5.843   7.880   0.017
22966WAT      O69139   0.517   8.318   2.865
22966WAT     H169140   0.592   8.365   2.912
22966WAT     H269141   0.436   8.377   2.864
22967WAT      O69142   2.414   3.643   9.401
22967WAT     H169143   2.482   3.701   9.357
22967WAT     H269144   2.394   3.564   9.342
22968WAT      O69145   2.539   6.001   2.503
22968WAT     H169146   2.498   6.079   2.550
22968WAT     H269147   2.511   5.916   2.549
22969WAT      O69148   1.295   3.632   6.390
22969WAT     H169149   1.305   3.667   6.297
22969WAT     H269150   1.284   3.533   6.388
22970WAT      O69151   7.943   8.902   7.739
22970WAT     H169152   7.896   8.814   7.747
22970WAT     H269153   7.885   8.967   7.690
22971WAT      O69154   6.015   9.813   1.539
22971WAT     H169155   6.078   9.758   1.594
22971WAT     H269156   6.058   9.835   1.452
22972WAT      O69157   6.991   9.593   6.312
22972WAT     H169158   7.033   9.587   6.221
22972WAT     H269159   6.997   9.504   6.357
22973WAT      O69160   3.567   7.178   3.505
22973WAT     H169161   3.641   7.211   3.446
22973WAT     H269162   3.552   7.243   3.579
22974WAT      O69163   9.424   3.316   7.256
22974WAT     H169164   9.456   3.364   7.175
22974WAT     H269165   9.324   3.322   7.262
22975WAT      O69166   4.555   2.888   3.106
22975WAT     H169167   4.537   2.905   3.010
22975WAT     H269168   4.473   2.908   3.160
22976WAT      O69169   0.193   9.697   7.397
22976WAT     H169170   0.257   9.649   7.338
22976WAT     H269171   0.138   9.760   7.342
22977WAT      O69172   3.013   5.572   7.226
22977WAT     H169173   3.093   5.530   7.184
22977WAT     H269174   3.038   5.660   7.267
22978WAT      O69175   1.981   3.363   8.706
22978WAT     H169176   2.070   3.368   8.660
22978WAT     H269177   1.913   3.323   8.645
22979WAT      O69178   2.338   9.310   9.711
22979WAT     H169179   2.294   9.335   9.797
22979WAT     H269180   2.417   9.369   9.696
22980WAT      O69181   9.651   0.555   6.288
22980WAT     H169182   9.604   0.543   6.376
22980WAT     H269183   9.713   0.478   6.273
22981WAT      O69184   1.310   2.998   6.590
22981WAT     H169185   1.328   2.992   6.492
22981WAT     H269186   1.309   3.094   6.617
22982WAT      O69187   6.567   4.601   3.206
22982WAT     H169188   6.577   4.646   3.117
22982WAT     H269189   6.656   4.564   3.235
22983WAT      O69190   9.779   6.337   3.406
22983WAT     H169191   9.865   6.308   3.448
22983WAT     H269192   9.712   6.263   3.412
22984WAT      O69193   4.931   1.600   1.599
22984WAT     H169194   4.846   1.634   1.639
22984WAT     H269195   4.965   1.524   1.653
22985WAT      O69196   5.359   9.003   2.565
22985WAT     H169197   5.415   9.084   2.580
22985WAT     H269198   5.276   9.029   2.515
22986WAT      O69199   6.983   3.953   0.786
22986WAT     H169200   7.064   4.011   0.780
22986WAT     H269201   6.917   3.994   0.848
22987WAT      O69202   2.411   9.239   9.342
22987WAT     H169203   2.351   9.313   9.371
22987WAT     H269204   2.503   9.252   9.380
22988WAT      O69205   6.818   2.249   2.105
22988WAT     H169206   6.761   2.267   2.025
22988WAT     H269207   6.914   2.244   2.077
22989WAT      O69208   4.802   4.068   2.137
22989WAT     H169209   4.850   4.007   2.074
22989WAT     H269210   4.868   4.112   2.198
22990WAT      O69211   5.355   1.327   6.466
22990WAT     H169212   5.397   1.328   6.556
22990WAT     H269213   5.379   1.242   6.419
22991WAT      O69214   6.226   9.012   4.492
22991WAT     H169215   6.192   8.921   4.515
22991WAT     H269216   6.325   9.006   4.476
22992WAT      O69217   1.754   7.776   4.025
22992WAT     H169218   1.828   7.842   4.027
22992WAT     H269219   1.683   7.804   4.090
22993WAT      O69220   0.889   4.990   0.948
22993WAT     H169221   0.845   5.051   0.882
22993WAT     H269222   0.915   5.043   1.029
22994WAT      O69223   6.241   3.805   9.430
22994WAT     H169224   6.216   3.892   9.388
22994WAT     H269225   6.336   3.809   9.461
22995WAT      O69226   5.213   0.844   6.855
22995WAT     H169227   5.263   0.866   6.771
22995WAT     H269228   5.263   0.879   6.934
22996WAT      O69229   3.160   8.756   1.701
22996WAT     H169230   3.109   8.757   1.787
22996WAT     H269231   3.097   8.738   1.625
22997WAT      O69232   8.704   8.760   0.196
22997WAT     H169233   8.675   8.693   0.264
22997WAT     H269234   8.704   8.851   0.238
22998WAT      O69235   4.430   5.969   7.826
22998WAT     H169236   4.447   5.905   7.751
22998WAT     H269237   4.382   6.049   7.791
22999WAT      O69238   1.136   3.879   0.441
22999WAT     H169239   1.173   3.788   0.460
22999WAT     H269240   1.097   3.917   0.525
23000WAT      O69241   6.424   1.664   1.230
23000WAT     H169242   6.480   1.741   1.263
23000WAT     H269243   6.372   1.626   1.306
23001WAT      O69244   5.472   8.871   8.758
23001WAT     H169245   5.396   8.811   8.786
23001WAT     H269246   5.437   8.964   8.745
23002WAT      O69247   1.226   4.306   2.358
23002WAT     H169248   1.126   4.300   2.364
23002WAT     H269249   1.252   4.366   2.283
23003WAT      O69250   5.389   0.556   5.885
23003WAT     H169251   5.300   0.557   5.840
23003WAT     H269252   5.445   0.632   5.851
23004WAT      O69253   5.806   2.620   8.467
23004WAT     H169254   5.821   2.613   8.368
23004WAT     H269255   5.833   2.535   8.511
23005WAT      O69256   3.468   4.209   9.163
23005WAT     H169257   3.391   4.260   9.123
23005WAT     H269258   3.444   4.112   9.169
23006WAT      O69259   6.803   0.055   7.716
23006WAT     H169260   6.867   0.130   7.698
23006WAT     H269261   6.794   0.042   7.815
23007WAT      O69262   3.058   8.919   8.046
23007WAT     H169263   2.964   8.886   8.036
23007WAT     H269264   3.060   9.019   8.035
23008WAT      O69265   9.233   3.645   3.988
23008WAT     H169266   9.196   3.654   3.896
23008WAT     H269267   9.254   3.549   4.008
23009WAT      O69268   9.391   7.228   1.604
23009WAT     H169269   9.328   7.296   1.567
23009WAT     H269270   9.405   7.155   1.538
23010WAT      O69271   7.150   7.560   7.297
23010WAT     H169272   7.089   7.601   7.365
23010WAT     H269273   7.138   7.461   7.296
23011WAT      O69274   8.760   3.474   1.633
23011WAT     H169275   8.734   3.518   1.547
23011WAT     H269276   8.738   3.376   1.628
23012WAT      O69277   3.921   1.484   0.143
23012WAT     H169278   3.858   1.407   0.141
23012WAT     H269279   3.952   1.500   0.236
23013WAT      O69280   1.010   0.636   2.768
23013WAT     H169281   0.988   0.675   2.679
23013WAT     H269282   1.102   0.664   2.795
23014WAT      O69283   7.527   9.155   1.758
23014WAT     H169284   7.624   9.159   1.732
23014WAT     H269285   7.500   9.241   1.800
23015WAT      O69286   2.537   7.873   2.228
23015WAT     H169287   2.565   7.783   2.194
23015WAT     H269288   2.615   7.917   2.272
23016WAT      O69289   7.351   7.380   2.482
23016WAT     H169290   7.400   7.465   2.459
23016WAT     H269291   7.253   7.399   2.486
23017WAT      O69292   2.864   7.361   8.634
23017WAT     H169293   2.889   7.443   8.583
23017WAT     H269294   2.765   7.349   8.630
23018WAT      O69295   6.159   8.200   4.729
23018WAT     H169296   6.200   8.194   4.638
23018WAT     H269297   6.222   8.161   4.796
23019WAT      O69298   9.760   3.755   8.664
23019WAT     H169299   9.824   3.692   8.708
23019WAT     H269300   9.675   3.707   8.643
23020WAT      O69301   9.136   9.662   8.996
23020WAT     H169302   9.225   9.644   9.038
23020WAT     H269303   9.065   9.618   9.050
23021WAT      O69304   5.608   5.495   7.937
23021WAT     H169305   5.605   5.396   7.948
23021WAT     H269306   5.658   5.536   8.013
23022WAT      O69307   7.361   1.391   3.136
23022WAT     H169308   7.328   1.319   3.076
23022WAT     H269309   7.363   1.358   3.230
23023WAT      O69310   3.526   3.837   4.078
23023WAT     H169311   3.493   3.866   3.988
23023WAT     H269312   3.625   3.851   4.083
23024WAT      O69313   5.633   0.168   9.354
23024WAT     H169314   5.597   0.149   9.262
23024WAT     H269315   5.576   0.122   9.422
23025WAT      O69316   1.388   1.736   7.510
23025WAT     H169317   1.339   1.659   7.550
23025WAT     H269318   1.407   1.804   7.582
23026WAT      O69319   0.276   2.952   4.753
23026WAT     H169320   0.279   3.051   4.744
23026WAT     H269321   0.282   2.910   4.663
23027WAT      O69322   2.165   9.174   5.793
23027WAT     H169323   2.129   9.091   5.835
23027WAT     H269324   2.251   9.153   5.747
23028WAT      O69325   8.177   9.017   2.930
23028WAT     H169326   8.173   9.084   2.857
23028WAT     H269327   8.089   8.971   2.939
23029WAT      O69328   9.801   3.232   9.429
23029WAT     H169329   9.839   3.163   9.367
23029WAT     H269330   9.706   3.209   9.450
23030WAT      O69331   6.037   7.937   4.354
23030WAT     H169332   6.006   7.947   4.448
23030WAT     H269333   6.060   8.027   4.316
23031WAT      O69334   7.651   9.103   7.858
23031WAT     H169335   7.697   9.104   7.946
23031WAT     H269336   7.660   9.193   7.814
23032WAT      O69337   5.125   8.124   2.384
23032WAT     H169338   5.056   8.107   2.455
23032WAT     H269339   5.205   8.166   2.427
23033WAT      O69340   4.993   8.887   5.996
23033WAT     H169341   5.075   8.927   5.953
23033WAT     H269342   5.020   8.839   6.079
23034WAT      O69343   6.915   4.717   9.035
23034WAT     H169344   6.954   4.801   9.073
23034WAT     H269345   6.931   4.714   8.937
23035WAT      O69346   0.025   7.257   6.082
23035WAT     H169347   0.017   7.350   6.048
23035WAT     H269348   0.115   7.243   6.123
23036WAT      O69349   0.070   2.996   3.490
23036WAT     H169350   0.128   2.926   3.532
23036WAT     H269351   0.050   3.067   3.557
23037WAT      O69352   4.702   2.328   6.880
23037WAT     H169353   4.723   2.356   6.974
23037WAT     H269354   4.754   2.246   6.857
23038WAT      O69355   1.617   2.718   5.004
23038WAT     H169356   1.695   2.780   5.004
23038WAT     H269357   1.544   2.756   5.061
23039WAT      O69358   9.536   0.386   7.129
23039WAT     H169359   9.604   0.335   7.181
23039WAT     H269360   9.525   0.477   7.169
23040WAT      O69361   1.296   2.304   2.024
23040WAT     H169362   1.332   2.251   1.947
23040WAT     H269363   1.335   2.269   2.109
23041WAT      O69364   7.978   9.506   3.081
23041WAT     H169365   8.018   9.530   2.993
23041WAT     H269366   7.908   9.573   3.106
23042WAT      O69367   0.093   9.684   0.372
23042WAT     H169368   0.119   9.726   0.285
23042WAT     H269369   0.149   9.603   0.387
23043WAT      O69370   6.417   5.631   6.002
23043WAT     H169371   6.322   5.626   6.032
23043WAT     H269372   6.436   5.722   5.965
23044WAT      O69373   8.929   1.703   5.854
23044WAT     H169374   8.985   1.633   5.899
23044WAT     H269375   8.985   1.753   5.789
23045WAT      O69376   9.521   2.872   1.703
23045WAT     H169377   9.571   2.875   1.790
23045WAT     H269378   9.484   2.963   1.683
23046WAT      O69379   5.133   1.575   8.238
23046WAT     H169380   5.063   1.550   8.305
23046WAT     H269381   5.223   1.543   8.269
23047WAT      O69382   2.484   3.696   2.532
23047WAT     H169383   2.495   3.720   2.629
23047WAT     H269384   2.391   3.663   2.516
23048WAT      O69385   3.376   1.031   9.482
23048WAT     H169386   3.293   1.086   9.476
23048WAT     H269387   3.440   1.072   9.547
23049WAT      O69388   0.504   4.258   8.039
23049WAT     H169389   0.503   4.203   7.956
23049WAT     H269390   0.599   4.275   8.066
23050WAT      O69391   6.047   3.686   8.100
23050WAT     H169392   6.010   3.723   8.186
23050WAT     H269393   5.989   3.612   8.068
23051WAT      O69394   8.662   5.356   4.570
23051WAT     H169395   8.664   5.374   4.472
23051WAT     H269396   8.730   5.414   4.616
23052WAT      O69397   0.886   9.576   7.723
23052WAT     H169398   0.870   9.664   7.679
23052WAT     H269399   0.969   9.581   7.779
23053WAT      O69400   8.727   9.516   8.707
23053WAT     H169401   8.668   9.509   8.788
23053WAT     H269402   8.820   9.489   8.732
23054WAT      O69403   0.267   6.187   8.316
23054WAT     H169404   0.340   6.243   8.353
23054WAT     H269405   0.246   6.112   8.379
23055WAT      O69406   3.583   1.498   2.883
23055WAT     H169407   3.563   1.527   2.977
23055WAT     H269408   3.643   1.418   2.885
23056WAT      O69409   7.730   6.350   3.362
23056WAT     H169410   7.807   6.394   3.315
23056WAT     H269411   7.718   6.257   3.326
23057WAT      O69412   4.514   2.903   0.751
23057WAT     H169413   4.415   2.920   0.757
23057WAT     H269414   4.554   2.914   0.842
23058WAT      O69415   2.260   2.520   8.038
23058WAT     H169416   2.261   2.593   7.971
23058WAT     H269417   2.354   2.488   8.054
23059WAT      O69418   7.873   6.211   0.290
23059WAT     H169419   7.919   6.262   0.218
23059WAT     H269420   7.885   6.258   0.377
23060WAT      O69421   5.557   0.218   2.008
23060WAT     H169422   5.625   0.282   2.044
23060WAT     H269423   5.585   0.188   1.916
23061WAT      O69424   6.744   1.562   5.686
23061WAT     H169425   6.697   1.622   5.751
23061WAT     H269426   6.677   1.506   5.638
23062WAT      O69427   7.840   5.546   1.415
23062WAT     H169428   7.840   5.633   1.366
23062WAT     H269429   7.853   5.563   1.513
23063WAT      O69430   9.436   0.619   2.952
23063WAT     H169431   9.430   0.651   2.857
23063WAT     H269432   9.437   0.698   3.014
23064WAT      O69433   6.021   6.840   3.624
23064WAT     H169434   5.968   6.779   3.565
23064WAT     H269435   5.997   6.823   3.719
23065WAT      O69436   3.075   9.837   8.868
23065WAT     H169437   3.063   9.813   8.772
23065WAT     H269438   3.157   9.894   8.878
23066WAT      O69439   0.228   6.740   2.516
23066WAT     H169440   0.164   6.806   2.556
23066WAT     H269441   0.178   6.680   2.453
23067WAT      O69442   8.648   8.875   4.554
23067WAT     H169443   8.579   8.807   4.580
23067WAT     H269444   8.681   8.922   4.637
23068WAT      O69445   3.507   8.026   8.084
23068WAT     H169446   3.497   7.967   8.164
23068WAT     H269447   3.532   8.118   8.114
23069WAT      O69448   5.067   8.165   7.481
23069WAT     H169449   5.070   8.065   7.472
23069WAT     H269450   5.139   8.206   7.426
23070WAT      O69451   4.136   8.915   9.021
23070WAT     H169452   4.191   8.886   9.100
23070WAT     H269453   4.081   8.838   8.989
23071WAT      O69454   6.241   8.970   3.721
23071WAT     H169455   6.325   8.981   3.775
23071WAT     H269456   6.164   9.009   3.771
23072WAT      O69457   3.498   4.176   7.006
23072WAT     H169458   3.402   4.186   7.033
23072WAT     H269459   3.556   4.183   7.087
23073WAT      O69460   6.293   3.593   8.199
23073WAT     H169461   6.286   3.612   8.297
23073WAT     H269462   6.207   3.614   8.154
23074WAT      O69463   0.639   3.535   6.384
23074WAT     H169464   0.655   3.530   6.285
23074WAT     H269465   0.713   3.487   6.432
23075WAT      O69466   0.858   5.118   3.517
23075WAT     H169467   0.827   5.175   3.593
23075WAT     H269468   0.852   5.022   3.544
23076WAT      O69469   2.982   9.270   4.741
23076WAT     H169470   2.999   9.355   4.691
23076WAT     H269471   2.936   9.291   4.828
23077WAT      O69472   3.377   4.209   6.178
23077WAT     H169473   3.410   4.117   6.199
23077WAT     H269474   3.390   4.228   6.080
23078WAT      O69475   6.068   6.434   3.371
23078WAT     H169476   6.109   6.378   3.299
23078WAT     H269477   6.140   6.476   3.426
23079WAT      O69478   1.787   2.756   7.286
23079WAT     H169479   1.711   2.780   7.347
23079WAT     H269480   1.854   2.830   7.286
23080WAT      O69481   4.631   9.561   1.649
23080WAT     H169482   4.681   9.585   1.565
23080WAT     H269483   4.672   9.479   1.689
23081WAT      O69484   1.202   8.995   8.584
23081WAT     H169485   1.241   9.071   8.531
23081WAT     H269486   1.276   8.938   8.620
23082WAT      O69487   8.700   0.800   9.421
23082WAT     H169488   8.611   0.769   9.386
23082WAT     H269489   8.763   0.722   9.423
23083WAT      O69490   7.640   2.732   1.650
23083WAT     H169491   7.610   2.702   1.741
23083WAT     H269492   7.701   2.811   1.659
23084WAT      O69493   1.460   0.899   4.589
23084WAT     H169494   1.556   0.916   4.563
23084WAT     H269495   1.408   0.875   4.507
23085WAT      O69496   1.007   7.119   9.170
23085WAT     H169497   1.100   7.152   9.185
23085WAT     H269498   1.005   7.019   9.177
23086WAT      O69499   2.330   9.499   6.597
23086WAT     H169500   2.387   9.580   6.583
23086WAT     H269501   2.256   9.521   6.661
23087WAT      O69502   0.999   9.549   3.264
23087WAT     H169503   1.068   9.620   3.278
23087WAT     H269504   1.034   9.462   3.296
23088WAT      O69505   6.328   6.125   2.896
23088WAT     H169506   6.334   6.139   2.797
23088WAT     H269507   6.395   6.183   2.942
23089WAT      O69508   7.529   7.817   7.317
23089WAT     H169509   7.580   7.757   7.378
23089WAT     H269510   7.521   7.907   7.359
23090WAT      O69511   9.133   7.424   6.808
23090WAT     H169512   9.095   7.498   6.862
23090WAT     H269513   9.066   7.349   6.803
23091WAT      O69514   0.869   2.429   4.515
23091WAT     H169515   0.869   2.430   4.415
23091WAT     H269516   0.946   2.484   4.549
23092WAT      O69517   2.425   7.789   0.648
23092WAT     H169518   2.498   7.804   0.582
23092WAT     H269519   2.384   7.699   0.634
23093WAT      O69520   3.557   5.845   0.742
23093WAT     H169521   3.506   5.872   0.660
23093WAT     H269522   3.596   5.754   0.728
23094WAT      O69523   9.261   2.075   1.710
23094WAT     H169524   9.241   2.061   1.807
23094WAT     H269525   9.344   2.130   1.701
23095WAT      O69526   8.187   9.752   1.620
23095WAT     H169527   8.248   9.702   1.559
23095WAT     H269528   8.200   9.720   1.714
23096WAT      O69529   9.061   8.854   3.687
23096WAT     H169530   9.013   8.878   3.771
23096WAT     H269531   9.008   8.885   3.608
23097WAT      O69532   3.556   3.921   6.927
23097WAT     H169533   3.538   4.016   6.953
23097WAT     H269534   3.521   3.860   6.998
23098WAT      O69535   5.767   1.520   0.890
23098WAT     H169536   5.837   1.450   0.880
23098WAT     H269537   5.707   1.497   0.967
23099WAT      O69538   8.047   9.459   8.760
23099WAT     H169539   8.105   9.515   8.700
23099WAT     H269540   7.958   9.502   8.770
23100WAT      O69541   3.725   5.018   7.728
23100WAT     H169542   3.651   4.959   7.697
23100WAT     H269543   3.811   4.989   7.687
23101WAT      O69544   3.141   4.459   7.814
23101WAT     H169545   3.209   4.478   7.885
23101WAT     H269546   3.065   4.407   7.854
23102WAT      O69547   8.632   3.478   4.491
23102WAT     H169548   8.703   3.525   4.543
23102WAT     H269549   8.674   3.410   4.430
23103WAT      O69550   7.745   3.280   4.531
23103WAT     H169551   7.781   3.358   4.479
23103WAT     H269552   7.742   3.303   4.628
23104WAT      O69553   6.719   1.803   9.535
23104WAT     H169554   6.632   1.837   9.499
23104WAT     H269555   6.715   1.801   9.635
23105WAT      O69556   9.350   5.015   2.199
23105WAT     H169557   9.446   4.995   2.178
23105WAT     H269558   9.302   4.929   2.218
23106WAT      O69559   8.211   0.500   5.080
23106WAT     H169560   8.112   0.491   5.091
23106WAT     H269561   8.232   0.586   5.034
23107WAT      O69562   8.335   5.193   5.183
23107WAT     H169563   8.268   5.203   5.110
23107WAT     H269564   8.385   5.279   5.194
23108WAT      O69565   6.634   6.804   4.822
23108WAT     H169566   6.584   6.887   4.799
23108WAT     H269567   6.576   6.724   4.805
23109WAT      O69568   6.723   8.396   6.045
23109WAT     H169569   6.695   8.425   6.137
23109WAT     H269570   6.822   8.385   6.043
23110WAT      O69571   6.818   0.371   3.639
23110WAT     H169572   6.760   0.293   3.666
23110WAT     H269573   6.871   0.402   3.718
23111WAT      O69574   7.396   3.719   5.389
23111WAT     H169575   7.334   3.796   5.375
23111WAT     H269576   7.351   3.649   5.445
23112WAT      O69577   1.071   1.037   8.159
23112WAT     H169578   1.004   1.003   8.226
23112WAT     H269579   1.118   0.959   8.117
23113WAT      O69580   4.364   2.104   0.141
23113WAT     H169581   4.451   2.108   0.093
23113WAT     H269582   4.381   2.088   0.239
23114WAT      O69583   9.867   7.585   5.101
23114WAT     H169584   9.942   7.639   5.138
23114WAT     H269585   9.875   7.580   5.002
23115WAT      O69586   3.672   6.279   6.282
23115WAT     H169587   3.728   6.333   6.219
23115WAT     H269588   3.714   6.279   6.373
23116WAT      O69589   1.171   2.394   4.867
23116WAT     H169590   1.252   2.362   4.916
23116WAT     H269591   1.103   2.428   4.933
23117WAT      O69592   1.900   5.975   5.708
23117WAT     H169593   1.981   6.021   5.745
23117WAT     H269594   1.896   5.988   5.609
23118WAT      O69595   1.289   0.068   0.601
23118WAT     H169596   1.296  -0.032   0.611
23118WAT     H269597   1.354   0.099   0.532
23119WAT      O69598   8.831   1.052   1.846
23119WAT     H169599   8.786   1.088   1.927
23119WAT     H269600   8.781   1.082   1.764
23120WAT      O69601   6.418   4.606   8.986
23120WAT     H169602   6.497   4.638   9.040
23120WAT     H269603   6.451   4.556   8.906
23121WAT      O69604   6.952   9.014   8.846
23121WAT     H169605   6.997   9.054   8.766
23121WAT     H269606   7.014   8.948   8.889
23122WAT      O69607   9.657   6.959   1.138
23122WAT     H169608   9.609   6.915   1.215
23122WAT     H269609   9.643   7.058   1.142
23123WAT      O69610   9.008   6.924   8.533
23123WAT     H169611   9.071   7.000   8.549
23123WAT     H269612   8.969   6.894   8.620
23124WAT      O69613   4.500   2.010   9.175
23124WAT     H169614   4.549   1.978   9.256
23124WAT     H269615   4.562   2.012   9.097
23125WAT      O69616   2.931   4.755   5.473
23125WAT     H169617   2.902   4.829   5.412
23125WAT     H269618   2.878   4.673   5.455
23126WAT      O69619   4.086   1.625   6.217
23126WAT     H169620   4.066   1.633   6.119
23126WAT     H269621   4.045   1.541   6.252
23127WAT      O69622   4.889   9.725   6.597
23127WAT     H169623   4.800   9.689   6.569
23127WAT     H269624   4.944   9.744   6.515
23128WAT      O69625   6.555   2.836   6.743
23128WAT     H169626   6.612   2.765   6.700
23128WAT     H269627   6.604   2.923   6.741
23129WAT      O69628   3.652   6.276   1.846
23129WAT     H169629   3.570   6.291   1.790
23129WAT     H269630   3.690   6.364   1.875
23130WAT      O69631   5.175   6.942   1.861
23130WAT     H169632   5.149   6.846   1.849
23130WAT     H269633   5.230   6.972   1.783
23131WAT      O69634   1.566   4.923   1.722
23131WAT     H169635   1.575   4.882   1.631
23131WAT     H269636   1.627   5.001   1.730
23132WAT      O69637   3.345   6.578   1.500
23132WAT     H169638   3.291   6.524   1.435
23132WAT     H269639   3.429   6.530   1.523
23133WAT      O69640   4.692   7.124   0.800
23133WAT     H169641   4.740   7.163   0.722
23133WAT     H269642   4.757   7.072   0.857
23134WAT      O69643   5.340   8.477   2.238
23134WAT     H169644   5.379   8.551   2.294
23134WAT     H269645   5.240   8.476   2.250
23135WAT      O69646   5.165   7.345   1.707
23135WAT     H169647   5.076   7.364   1.665
23135WAT     H269648   5.205   7.431   1.740
23136WAT      O69649   3.347   3.419   2.731
23136WAT     H169650   3.373   3.341   2.788
23136WAT     H269651   3.251   3.443   2.750
23137WAT      O69652   3.230   9.206   7.444
23137WAT     H169653   3.203   9.130   7.385
23137WAT     H269654   3.329   9.200   7.462
23138WAT      O69655   6.186   8.887   5.595
23138WAT     H169656   6.103   8.932   5.561
23138WAT     H269657   6.264   8.947   5.579
23139WAT      O69658   7.182   7.732   6.804
23139WAT     H169659   7.273   7.736   6.845
23139WAT     H269660   7.123   7.800   6.847
23140WAT      O69661   6.714   6.662   6.979
23140WAT     H169662   6.752   6.574   7.011
23140WAT     H269663   6.774   6.700   6.909
23141WAT      O69664   0.474   9.566   1.182
23141WAT     H169665   0.558   9.605   1.143
23141WAT     H269666   0.417   9.640   1.218
23142WAT      O69667   9.765   1.799   5.194
23142WAT     H169668   9.735   1.716   5.147
23142WAT     H269669   9.862   1.814   5.176
23143WAT      O69670   8.027   8.014   6.072
23143WAT     H169671   8.004   8.074   6.149
23143WAT     H269672   7.994   8.055   5.987
23144WAT      O69673   4.908   3.514   6.768
23144WAT     H169674   4.905   3.594   6.708
23144WAT     H269675   4.827   3.513   6.826
23145WAT      O69676   7.325   0.832   9.866
23145WAT     H169677   7.295   0.892   9.792
23145WAT     H269678   7.254   0.764   9.885
23146WAT      O69679   3.250   8.022   7.679
23146WAT     H169680   3.265   7.924   7.660
23146WAT     H269681   3.304   8.076   7.615
23147WAT      O69682   9.308   2.736   0.945
23147WAT     H169683   9.395   2.753   0.992
23147WAT     H269684   9.263   2.823   0.926
23148WAT      O69685   8.476   0.277   0.328
23148WAT     H169686   8.407   0.204   0.328
23148WAT     H269687   8.431   0.366   0.336
23149WAT      O69688   2.877   5.652   0.238
23149WAT     H169689   2.830   5.657   0.326
23149WAT     H269690   2.916   5.741   0.216
23150WAT      O69691   0.704   2.584   9.689
23150WAT     H169692   0.738   2.668   9.730
23150WAT     H269693   0.673   2.603   9.596
23151WAT      O69694   5.284   8.869   2.106
23151WAT     H169695   5.283   8.807   2.028
23151WAT     H269696   5.249   8.958   2.078
23152WAT      O69697   6.927   2.008   6.513
23152WAT     H169698   6.958   1.978   6.602
23152WAT     H269699   7.005   2.021   6.452
23153WAT      O69700   5.641   6.977   6.963
23153WAT     H169701   5.593   6.986   6.876
23153WAT     H269702   5.584   6.924   7.026
23154WAT      O69703   5.881   3.450   0.788
23154WAT     H169704   5.871   3.482   0.883
23154WAT     H269705   5.904   3.353   0.788
23155WAT      O69706   7.119   6.487   9.695
23155WAT     H169707   7.129   6.394   9.731
23155WAT     H269708   7.154   6.553   9.762
23156WAT      O69709   2.842   9.693   8.293
23156WAT     H169710   2.769   9.717   8.358
23156WAT     H269711   2.844   9.762   8.220
23157WAT      O69712   6.809   9.587   4.950
23157WAT     H169713   6.855   9.599   5.038
23157WAT     H269714   6.809   9.673   4.899
23158WAT      O69715   9.832   9.814   4.979
23158WAT     H169716   9.928   9.834   4.960
23158WAT     H269717   9.793   9.763   4.902
23159WAT      O69718   8.015   5.255   5.517
23159WAT     H169719   8.010   5.157   5.501
23159WAT     H269720   8.057   5.272   5.606
23160WAT      O69721   8.139   9.018   6.975
23160WAT     H169722   8.048   8.979   6.991
23160WAT     H269723   8.203   8.986   7.045
23161WAT      O69724   0.482   8.314   7.291
23161WAT     H169725   0.465   8.216   7.283
23161WAT     H269726   0.572   8.329   7.332
23162WAT      O69727   6.737   9.236   8.445
23162WAT     H169728   6.750   9.147   8.402
23162WAT     H269729   6.653   9.277   8.412
23163WAT      O69730   9.195   2.583   9.538
23163WAT     H169731   9.135   2.662   9.539
23163WAT     H269732   9.220   2.559   9.632
23164WAT      O69733   8.607   4.101   1.632
23164WAT     H169734   8.652   4.177   1.680
23164WAT     H269735   8.675   4.053   1.576
23165WAT      O69736   1.393   6.736   1.946
23165WAT     H169737   1.340   6.794   2.009
23165WAT     H269738   1.334   6.706   1.871
23166WAT      O69739   5.295   0.454   2.193
23166WAT     H169740   5.372   0.509   2.227
23166WAT     H269741   5.237   0.427   2.269
23167WAT      O69742   8.794   1.712   2.253
23167WAT     H169743   8.706   1.757   2.237
23167WAT     H269744   8.785   1.647   2.328
23168WAT      O69745   9.181   5.216   6.786
23168WAT     H169746   9.266   5.180   6.749
23168WAT     H269747   9.103   5.168   6.746
23169WAT      O69748   2.834   4.551   7.613
23169WAT     H169749   2.784   4.624   7.565
23169WAT     H269750   2.777   4.515   7.687
23170WAT      O69751   5.629   7.813   3.948
23170WAT     H169752   5.676   7.726   3.937
23170WAT     H269753   5.670   7.865   4.024
23171WAT      O69754   0.741   7.709   5.912
23171WAT     H169755   0.669   7.704   5.981
23171WAT     H269756   0.781   7.619   5.897
23172WAT      O69757   8.314   6.302   3.159
23172WAT     H169758   8.300   6.294   3.061
23172WAT     H269759   8.390   6.244   3.187
23173WAT      O69760   4.163   8.994   2.673
23173WAT     H169761   4.109   8.910   2.678
23173WAT     H269762   4.197   9.006   2.580
23174WAT      O69763   0.703   3.855   7.929
23174WAT     H169764   0.718   3.872   7.831
23174WAT     H269765   0.610   3.881   7.953
23175WAT      O69766   6.836   9.364   2.691
23175WAT     H169767   6.894   9.445   2.702
23175WAT     H269768   6.767   9.382   2.621
23176WAT      O69769   9.760   2.984   9.869
23176WAT     H169770   9.703   3.060   9.837
23176WAT     H269771   9.812   2.947   9.792
23177WAT      O69772   3.509   3.784   5.771
23177WAT     H169773   3.440   3.828   5.829
23177WAT     H269774   3.600   3.809   5.805
23178WAT      O69775   2.261   7.261   1.555
23178WAT     H169776   2.189   7.325   1.529
23178WAT     H269777   2.240   7.222   1.645
23179WAT      O69778   8.474   8.815   6.767
23179WAT     H169779   8.478   8.915   6.772
23179WAT     H269780   8.559   8.780   6.726
23180WAT      O69781   6.399   1.107   7.816
23180WAT     H169782   6.436   1.042   7.882
23180WAT     H269783   6.456   1.190   7.816
23181WAT      O69784   4.136   6.711   0.906
23181WAT     H169785   4.212   6.755   0.858
23181WAT     H269786   4.127   6.750   0.997
23182WAT      O69787   2.916   7.973   0.228
23182WAT     H169788   2.966   8.009   0.149
23182WAT     H269789   2.970   7.899   0.270
23183WAT      O69790   7.634   4.883   4.189
23183WAT     H169791   7.590   4.949   4.128
23183WAT     H269792   7.685   4.817   4.136
23184WAT      O69793   5.020   7.906   2.901
23184WAT     H169794   4.985   7.817   2.870
23184WAT     H269795   4.999   7.917   2.999
23185WAT      O69796   9.860   5.629   1.385
23185WAT     H169797   9.957   5.651   1.391
23185WAT     H269798   9.849   5.534   1.354
23186WAT      O69799   0.818   1.247   0.299
23186WAT     H169800   0.742   1.288   0.248
23186WAT     H269801   0.888   1.216   0.235
23187WAT      O69802   5.949   9.514   2.700
23187WAT     H169803   6.030   9.478   2.746
23187WAT     H269804   5.964   9.609   2.673
23188WAT      O69805   6.715   1.931   8.830
23188WAT     H169806   6.629   1.894   8.867
23188WAT     H269807   6.744   1.875   8.752
23189WAT      O69808   7.137   9.297   9.423
23189WAT     H169809   7.143   9.205   9.385
23189WAT     H269810   7.059   9.303   9.485
23190WAT      O69811   0.448   7.487   5.880
23190WAT     H169812   0.475   7.541   5.960
23190WAT     H269813   0.462   7.390   5.898
23191WAT      O69814   2.222   0.419   2.204
23191WAT     H169815   2.295   0.470   2.249
23191WAT     H269816   2.137   0.472   2.205
23192WAT      O69817   1.165   4.784   2.620
23192WAT     H169818   1.196   4.772   2.526
23192WAT     H269819   1.222   4.730   2.682
23193WAT      O69820   3.662   5.362   6.695
23193WAT     H169821   3.602   5.312   6.633
23193WAT     H269822   3.631   5.349   6.790
23194WAT      O69823   8.504   3.584   2.786
23194WAT     H169824   8.415   3.550   2.815
23194WAT     H269825   8.511   3.578   2.686
23195WAT      O69826   0.083   9.584   7.840
23195WAT     H169827   0.162   9.645   7.846
23195WAT     H269828   0.012   9.616   7.902
23196WAT      O69829   9.737   0.241   7.218
23196WAT     H169830   9.687   0.178   7.160
23196WAT     H269831   9.721   0.219   7.314
23197WAT      O69832   2.503   0.028   9.897
23197WAT     H169833   2.562  -0.007   9.825
23197WAT     H269834   2.466   0.117   9.870
23198WAT      O69835   7.053   6.969   1.333
23198WAT     H169836   6.980   6.998   1.394
23198WAT     H269837   7.058   6.869   1.331
23199WAT      O69838   2.360   3.355   1.086
23199WAT     H169839   2.282   3.354   1.023
23199WAT     H269840   2.392   3.449   1.098
23200WAT      O69841   2.665   6.755   9.680
23200WAT     H169842   2.655   6.828   9.612
23200WAT     H269843   2.608   6.776   9.760
23201WAT      O69844   6.756   8.662   7.602
23201WAT     H169845   6.733   8.566   7.623
23201WAT     H269846   6.727   8.720   7.678
23202WAT      O69847   9.681   0.607   7.403
23202WAT     H169848   9.643   0.699   7.401
23202WAT     H269849   9.776   0.611   7.435
23203WAT      O69850   8.284   8.334   3.604
23203WAT     H169851   8.207   8.307   3.546
23203WAT     H269852   8.346   8.256   3.615
23204WAT      O69853   7.806   7.076   2.087
23204WAT     H169854   7.710   7.070   2.113
23204WAT     H269855   7.834   6.991   2.043
23205WAT      O69856   5.924   2.936   2.916
23205WAT     H169857   5.824   2.930   2.924
23205WAT     H269858   5.951   2.914   2.823
23206WAT      O69859   8.426   2.851   2.317
23206WAT     H169860   8.424   2.929   2.255
23206WAT     H269861   8.345   2.853   2.376
23207WAT      O69862   8.672   3.320   6.645
23207WAT     H169863   8.702   3.298   6.737
23207WAT     H269864   8.748   3.359   6.593
23208WAT      O69865   3.922   6.165   2.902
23208WAT     H169866   4.019   6.164   2.925
23208WAT     H269867   3.878   6.243   2.945
23209WAT      O69868   0.423   3.811   7.427
23209WAT     H169869   0.481   3.873   7.375
23209WAT     H269870   0.391   3.856   7.510
23210WAT      O69871   5.072   2.994   4.188
23210WAT     H169872   5.039   2.979   4.095
23210WAT     H269873   5.055   3.088   4.215
23211WAT      O69874   9.453   1.889   2.163
23211WAT     H169875   9.387   1.822   2.198
23211WAT     H269876   9.422   1.923   2.075
23212WAT      O69877   3.652   3.988   2.520
23212WAT     H169878   3.743   3.954   2.502
23212WAT     H269879   3.603   3.924   2.579
23213WAT      O69880   9.025   5.726   2.684
23213WAT     H169881   9.094   5.745   2.614
23213WAT     H269882   9.026   5.801   2.751
23214WAT      O69883   0.417   3.381   9.847
23214WAT     H169884   0.483   3.456   9.851
23214WAT     H269885   0.454   3.307   9.791
23215WAT      O69886   4.432   5.076   8.561
23215WAT     H169887   4.399   5.150   8.619
23215WAT     H269888   4.366   5.000   8.562
23216WAT      O69889   6.496   0.941   2.425
23216WAT     H169890   6.577   0.883   2.434
23216WAT     H269891   6.478   0.986   2.513
23217WAT      O69892   4.976   1.273   9.626
23217WAT     H169893   4.987   1.360   9.674
23217WAT     H269894   4.910   1.284   9.551
23218WAT      O69895   6.982   1.868   5.293
23218WAT     H169896   6.918   1.908   5.359
23218WAT     H269897   6.936   1.858   5.204
23219WAT      O69898   0.936   9.833   6.618
23219WAT     H169899   0.915   9.924   6.582
23219WAT     H269900   0.933   9.836   6.718
23220WAT      O69901   5.906   3.494   1.910
23220WAT     H169902   5.993   3.535   1.939
23220WAT     H269903   5.922   3.399   1.882
23221WAT      O69904   6.483   5.810   4.121
23221WAT     H169905   6.402   5.835   4.173
23221WAT     H269906   6.562   5.863   4.153
23222WAT      O69907   9.064   7.013   2.073
23222WAT     H169908   9.071   7.026   1.974
23222WAT     H269909   9.010   7.088   2.112
23223WAT      O69910   6.675   3.799   5.446
23223WAT     H169911   6.650   3.888   5.408
23223WAT     H269912   6.602   3.733   5.430
23224WAT      O69913   1.237   8.359   6.484
23224WAT     H169914   1.156   8.397   6.438
23224WAT     H269915   1.267   8.277   6.435
23225WAT      O69916   8.365   5.802   0.903
23225WAT     H169917   8.448   5.853   0.883
23225WAT     H269918   8.379   5.705   0.883
23226WAT      O69919   9.370   4.088   8.822
23226WAT     H169920   9.387   4.152   8.897
23226WAT     H269921   9.457   4.045   8.795
23227WAT      O69922   8.337   6.777   1.373
23227WAT     H169923   8.335   6.684   1.337
23227WAT     H269924   8.248   6.820   1.359
23228WAT      O69925   8.052   0.787   0.575
23228WAT     H169926   8.092   0.821   0.490
23228WAT     H269927   7.954   0.806   0.575
23229WAT      O69928   8.488   3.669   7.352
23229WAT     H169929   8.522   3.731   7.281
23229WAT     H269930   8.425   3.717   7.412
23230WAT      O69931   3.731   9.163   1.624
23230WAT     H169932   3.699   9.116   1.542
23230WAT     H269933   3.704   9.110   1.705
23231WAT      O69934   6.333   5.481   0.579
23231WAT     H169935   6.269   5.548   0.540
23231WAT     H269936   6.288   5.392   0.588
23232WAT      O69937   3.294   5.566   0.157
23232WAT     H169938   3.279   5.593   0.061
23232WAT     H269939   3.225   5.498   0.183
23233WAT      O69940   8.536   1.318   1.347
23233WAT     H169941   8.461   1.270   1.392
23233WAT     H269942   8.602   1.251   1.312
23234WAT      O69943   6.428   9.049   8.212
23234WAT     H169944   6.457   8.961   8.174
23234WAT     H269945   6.471   9.123   8.161
23235WAT      O69946   4.151   4.279   2.332
23235WAT     H169947   4.115   4.216   2.262
23235WAT     H269948   4.158   4.230   2.419
23236WAT      O69949   0.322   7.466   4.704
23236WAT     H169950   0.318   7.378   4.751
23236WAT     H269951   0.417   7.488   4.682
23237WAT      O69952   9.055   5.150   4.777
23237WAT     H169953   8.957   5.134   4.784
23237WAT     H269954   9.079   5.172   4.683
23238WAT      O69955   8.999   0.740   6.377
23238WAT     H169956   8.943   0.657   6.373
23238WAT     H269957   8.998   0.776   6.470
23239WAT      O69958   0.006   6.500   6.155
23239WAT     H169959   0.035   6.418   6.205
23239WAT     H269960   0.022   6.581   6.211
23240WAT      O69961   0.678   2.616   0.959
23240WAT     H169962   0.613   2.546   0.988
23240WAT     H269963   0.646   2.706   0.988
23241WAT      O69964   2.074   2.476   0.386
23241WAT     H169965   2.052   2.552   0.447
23241WAT     H269966   1.989   2.437   0.349
23242WAT      O69967   4.562   3.286   1.558
23242WAT     H169968   4.577   3.331   1.646
23242WAT     H269969   4.604   3.341   1.486
23243WAT      O69970   1.613   6.026   9.174
23243WAT     H169971   1.649   5.989   9.089
23243WAT     H269972   1.638   5.965   9.250
23244WAT      O69973   7.815   7.128   8.111
23244WAT     H169974   7.734   7.184   8.130
23244WAT     H269975   7.894   7.166   8.159
23245WAT      O69976   4.633   7.269   9.629
23245WAT     H169977   4.549   7.232   9.668
23245WAT     H269978   4.639   7.244   9.533
23246WAT      O69979   0.277   4.444   9.197
23246WAT     H169980   0.362   4.490   9.170
23246WAT     H269981   0.212   4.512   9.230
23247WAT      O69982   1.068   5.687   8.722
23247WAT     H169983   1.089   5.642   8.809
23247WAT     H269984   0.970   5.702   8.715
23248WAT      O69985   1.232   6.258   2.793
23248WAT     H169986   1.158   6.320   2.767
23248WAT     H269987   1.210   6.215   2.881
23249WAT      O69988   5.244   3.775   9.121
23249WAT     H169989   5.234   3.723   9.206
23249WAT     H269990   5.297   3.722   9.055
23250WAT      O69991   6.432   6.613   9.020
23250WAT     H169992   6.409   6.698   8.972
23250WAT     H269993   6.506   6.567   8.970
23251WAT      O69994   9.509   7.441   7.750
23251WAT     H169995   9.453   7.488   7.682
23251WAT     H269996   9.456   7.366   7.790
23252WAT      O69997   5.874   6.289   5.468
23252WAT     H169998   5.795   6.336   5.507
23252WAT     H269999   5.906   6.219   5.531
23253WAT      O70000   1.702   8.485   1.713
23253WAT     H170001   1.638   8.534   1.654
23253WAT     H270002   1.655   8.454   1.796
23254WAT      O70003   0.043   0.537   2.564
23254WAT     H170004   0.134   0.572   2.584
23254WAT     H270005   0.040   0.439   2.584
23255WAT      O70006   1.564   0.600   2.775
23255WAT     H170007   1.505   0.521   2.791
23255WAT     H270008   1.599   0.597   2.681
23256WAT      O70009   6.517   0.038   9.384
23256WAT     H170010   6.472   0.008   9.467
23256WAT     H270011   6.539  -0.041   9.326
23257WAT      O70012   3.435   8.819   4.069
23257WAT     H170013   3.395   8.765   4.143
23257WAT     H270014   3.474   8.759   4.000
23258WAT      O70015   1.399   5.116   4.031
23258WAT     H170016   1.496   5.141   4.024
23258WAT     H270017   1.351   5.146   3.949
23259WAT      O70018   2.696   7.453   2.887
23259WAT     H170019   2.785   7.454   2.934
23259WAT     H270020   2.711   7.446   2.788
23260WAT      O70021   9.731   1.856   2.141
23260WAT     H170022   9.637   1.887   2.152
23260WAT     H270023   9.753   1.848   2.044
23261WAT      O70024   1.415   9.758   2.419
23261WAT     H170025   1.466   9.783   2.501
23261WAT     H270026   1.478   9.716   2.353
23262WAT      O70027   4.261   5.306   5.917
23262WAT     H170028   4.247   5.393   5.965
23262WAT     H270029   4.278   5.324   5.820
23263WAT      O70030   1.819   6.845   9.263
23263WAT     H170031   1.829   6.747   9.278
23263WAT     H270032   1.723   6.867   9.248
23264WAT      O70033   2.895   6.190   0.143
23264WAT     H170034   2.839   6.161   0.221
23264WAT     H270035   2.836   6.206   0.064
23265WAT      O70036   0.889   1.277   3.412
23265WAT     H170037   0.949   1.205   3.447
23265WAT     H270038   0.917   1.301   3.319
23266WAT      O70039   8.408   7.118   0.275
23266WAT     H170040   8.309   7.124   0.285
23266WAT     H270041   8.447   7.210   0.270
23267WAT      O70042   0.755   9.739   9.254
23267WAT     H170043   0.795   9.655   9.291
23267WAT     H270044   0.756   9.810   9.324
23268WAT      O70045   3.826   5.390   4.619
23268WAT     H170046   3.728   5.372   4.634
23268WAT     H270047   3.837   5.482   4.583
23269WAT      O70048   0.229   1.819   4.599
23269WAT     H170049   0.283   1.755   4.544
23269WAT     H270050   0.173   1.768   4.664
23270WAT      O70051   7.637   9.164   6.237
23270WAT     H170052   7.686   9.107   6.172
23270WAT     H270053   7.552   9.118   6.264
23271WAT      O70054   6.854   7.651   1.969
23271WAT     H170055   6.889   7.566   2.008
23271WAT     H270056   6.769   7.633   1.920
23272WAT      O70057   7.905   2.600   7.150
23272WAT     H170058   7.886   2.695   7.125
23272WAT     H270059   7.865   2.580   7.239
23273WAT      O70060   6.112   5.445   0.073
23273WAT     H170061   6.078   5.528   0.029
23273WAT     H270062   6.157   5.388   0.004
23274WAT      O70063   6.228   2.263   9.224
23274WAT     H170064   6.164   2.338   9.241
23274WAT     H270065   6.221   2.235   9.128
23275WAT      O70066   8.239   4.915   8.393
23275WAT     H170067   8.306   4.950   8.458
23275WAT     H270068   8.286   4.878   8.313
23276WAT      O70069   5.905   2.638   9.425
23276WAT     H170070   5.979   2.701   9.402
23276WAT     H270071   5.943   2.563   9.480
23277WAT      O70072   4.282   4.973   0.339
23277WAT     H170073   4.327   5.046   0.288
23277WAT     H270074   4.350   4.915   0.382
23278WAT      O70075   4.105   5.417   2.579
23278WAT     H170076   4.178   5.484   2.573
23278WAT     H270077   4.106   5.358   2.498
23279WAT      O70078   9.189   0.929   8.573
23279WAT     H170079   9.153   0.873   8.499
23279WAT     H270080   9.261   0.878   8.620
23280WAT      O70081   8.854   3.994   5.771
23280WAT     H170082   8.926   3.971   5.837
23280WAT     H270083   8.876   3.955   5.682
23281WAT      O70084   3.916   7.342   1.330
23281WAT     H170085   3.818   7.337   1.311
23281WAT     H270086   3.941   7.276   1.400
23282WAT      O70087   4.297   3.706   4.300
23282WAT     H170088   4.357   3.786   4.300
23282WAT     H270089   4.274   3.681   4.206
23283WAT      O70090   7.505   3.929   4.477
23283WAT     H170091   7.529   3.962   4.568
23283WAT     H270092   7.586   3.931   4.418
23284WAT      O70093   1.374   0.991   5.031
23284WAT     H170094   1.364   1.062   4.961
23284WAT     H270095   1.464   0.999   5.073
23285WAT      O70096   7.191   8.904   8.597
23285WAT     H170097   7.110   8.847   8.608
23285WAT     H270098   7.263   8.872   8.658
23286WAT      O70099   9.022   1.943   9.624
23286WAT     H170100   9.007   1.901   9.714
23286WAT     H270101   9.095   2.011   9.631
23287WAT      O70102   0.764   1.782   3.714
23287WAT     H170103   0.707   1.706   3.682
23287WAT     H270104   0.751   1.861   3.654
23288WAT      O70105   1.377   8.813   6.236
23288WAT     H170106   1.453   8.837   6.177
23288WAT     H270107   1.296   8.865   6.210
23289WAT      O70108   7.458   9.595   6.936
23289WAT     H170109   7.460   9.626   7.031
23289WAT     H270110   7.363   9.577   6.908
23290WAT      O70111   1.553   5.506   6.949
23290WAT     H170112   1.593   5.467   6.866
23290WAT     H270113   1.626   5.545   7.005
23291WAT      O70114   8.936   5.888   7.187
23291WAT     H170115   8.896   5.958   7.127
23291WAT     H270116   8.882   5.881   7.270
23292WAT      O70117   3.568   6.859   6.426
23292WAT     H170118   3.485   6.891   6.472
23292WAT     H270119   3.646   6.915   6.453
23293WAT      O70120   4.497   4.448   4.651
23293WAT     H170121   4.497   4.469   4.554
23293WAT     H270122   4.524   4.352   4.665
23294WAT      O70123   6.456   5.672   5.563
23294WAT     H170124   6.456   5.654   5.464
23294WAT     H270125   6.473   5.769   5.579
23295WAT      O70126   4.119   1.331   4.297
23295WAT     H170127   4.092   1.393   4.223
23295WAT     H270128   4.055   1.340   4.373
23296WAT      O70129   1.196   0.226   1.035
23296WAT     H170130   1.266   0.297   1.044
23296WAT     H270131   1.143   0.243   0.953
23297WAT      O70132   7.474   7.637   6.310
23297WAT     H170133   7.440   7.546   6.287
23297WAT     H270134   7.473   7.695   6.228
23298WAT      O70135   3.516   0.548   3.278
23298WAT     H170136   3.576   0.476   3.311
23298WAT     H270137   3.423   0.514   3.272
23299WAT      O70138   3.633   9.033   5.833
23299WAT     H170139   3.613   9.121   5.877
23299WAT     H270140   3.609   9.039   5.736
23300WAT      O70141   9.431   8.853   0.466
23300WAT     H170142   9.350   8.866   0.522
23300WAT     H270143   9.487   8.780   0.506
23301WAT      O70144   4.237   1.714   7.082
23301WAT     H170145   4.253   1.805   7.042
23301WAT     H270146   4.171   1.665   7.025
23302WAT      O70147   2.036   7.783   8.688
23302WAT     H170148   2.115   7.787   8.748
23302WAT     H270149   2.003   7.875   8.670
23303WAT      O70150  -0.001   5.636   6.466
23303WAT     H170151   0.056   5.715   6.489
23303WAT     H270152  -0.007   5.626   6.367
23304WAT      O70153   8.153   4.869   9.419
23304WAT     H170154   8.130   4.885   9.323
23304WAT     H270155   8.134   4.773   9.442
23305WAT      O70156   2.677   8.894   5.674
23305WAT     H170157   2.711   8.968   5.615
23305WAT     H270158   2.613   8.837   5.623
23306WAT      O70159   0.720   3.072   7.733
23306WAT     H170160   0.811   3.063   7.774
23306WAT     H270161   0.651   3.078   7.805
23307WAT      O70162   7.162   5.399   6.966
23307WAT     H170163   7.203   5.461   7.033
23307WAT     H270164   7.071   5.373   6.996
23308WAT      O70165   3.075   7.465   3.862
23308WAT     H170166   2.977   7.449   3.848
23308WAT     H270167   3.095   7.562   3.854
23309WAT      O70168   8.922   9.175   0.167
23309WAT     H170169   9.009   9.141   0.131
23309WAT     H270170   8.875   9.228   0.096
23310WAT      O70171   5.777   5.410   9.529
23310WAT     H170172   5.812   5.405   9.436
23310WAT     H270173   5.754   5.505   9.551
23311WAT      O70174   7.353   2.232   8.005
23311WAT     H170175   7.276   2.285   7.969
23311WAT     H270176   7.352   2.236   8.105
23312WAT      O70177   9.020   7.169   6.402
23312WAT     H170178   8.995   7.244   6.340
23312WAT     H270179   9.119   7.156   6.401
23313WAT      O70180   9.647   6.339   9.031
23313WAT     H170181   9.677   6.243   9.035
23313WAT     H270182   9.656   6.372   8.937
23314WAT      O70183   9.236   3.940   2.298
23314WAT     H170184   9.321   3.930   2.350
23314WAT     H270185   9.245   4.016   2.234
23315WAT      O70186   0.942   8.643   4.793
23315WAT     H170187   0.939   8.737   4.829
23315WAT     H270188   0.972   8.581   4.866
23316WAT      O70189   5.282   8.824   7.602
23316WAT     H170190   5.328   8.763   7.538
23316WAT     H270191   5.186   8.834   7.576
23317WAT      O70192   0.084   3.342   2.123
23317WAT     H170193   0.038   3.310   2.206
23317WAT     H270194   0.108   3.439   2.134
23318WAT      O70195   1.523   2.404   4.438
23318WAT     H170196   1.424   2.420   4.436
23318WAT     H270197   1.542   2.313   4.475
23319WAT      O70198   0.245   0.387   7.878
23319WAT     H170199   0.164   0.339   7.912
23319WAT     H270200   0.323   0.366   7.936
23320WAT      O70201   2.121   3.106   5.134
23320WAT     H170202   2.076   3.109   5.045
23320WAT     H270203   2.164   3.195   5.153
23321WAT      O70204   6.826   8.151   5.515
23321WAT     H170205   6.766   8.204   5.575
23321WAT     H270206   6.862   8.210   5.443
23322WAT      O70207   5.124   8.183   8.301
23322WAT     H170208   5.061   8.208   8.374
23322WAT     H270209   5.207   8.144   8.341
23323WAT      O70210   0.954   2.494   5.011
23323WAT     H170211   1.005   2.491   5.097
23323WAT     H270212   0.910   2.406   4.995
23324WAT      O70213   3.944   9.782   2.892
23324WAT     H170214   3.986   9.712   2.950
23324WAT     H270215   3.937   9.747   2.798
23325WAT      O70216   1.871   5.990   0.139
23325WAT     H170217   1.964   5.966   0.111
23325WAT     H270218   1.813   6.000   0.058
23326WAT      O70219   2.817   6.127   7.640
23326WAT     H170220   2.720   6.115   7.661
23326WAT     H270221   2.834   6.222   7.615
23327WAT      O70222   6.691   6.765   9.577
23327WAT     H170223   6.592   6.758   9.592
23327WAT     H270224   6.739   6.718   9.651
23328WAT      O70225   4.912   3.429   5.780
23328WAT     H170226   4.863   3.378   5.710
23328WAT     H270227   4.850   3.496   5.822
23329WAT      O70228   3.206   3.619   0.704
23329WAT     H170229   3.204   3.611   0.604
23329WAT     H270230   3.115   3.643   0.737
23330WAT      O70231   5.421   1.111   8.867
23330WAT     H170232   5.366   1.182   8.824
23330WAT     H270233   5.441   1.039   8.801
23331WAT      O70234   4.449   9.516   5.247
23331WAT     H170235   4.376   9.485   5.308
23331WAT     H270236   4.531   9.535   5.301
23332WAT      O70237   1.060   0.526   6.276
23332WAT     H170238   1.131   0.476   6.226
23332WAT     H270239   1.100   0.568   6.358
23333WAT      O70240   8.818   1.632   1.609
23333WAT     H170241   8.729   1.604   1.646
23333WAT     H270242   8.821   1.731   1.602
23334WAT      O70243   0.856   1.390   1.560
23334WAT     H170244   0.954   1.404   1.543
23334WAT     H270245   0.841   1.375   1.657
23335WAT      O70246   7.404   5.716   8.064
23335WAT     H170247   7.345   5.672   8.132
23335WAT     H270248   7.457   5.788   8.108
23336WAT      O70249   1.961   0.216   0.974
23336WAT     H170250   1.886   0.277   0.950
23336WAT     H270251   2.041   0.270   0.999
23337WAT      O70252   4.456   7.412   6.013
23337WAT     H170253   4.458   7.355   5.931
23337WAT     H270254   4.543   7.461   6.021
23338WAT      O70255   1.024   1.999   9.539
23338WAT     H170256   1.101   2.054   9.507
23338WAT     H270257   0.986   2.041   9.622
23339WAT      O70258   3.068   0.747   8.999
23339WAT     H170259   3.118   0.720   9.081
23339WAT     H270260   2.985   0.692   8.990
23340WAT      O70261   1.919   9.533   4.785
23340WAT     H170262   1.905   9.439   4.753
23340WAT     H270263   1.931   9.533   4.885
23341WAT      O70264   4.424   6.761   2.355
23341WAT     H170265   4.341   6.812   2.333
23341WAT     H270266   4.415   6.667   2.320
23342WAT      O70267   9.580   9.046   4.488
23342WAT     H170268   9.552   9.078   4.397
23342WAT     H270269   9.501   9.049   4.549
23343WAT      O70270   6.571   1.193   5.424
23343WAT     H170271   6.506   1.118   5.443
23343WAT     H270272   6.664   1.158   5.431
23344WAT      O70273   1.338   7.831   3.008
23344WAT     H170274   1.430   7.867   2.989
23344WAT     H270275   1.322   7.834   3.107
23345WAT      O70276   5.880   5.939   8.625
23345WAT     H170277   5.878   5.879   8.545
23345WAT     H270278   5.844   5.889   8.704
23346WAT      O70279   9.178   1.890   5.990
23346WAT     H170280   9.118   1.970   5.990
23346WAT     H270281   9.269   1.916   6.024
23347WAT      O70282   8.416   9.312   4.382
23347WAT     H170283   8.330   9.342   4.341
23347WAT     H270284   8.396   9.249   4.457
23348WAT      O70285   2.316   1.980   7.620
23348WAT     H170286   2.381   1.933   7.680
23348WAT     H270287   2.365   2.044   7.560
23349WAT      O70288   5.689   7.256   5.266
23349WAT     H170289   5.773   7.259   5.319
23349WAT     H270290   5.686   7.172   5.212
23350WAT      O70291   9.561   7.797   9.019
23350WAT     H170292   9.469   7.759   9.021
23350WAT     H270293   9.584   7.826   8.926
23351WAT      O70294   3.891   0.082   2.549
23351WAT     H170295   3.948   0.121   2.477
23351WAT     H270296   3.900   0.137   2.632
23352WAT      O70297   9.782   7.792   9.526
23352WAT     H170298   9.761   7.846   9.445
23352WAT     H270299   9.855   7.727   9.505
23353WAT      O70300   0.948   1.613   3.077
23353WAT     H170301   1.024   1.637   3.137
23353WAT     H270302   0.915   1.521   3.100
23354WAT      O70303   5.149   3.490   6.955
23354WAT     H170304   5.168   3.587   6.940
23354WAT     H270305   5.064   3.465   6.909
23355WAT      O70306   5.549   8.482   2.572
23355WAT     H170307   5.509   8.519   2.655
23355WAT     H270308   5.486   8.415   2.532
23356WAT      O70309   5.816   2.691   4.842
23356WAT     H170310   5.885   2.760   4.863
23356WAT     H270311   5.741   2.698   4.907
23357WAT      O70312   4.761   0.802   8.469
23357WAT     H170313   4.820   0.865   8.520
23357WAT     H270314   4.689   0.854   8.423
23358WAT      O70315   6.433   4.754   0.444
23358WAT     H170316   6.488   4.805   0.511
23358WAT     H270317   6.479   4.669   0.421
23359WAT      O70318   1.059   5.825   3.919
23359WAT     H170319   0.968   5.809   3.957
23359WAT     H270320   1.085   5.748   3.862
23360WAT      O70321   6.125   4.072   2.215
23360WAT     H170322   6.221   4.097   2.208
23360WAT     H270323   6.079   4.094   2.128
23361WAT      O70324   6.360   9.555   4.025
23361WAT     H170325   6.363   9.465   3.981
23361WAT     H270326   6.334   9.544   4.121
23362WAT      O70327   9.080   1.447   9.276
23362WAT     H170328   9.159   1.429   9.217
23362WAT     H270329   9.103   1.519   9.341
23363WAT      O70330   6.853   5.347   2.394
23363WAT     H170331   6.756   5.329   2.408
23363WAT     H270332   6.903   5.260   2.396
23364WAT      O70333   3.905   8.456   4.584
23364WAT     H170334   3.960   8.538   4.568
23364WAT     H270335   3.966   8.377   4.595
23365WAT      O70336   9.887   0.937   3.470
23365WAT     H170337   9.792   0.953   3.496
23365WAT     H270338   9.912   0.997   3.394
23366WAT      O70339   9.831   1.469   7.708
23366WAT     H170340   9.905   1.414   7.746
23366WAT     H270341   9.768   1.495   7.781
23367WAT      O70342   1.382   1.420   8.608
23367WAT     H170343   1.400   1.335   8.658
23367WAT     H270344   1.467   1.454   8.568
23368WAT      O70345   0.714   1.112   6.921
23368WAT     H170346   0.692   1.076   6.830
23368WAT     H270347   0.673   1.203   6.931
23369WAT      O70348   2.844   7.460   4.177
23369WAT     H170349   2.811   7.419   4.262
23369WAT     H270350   2.776   7.447   4.105
23370WAT      O70351   0.125   1.190   8.437
23370WAT     H170352   0.172   1.106   8.464
23370WAT     H270353   0.172   1.231   8.359
23371WAT      O70354   1.483   6.221   1.569
23371WAT     H170355   1.413   6.272   1.618
23371WAT     H270356   1.508   6.139   1.620
23372WAT      O70357   2.163   8.190   2.041
23372WAT     H170358   2.195   8.281   2.014
23372WAT     H270359   2.091   8.161   1.979
23373WAT      O70360   0.043   2.417   1.569
23373WAT     H170361   0.026   2.326   1.605
23373WAT     H270362   0.138   2.443   1.586
23374WAT      O70363   7.510   0.673   5.343
23374WAT     H170364   7.541   0.768   5.342
23374WAT     H270365   7.536   0.628   5.257
23375WAT      O70366   3.928   5.275   3.744
23375WAT     H170367   3.943   5.196   3.685
23375WAT     H270368   3.829   5.289   3.756
23376WAT      O70369   0.754   4.270   5.715
23376WAT     H170370   0.760   4.193   5.652
23376WAT     H270371   0.702   4.344   5.672
23377WAT      O70372   0.982   0.165   3.676
23377WAT     H170373   0.884   0.187   3.676
23377WAT     H270374   1.011   0.141   3.584
23378WAT      O70375   2.786   5.122   8.196
23378WAT     H170376   2.834   5.040   8.227
23378WAT     H270377   2.768   5.181   8.275
23379WAT      O70378   3.651   8.578   4.590
23379WAT     H170379   3.741   8.538   4.605
23379WAT     H270380   3.661   8.675   4.568
23380WAT      O70381   0.848   7.919   7.839
23380WAT     H170382   0.753   7.920   7.809
23380WAT     H270383   0.869   8.005   7.886
23381WAT      O70384   9.245   2.256   5.043
23381WAT     H170385   9.316   2.279   4.976
23381WAT     H270386   9.186   2.184   5.006
23382WAT      O70387   1.417   2.006   0.540
23382WAT     H170388   1.516   1.990   0.534
23382WAT     H270389   1.377   2.002   0.449
23383WAT      O70390   9.047   8.660   8.597
23383WAT     H170391   9.129   8.693   8.643
23383WAT     H270392   8.967   8.709   8.631
23384WAT      O70393   2.658   9.379   5.910
23384WAT     H170394   2.580   9.437   5.890
23384WAT     H270395   2.704   9.354   5.825
23385WAT      O70396   4.530   0.070   9.157
23385WAT     H170397   4.543   0.002   9.229
23385WAT     H270398   4.433   0.094   9.151
23386WAT      O70399   9.450   5.445   7.049
23386WAT     H170400   9.445   5.545   7.038
23386WAT     H270401   9.539   5.412   7.020
23387WAT      O70402   3.445   5.634   7.986
23387WAT     H170403   3.355   5.639   7.941
23387WAT     H270404   3.433   5.605   8.080
23388WAT      O70405   0.313   2.803   4.983
23388WAT     H170406   0.393   2.816   5.042
23388WAT     H270407   0.318   2.864   4.905
23389WAT      O70408   2.436   5.978   4.687
23389WAT     H170409   2.510   6.007   4.626
23389WAT     H270410   2.358   6.038   4.676
23390WAT      O70411   1.338   7.197   7.575
23390WAT     H170412   1.316   7.294   7.571
23390WAT     H270413   1.415   7.183   7.638
23391WAT      O70414   8.313   1.314   8.731
23391WAT     H170415   8.385   1.251   8.763
23391WAT     H270416   8.336   1.407   8.759
23392WAT      O70417   8.458   5.323   2.586
23392WAT     H170418   8.537   5.375   2.619
23392WAT     H270419   8.446   5.340   2.488
23393WAT      O70420   0.232   1.786   9.452
23393WAT     H170421   0.219   1.705   9.395
23393WAT     H270422   0.183   1.774   9.538
23394WAT      O70423   9.334   1.367   2.476
23394WAT     H170424   9.366   1.277   2.444
23394WAT     H270425   9.355   1.377   2.574
23395WAT      O70426   0.984   2.502   7.740
23395WAT     H170427   0.976   2.489   7.839
23395WAT     H270428   0.937   2.427   7.693
23396WAT      O70429   8.800   8.173   7.424
23396WAT     H170430   8.702   8.173   7.408
23396WAT     H270431   8.820   8.217   7.511
23397WAT      O70432   7.928   9.773   2.446
23397WAT     H170433   7.996   9.788   2.375
23397WAT     H270434   7.895   9.679   2.442
23398WAT      O70435   8.263   5.394   0.656
23398WAT     H170436   8.309   5.395   0.745
23398WAT     H270437   8.229   5.301   0.637
23399WAT      O70438   4.537   0.881   3.561
23399WAT     H170439   4.574   0.968   3.529
23399WAT     H270440   4.439   0.892   3.581
23400WAT      O70441   9.548   2.917   2.670
23400WAT     H170442   9.622   2.868   2.623
23400WAT     H270443   9.565   3.015   2.664
23401WAT      O70444   5.669   4.512   2.742
23401WAT     H170445   5.626   4.498   2.653
23401WAT     H270446   5.656   4.607   2.770
23402WAT      O70447   8.481   7.183   8.707
23402WAT     H170448   8.530   7.236   8.776
23402WAT     H270449   8.522   7.092   8.700
23403WAT      O70450   2.758   8.853   2.191
23403WAT     H170451   2.812   8.770   2.174
23403WAT     H270452   2.663   8.837   2.163
23404WAT      O70453   9.742   8.748   7.001
23404WAT     H170454   9.789   8.836   6.999
23404WAT     H270455   9.660   8.752   6.944
23405WAT      O70456   0.623   9.333   7.448
23405WAT     H170457   0.580   9.381   7.524
23405WAT     H270458   0.558   9.269   7.407
23406WAT      O70459   3.396   1.722   0.583
23406WAT     H170460   3.316   1.745   0.528
23406WAT     H270461   3.394   1.774   0.668
23407WAT      O70462   0.232   9.000   1.463
23407WAT     H170463   0.302   9.029   1.398
23407WAT     H270464   0.238   8.901   1.476
23408WAT      O70465   4.189   9.314   0.159
23408WAT     H170466   4.259   9.292   0.227
23408WAT     H270467   4.176   9.413   0.156
23409WAT      O70468   9.081   4.816   4.610
23409WAT     H170469   9.059   4.786   4.703
23409WAT     H270470   9.179   4.830   4.602
23410WAT      O70471   6.155   0.860   0.153
23410WAT     H170472   6.207   0.928   0.103
23410WAT     H270473   6.106   0.903   0.229
23411WAT      O70474   5.951   0.124   9.104
23411WAT     H170475   5.985   0.089   9.192
23411WAT     H270476   5.873   0.068   9.074
23412WAT      O70477   6.516   8.265   6.707
23412WAT     H170478   6.544   8.170   6.720
23412WAT     H270479   6.513   8.310   6.796
23413WAT      O70480   0.442   1.116   2.315
23413WAT     H170481   0.366   1.061   2.282
23413WAT     H270482   0.409   1.206   2.343
23414WAT      O70483   6.756   5.611   1.277
23414WAT     H170484   6.661   5.618   1.309
23414WAT     H270485   6.769   5.668   1.196
23415WAT      O70486   8.192   7.224   1.193
23415WAT     H170487   8.263   7.214   1.262
23415WAT     H270488   8.104   7.238   1.238
23416WAT      O70489   0.988   4.236   1.058
23416WAT     H170490   0.941   4.312   1.012
23416WAT     H270491   0.934   4.206   1.136
23417WAT      O70492   1.513   1.894   9.736
23417WAT     H170493   1.438   1.830   9.718
23417WAT     H270494   1.558   1.917   9.650
23418WAT      O70495   2.585   6.939   5.599
23418WAT     H170496   2.679   6.973   5.595
23418WAT     H270497   2.538   6.979   5.677
23419WAT      O70498   3.682   4.317   0.794
23419WAT     H170499   3.717   4.403   0.756
23419WAT     H270500   3.743   4.242   0.769
23420WAT      O70501   1.647   0.774   0.629
23420WAT     H170502   1.612   0.837   0.699
23420WAT     H270503   1.739   0.802   0.602
23421WAT      O70504   1.264   3.294   2.141
23421WAT     H170505   1.258   3.347   2.056
23421WAT     H270506   1.265   3.196   2.118
23422WAT      O70507   0.713   4.154   7.115
23422WAT     H170508   0.680   4.248   7.107
23422WAT     H270509   0.765   4.129   7.033
23423WAT      O70510   3.857   4.940   5.251
23423WAT     H170511   3.893   5.028   5.218
23423WAT     H270512   3.766   4.926   5.212
23424WAT      O70513   1.454   0.336   5.689
23424WAT     H170514   1.385   0.307   5.622
23424WAT     H270515   1.543   0.300   5.662
23425WAT      O70516   6.179   5.745   0.141
23425WAT     H170517   6.176   5.645   0.128
23425WAT     H270518   6.089   5.783   0.120
23426WAT      O70519   9.331   7.569   5.058
23426WAT     H170520   9.369   7.511   4.986
23426WAT     H270521   9.405   7.618   5.105
23427WAT      O70522   4.263   3.789   5.507
23427WAT     H170523   4.351   3.788   5.461
23427WAT     H270524   4.204   3.857   5.465
23428WAT      O70525   8.826   6.648   2.800
23428WAT     H170526   8.911   6.651   2.851
23428WAT     H270527   8.766   6.578   2.838
23429WAT      O70528   1.716   4.682   6.652
23429WAT     H170529   1.625   4.649   6.630
23429WAT     H270530   1.710   4.768   6.703
23430WAT      O70531   4.620   1.345   5.526
23430WAT     H170532   4.680   1.304   5.595
23430WAT     H270533   4.665   1.343   5.437
23431WAT      O70534   6.348   2.018   6.591
23431WAT     H170535   6.327   1.936   6.538
23431WAT     H270536   6.399   1.993   6.673
23432WAT      O70537   3.568   9.140   5.576
23432WAT     H170538   3.556   9.139   5.477
23432WAT     H270539   3.656   9.183   5.598
23433WAT      O70540   0.770   0.824   4.584
23433WAT     H170541   0.721   0.800   4.500
23433WAT     H270542   0.803   0.741   4.628
23434WAT      O70543   1.038   8.195   0.933
23434WAT     H170544   0.950   8.152   0.913
23434WAT     H270545   1.077   8.154   1.015
23435WAT      O70546   8.287   3.876   0.377
23435WAT     H170547   8.385   3.874   0.353
23435WAT     H270548   8.234   3.896   0.295
23436WAT      O70549   8.201   4.382   7.905
23436WAT     H170550   8.244   4.389   7.815
23436WAT     H270551   8.269   4.352   7.972
23437WAT      O70552   4.103   2.102   5.154
23437WAT     H170553   4.044   2.056   5.088
23437WAT     H270554   4.098   2.055   5.242
23438WAT      O70555   3.783   5.617   2.881
23438WAT     H170556   3.805   5.711   2.908
23438WAT     H270557   3.866   5.561   2.883
23439WAT      O70558   5.196   6.006   9.507
23439WAT     H170559   5.250   6.074   9.457
23439WAT     H270560   5.152   5.944   9.442
23440WAT      O70561   1.490   3.618   0.631
23440WAT     H170562   1.506   3.608   0.729
23440WAT     H270563   1.502   3.714   0.605
23441WAT      O70564   3.064   5.993   9.195
23441WAT     H170565   3.153   6.025   9.164
23441WAT     H270566   3.042   6.037   9.283
23442WAT      O70567   2.431   2.929   5.465
23442WAT     H170568   2.397   2.932   5.371
23442WAT     H270569   2.390   3.003   5.518
23443WAT      O70570   1.357   2.766   6.230
23443WAT     H170571   1.284   2.791   6.294
23443WAT     H270572   1.445   2.796   6.266
23444WAT      O70573   8.406   1.580   6.115
23444WAT     H170574   8.504   1.581   6.138
23444WAT     H270575   8.364   1.666   6.143
23445WAT      O70576   5.898   9.302   9.704
23445WAT     H170577   5.804   9.312   9.670
23445WAT     H270578   5.908   9.355   9.788
23446WAT      O70579   8.728   4.988   2.977
23446WAT     H170580   8.703   5.054   3.048
23446WAT     H270581   8.764   4.905   3.020
23447WAT      O70582   5.297   3.888   4.820
23447WAT     H170583   5.306   3.912   4.917
23447WAT     H270584   5.333   3.963   4.764
23448WAT      O70585   9.358   9.331   4.855
23448WAT     H170586   9.272   9.327   4.905
23448WAT     H270587   9.340   9.329   4.756
23449WAT      O70588   9.237   6.052   9.074
23449WAT     H170589   9.277   6.136   9.038
23449WAT     H270590   9.239   6.054   9.174
23450WAT      O70591   4.197   9.668   3.604
23450WAT     H170592   4.209   9.743   3.668
23450WAT     H270593   4.252   9.590   3.633
23451WAT      O70594   4.424   1.518   3.030
23451WAT     H170595   4.391   1.485   3.118
23451WAT     H270596   4.372   1.598   3.002
23452WAT      O70597   8.106   2.488   3.700
23452WAT     H170598   8.176   2.510   3.768
23452WAT     H270599   8.149   2.450   3.619
23453WAT      O70600   3.401   8.621   8.278
23453WAT     H170601   3.315   8.664   8.251
23453WAT     H270602   3.476   8.660   8.224
23454WAT      O70603   5.956   8.681   7.691
23454WAT     H170604   6.024   8.646   7.627
23454WAT     H270605   5.869   8.634   7.675
23455WAT      O70606   5.710   5.053   8.662
23455WAT     H170607   5.738   5.030   8.755
23455WAT     H270608   5.610   5.058   8.658
23456WAT      O70609   8.589   3.595   0.937
23456WAT     H170610   8.590   3.693   0.955
23456WAT     H270611   8.680   3.557   0.955
23457WAT      O70612   3.450   1.217   3.373
23457WAT     H170613   3.517   1.241   3.443
23457WAT     H270614   3.487   1.239   3.283
23458WAT      O70615   8.230   5.537   9.828
23458WAT     H170616   8.195   5.630   9.835
23458WAT     H270617   8.221   5.491   9.916
23459WAT      O70618   7.520   9.747   9.512
23459WAT     H170619   7.585   9.822   9.518
23459WAT     H270620   7.532   9.699   9.425
23460WAT      O70621   0.498   7.766   6.433
23460WAT     H170622   0.442   7.798   6.510
23460WAT     H270623   0.564   7.699   6.466
23461WAT      O70624   0.811   8.206   2.976
23461WAT     H170625   0.730   8.181   3.028
23461WAT     H270626   0.840   8.128   2.920
23462WAT      O70627   7.797   3.223   0.433
23462WAT     H170628   7.862   3.271   0.374
23462WAT     H270629   7.775   3.134   0.392
23463WAT      O70630   8.466   5.587   7.563
23463WAT     H170631   8.432   5.648   7.635
23463WAT     H270632   8.563   5.567   7.580
23464WAT      O70633   0.436   4.373   9.826
23464WAT     H170634   0.371   4.306   9.862
23464WAT     H270635   0.526   4.330   9.819
23465WAT      O70636   9.350   5.714   9.433
23465WAT     H170637   9.412   5.636   9.437
23465WAT     H270638   9.325   5.731   9.337
23466WAT      O70639   1.637   6.635   6.424
23466WAT     H170640   1.607   6.625   6.519
23466WAT     H270641   1.702   6.710   6.416
23467WAT      O70642   5.172   8.902   8.113
23467WAT     H170643   5.135   8.903   8.020
23467WAT     H270644   5.198   8.809   8.138
23468WAT      O70645   7.269   1.900   7.154
23468WAT     H170646   7.225   1.935   7.236
23468WAT     H270647   7.270   1.800   7.157
23469WAT      O70648   0.239   5.735   9.032
23469WAT     H170649   0.215   5.684   9.115
23469WAT     H270650   0.198   5.690   8.952
23470WAT      O70651   8.875   7.491   6.406
23470WAT     H170652   8.953   7.553   6.398
23470WAT     H270653   8.871   7.431   6.327
23471WAT      O70654   3.914   6.510   5.906
23471WAT     H170655   3.962   6.500   5.819
23471WAT     H270656   3.901   6.607   5.926
23472WAT      O70657   7.750   5.335   0.682
23472WAT     H170658   7.818   5.284   0.630
23472WAT     H270659   7.788   5.424   0.710
23473WAT      O70660   1.237   7.970   9.796
23473WAT     H170661   1.248   8.047   9.858
23473WAT     H270662   1.320   7.915   9.796
23474WAT      O70663   0.298   3.018   1.342
23474WAT     H170664   0.332   3.030   1.435
23474WAT     H270665   0.324   2.928   1.308
23475WAT      O70666   4.832   3.352   7.295
23475WAT     H170667   4.880   3.271   7.261
23475WAT     H270668   4.742   3.357   7.253
23476WAT      O70669   2.287   2.551   2.343
23476WAT     H170670   2.319   2.465   2.381
23476WAT     H270671   2.290   2.622   2.414
23477WAT      O70672   5.111   4.976   2.466
23477WAT     H170673   5.057   4.907   2.515
23477WAT     H270674   5.072   4.991   2.375
23478WAT      O70675   8.875   4.078   3.516
23478WAT     H170676   8.902   4.037   3.429
23478WAT     H270677   8.829   4.165   3.499
23479WAT      O70678   4.671   1.912   9.381
23479WAT     H170679   4.769   1.915   9.362
23479WAT     H270680   4.657   1.916   9.480
23480WAT      O70681   0.243   1.862   3.057
23480WAT     H170682   0.223   1.870   2.960
23480WAT     H270683   0.200   1.938   3.106
23481WAT      O70684   1.557   3.970   5.277
23481WAT     H170685   1.643   3.936   5.316
23481WAT     H270686   1.512   3.895   5.228
23482WAT      O70687   2.542   3.675   5.728
23482WAT     H170688   2.586   3.634   5.648
23482WAT     H270689   2.479   3.609   5.769
23483WAT      O70690   9.731   7.840   2.856
23483WAT     H170691   9.774   7.754   2.829
23483WAT     H270692   9.800   7.901   2.896
23484WAT      O70693   6.628   5.167   1.724
23484WAT     H170694   6.637   5.104   1.802
23484WAT     H270695   6.535   5.204   1.722
23485WAT      O70696   5.048   6.666   2.097
23485WAT     H170697   4.964   6.698   2.053
23485WAT     H270698   5.101   6.612   2.032
23486WAT      O70699   4.730   7.993   9.812
23486WAT     H170700   4.748   8.079   9.859
23486WAT     H270701   4.734   8.009   9.713
23487WAT      O70702   5.744   2.391   1.915
23487WAT     H170703   5.793   2.411   1.830
23487WAT     H270704   5.680   2.316   1.901
23488WAT      O70705   4.085   0.636   6.972
23488WAT     H170706   4.008   0.630   7.035
23488WAT     H270707   4.059   0.599   6.883
23489WAT      O70708   2.838   1.829   9.575
23489WAT     H170709   2.912   1.896   9.579
23489WAT     H270710   2.776   1.852   9.501
23490WAT      O70711   1.752   3.126   6.091
23490WAT     H170712   1.720   3.212   6.131
23490WAT     H270713   1.806   3.145   6.009
23491WAT      O70714   9.542   7.453   4.259
23491WAT     H170715   9.473   7.512   4.218
23491WAT     H270716   9.558   7.482   4.354
23492WAT      O70717   9.831   1.392   9.315
23492WAT     H170718   9.893   1.314   9.309
23492WAT     H270719   9.742   1.367   9.275
23493WAT      O70720   2.174   2.789   6.259
23493WAT     H170721   2.173   2.728   6.180
23493WAT     H270722   2.083   2.792   6.300
23494WAT      O70723   4.484   8.599   9.868
23494WAT     H170724   4.459   8.694   9.887
23494WAT     H270725   4.405   8.550   9.831
23495WAT      O70726   7.246   9.168   9.071
23495WAT     H170727   7.150   9.156   9.095
23495WAT     H270728   7.296   9.200   9.152
23496WAT      O70729   3.213   2.246   6.610
23496WAT     H170730   3.151   2.177   6.573
23496WAT     H270731   3.304   2.206   6.622
23497WAT      O70732   3.412   3.634   3.832
23497WAT     H170733   3.407   3.580   3.747
23497WAT     H270734   3.508   3.644   3.859
23498WAT      O70735   5.025   1.901   7.965
23498WAT     H170736   5.049   1.959   8.044
23498WAT     H270737   5.012   1.959   7.885
23499WAT      O70738   7.942   9.738   2.058
23499WAT     H170739   7.906   9.668   2.120
23499WAT     H270740   7.867   9.796   2.027
23500WAT      O70741   9.231   2.914   8.468
23500WAT     H170742   9.202   2.824   8.436
23500WAT     H270743   9.302   2.950   8.408
23501WAT      O70744   3.396   0.660   9.416
23501WAT     H170745   3.366   0.582   9.471
23501WAT     H270746   3.488   0.687   9.444
23502WAT      O70747   8.121   1.965   7.834
23502WAT     H170748   8.054   1.911   7.885
23502WAT     H270749   8.213   1.934   7.856
23503WAT      O70750   9.087   8.256   7.881
23503WAT     H170751   9.149   8.221   7.811
23503WAT     H270752   9.130   8.335   7.926
23504WAT      O70753   2.944   8.972   3.160
23504WAT     H170754   2.908   8.917   3.235
23504WAT     H270755   2.999   8.914   3.100
23505WAT      O70756   3.935   3.612   0.552
23505WAT     H170757   3.943   3.546   0.478
23505WAT     H270758   3.961   3.568   0.638
23506WAT      O70759   6.726   9.703   9.115
23506WAT     H170760   6.647   9.751   9.076
23506WAT     H270761   6.696   9.617   9.156
23507WAT      O70762   5.938   3.692   7.270
23507WAT     H170763   5.974   3.735   7.353
23507WAT     H270764   5.840   3.675   7.281
23508WAT      O70765   0.457   3.383   8.260
23508WAT     H170766   0.449   3.323   8.339
23508WAT     H270767   0.404   3.346   8.184
23509WAT      O70768   1.808   0.899   8.429
23509WAT     H170769   1.871   0.959   8.380
23509WAT     H270770   1.841   0.885   8.522
23510WAT      O70771   9.100   6.571   9.885
23510WAT     H170772   9.098   6.530   9.794
23510WAT     H270773   9.153   6.656   9.882
23511WAT      O70774   1.265   9.365   8.174
23511WAT     H170775   1.292   9.461   8.165
23511WAT     H270776   1.344   9.311   8.204
23512WAT      O70777   0.189   7.331   0.401
23512WAT     H170778   0.231   7.251   0.443
23512WAT     H270779   0.093   7.311   0.380
23513WAT      O70780   3.086   0.173   7.456
23513WAT     H170781   3.144   0.236   7.508
23513WAT     H270782   3.057   0.098   7.515
23514WAT      O70783   4.730   7.064   1.675
23514WAT     H170784   4.800   6.996   1.653
23514WAT     H270785   4.650   7.018   1.713
23515WAT      O70786   1.735   1.606   6.887
23515WAT     H170787   1.709   1.612   6.984
23515WAT     H270788   1.783   1.520   6.870
23516WAT      O70789   1.926   6.426   8.210
23516WAT     H170790   1.986   6.493   8.254
23516WAT     H270791   1.867   6.473   8.144
23517WAT      O70792   0.848   5.918   0.847
23517WAT     H170793   0.772   5.926   0.912
23517WAT     H270794   0.835   5.837   0.790
23518WAT      O70795   6.736   3.478   3.618
23518WAT     H170796   6.690   3.469   3.529
23518WAT     H270797   6.830   3.509   3.604
23519WAT      O70798   1.489   8.562   7.423
23519WAT     H170799   1.547   8.547   7.342
23519WAT     H270800   1.416   8.493   7.425
23520WAT      O70801   5.396   1.705   1.567
23520WAT     H170802   5.300   1.733   1.562
23520WAT     H270803   5.414   1.635   1.498
23521WAT      O70804   6.557   3.636   4.023
23521WAT     H170805   6.656   3.643   4.034
23521WAT     H270806   6.526   3.549   4.062
23522WAT      O70807   5.310   5.555   0.908
23522WAT     H170808   5.296   5.488   0.835
23522WAT     H270809   5.225   5.604   0.926
23523WAT      O70810   1.937   2.366   1.504
23523WAT     H170811   1.954   2.340   1.599
23523WAT     H270812   1.949   2.465   1.494
23524WAT      O70813   8.724   0.569   5.664
23524WAT     H170814   8.765   0.639   5.723
23524WAT     H270815   8.634   0.601   5.633
23525WAT      O70816   5.765   2.744   4.577
23525WAT     H170817   5.764   2.706   4.669
23525WAT     H270818   5.859   2.747   4.543
23526WAT      O70819   7.868   8.119   6.794
23526WAT     H170820   7.809   8.184   6.844
23526WAT     H270821   7.837   8.026   6.814
23527WAT      O70822   4.675   0.612   1.960
23527WAT     H170823   4.597   0.556   1.986
23527WAT     H270824   4.660   0.650   1.869
23528WAT      O70825   3.328   9.343   4.741
23528WAT     H170826   3.253   9.347   4.675
23528WAT     H270827   3.415   9.358   4.694
23529WAT      O70828   0.396   8.006   7.163
23529WAT     H170829   0.434   8.020   7.254
23529WAT     H270830   0.296   8.008   7.167
23530WAT      O70831   2.232   5.150   3.927
23530WAT     H170832   2.192   5.215   3.862
23530WAT     H270833   2.263   5.069   3.878
23531WAT      O70834   8.258   3.761   7.928
23531WAT     H170835   8.357   3.774   7.925
23531WAT     H270836   8.214   3.847   7.952
23532WAT      O70837   6.937   9.091   2.609
23532WAT     H170838   6.980   9.010   2.650
23532WAT     H270839   6.884   9.139   2.679
23533WAT      O70840   0.218   4.086   8.514
23533WAT     H170841   0.271   4.011   8.475
23533WAT     H270842   0.166   4.053   8.593
23534WAT      O70843   4.638   9.311   9.611
23534WAT     H170844   4.678   9.223   9.635
23534WAT     H270845   4.550   9.296   9.567
23535WAT      O70846   6.876   1.358   0.478
23535WAT     H170847   6.956   1.371   0.536
23535WAT     H270848   6.888   1.409   0.392
23536WAT      O70849   8.363   1.784   5.181
23536WAT     H170850   8.461   1.796   5.163
23536WAT     H270851   8.328   1.866   5.227
23537WAT      O70852   8.553   0.102   1.661
23537WAT     H170853   8.575   0.104   1.563
23537WAT     H270854   8.601   0.176   1.708
23538WAT      O70855   0.968   4.592   2.298
23538WAT     H170856   0.954   4.520   2.230
23538WAT     H270857   0.978   4.551   2.389
23539WAT      O70858   5.535   4.555   1.055
23539WAT     H170859   5.605   4.485   1.069
23539WAT     H270860   5.571   4.644   1.083
23540WAT      O70861   3.351   9.497   2.728
23540WAT     H170862   3.322   9.402   2.721
23540WAT     H270863   3.411   9.508   2.808
23541WAT      O70864   9.001   1.289   4.513
23541WAT     H170865   8.988   1.301   4.611
23541WAT     H270866   8.998   1.379   4.468
23542WAT      O70867   5.743   9.006   4.725
23542WAT     H170868   5.718   9.099   4.699
23542WAT     H270869   5.794   9.008   4.811
23543WAT      O70870   5.313   3.676   4.051
23543WAT     H170871   5.231   3.699   4.103
23543WAT     H270872   5.298   3.697   3.954
23544WAT      O70873   4.935   1.302   1.258
23544WAT     H170874   4.899   1.379   1.310
23544WAT     H270875   5.028   1.282   1.287
23545WAT      O70876   2.213   8.704   1.866
23545WAT     H170877   2.140   8.656   1.916
23545WAT     H270878   2.192   8.802   1.864
23546WAT      O70879   8.597   5.776   2.055
23546WAT     H170880   8.543   5.708   2.004
23546WAT     H270881   8.536   5.828   2.114
23547WAT      O70882   0.291   3.812   0.667
23547WAT     H170883   0.285   3.855   0.757
23547WAT     H270884   0.200   3.811   0.625
23548WAT      O70885   7.524   5.452   5.517
23548WAT     H170886   7.623   5.437   5.511
23548WAT     H270887   7.477   5.364   5.521
23549WAT      O70888   0.558   4.440   0.316
23549WAT     H170889   0.643   4.388   0.320
23549WAT     H270890   0.480   4.378   0.313
23550WAT      O70891   4.751   3.490   4.079
23550WAT     H170892   4.712   3.406   4.043
23550WAT     H270893   4.688   3.530   4.146
23551WAT      O70894   3.008   3.641   9.443
23551WAT     H170895   3.046   3.702   9.512
23551WAT     H270896   3.009   3.547   9.477
23552WAT      O70897   8.677   4.859   1.270
23552WAT     H170898   8.713   4.779   1.222
23552WAT     H270899   8.667   4.935   1.205
23553WAT      O70900   5.867   7.003   5.833
23553WAT     H170901   5.860   7.090   5.882
23553WAT     H270902   5.819   7.009   5.746
23554WAT      O70903   3.159   4.129   3.356
23554WAT     H170904   3.206   4.070   3.290
23554WAT     H270905   3.067   4.094   3.373
23555WAT      O70906   9.127   5.651   4.834
23555WAT     H170907   9.219   5.690   4.838
23555WAT     H270908   9.061   5.720   4.865
23556WAT      O70909   1.236   1.834   7.787
23556WAT     H170910   1.331   1.853   7.763
23556WAT     H270911   1.176   1.898   7.740
23557WAT      O70912   4.069   8.041   8.514
23557WAT     H170913   4.049   7.945   8.534
23557WAT     H270914   4.125   8.080   8.588
23558WAT      O70915   8.903   9.567   5.221
23558WAT     H170916   8.810   9.535   5.240
23558WAT     H270917   8.949   9.588   5.307
23559WAT      O70918   1.466   7.624   1.586
23559WAT     H170919   1.389   7.662   1.638
23559WAT     H270920   1.547   7.622   1.644
23560WAT      O70921   2.924   9.335   2.570
23560WAT     H170922   2.946   9.400   2.643
23560WAT     H270923   2.848   9.370   2.516
23561WAT      O70924   7.196   1.668   1.755
23561WAT     H170925   7.190   1.757   1.801
23561WAT     H270926   7.191   1.595   1.823
23562WAT      O70927   6.989   2.155   9.274
23562WAT     H170928   6.966   2.246   9.239
23562WAT     H270929   7.069   2.162   9.334
23563WAT      O70930   9.285   5.268   6.450
23563WAT     H170931   9.355   5.317   6.502
23563WAT     H270932   9.306   5.170   6.451
23564WAT      O70933   2.501   6.229   0.120
23564WAT     H170934   2.401   6.225   0.117
23564WAT     H270935   2.529   6.297   0.187
23565WAT      O70936   5.297   4.271   2.430
23565WAT     H170937   5.273   4.314   2.517
23565WAT     H270938   5.296   4.341   2.358
23566WAT      O70939   3.677   9.262   8.822
23566WAT     H170940   3.679   9.231   8.916
23566WAT     H270941   3.602   9.328   8.810
23567WAT      O70942   9.676   7.201   6.604
23567WAT     H170943   9.659   7.299   6.616
23567WAT     H270944   9.750   7.172   6.664
23568WAT      O70945   7.748   2.802   8.641
23568WAT     H170946   7.650   2.783   8.644
23568WAT     H270947   7.791   2.770   8.725
23569WAT      O70948   0.395   8.730   2.964
23569WAT     H170949   0.482   8.722   3.012
23569WAT     H270950   0.392   8.817   2.915
23570WAT      O70951   0.193   7.419   7.005
23570WAT     H170952   0.242   7.393   7.088
23570WAT     H270953   0.100   7.447   7.028
23571WAT      O70954   7.444   7.407   4.650
23571WAT     H170955   7.411   7.314   4.632
23571WAT     H270956   7.416   7.434   4.743
23572WAT      O70957   6.479   8.564   8.242
23572WAT     H170958   6.456   8.505   8.319
23572WAT     H270959   6.459   8.516   8.157
23573WAT      O70960   4.804   6.342   9.738
23573WAT     H170961   4.847   6.324   9.650
23573WAT     H270962   4.803   6.258   9.793
23574WAT      O70963   0.797   2.481   0.748
23574WAT     H170964   0.794   2.524   0.658
23574WAT     H270965   0.741   2.534   0.812
23575WAT      O70966   5.746   4.846   4.400
23575WAT     H170967   5.717   4.887   4.313
23575WAT     H270968   5.665   4.826   4.455
23576WAT      O70969   2.270   0.329   9.132
23576WAT     H170970   2.233   0.237   9.118
23576WAT     H270971   2.369   0.323   9.147
23577WAT      O70972   7.332   1.451   6.908
23577WAT     H170973   7.309   1.548   6.911
23577WAT     H270974   7.428   1.438   6.934
23578WAT      O70975   7.381   6.373   6.697
23578WAT     H170976   7.339   6.283   6.683
23578WAT     H270977   7.386   6.421   6.610
23579WAT      O70978   8.121   8.304   1.283
23579WAT     H170979   8.206   8.350   1.258
23579WAT     H270980   8.141   8.231   1.349
23580WAT      O70981   5.799   7.014   1.356
23580WAT     H170982   5.786   6.996   1.258
23580WAT     H270983   5.711   7.005   1.403
23581WAT      O70984   0.063   5.109   5.018
23581WAT     H170985   0.067   5.013   4.987
23581WAT     H270986   0.020   5.165   4.947
23582WAT      O70987   3.270   9.781   7.785
23582WAT     H170988   3.341   9.833   7.739
23582WAT     H270989   3.183   9.795   7.739
23583WAT      O70990   0.128   7.621   6.312
23583WAT     H170991   0.092   7.713   6.325
23583WAT     H270992   0.103   7.563   6.390
23584WAT      O70993   8.337   5.235   6.279
23584WAT     H170994   8.367   5.328   6.302
23584WAT     H270995   8.303   5.233   6.185
23585WAT      O70996   1.446   4.093   1.084
23585WAT     H170997   1.462   4.114   1.180
23585WAT     H270998   1.397   4.006   1.076
23586WAT      O70999   0.847   1.900   8.896
23586WAT     H171000   0.823   1.821   8.839
23586WAT     H271001   0.947   1.911   8.897
23587WAT      O71002   2.509   1.349   8.369
23587WAT     H171003   2.572   1.415   8.331
23587WAT     H271004   2.457   1.391   8.444
23588WAT      O71005   8.895   8.948   9.368
23588WAT     H171006   8.975   9.006   9.350
23588WAT     H271007   8.898   8.919   9.464
23589WAT      O71008   8.758   5.658   7.058
23589WAT     H171009   8.798   5.748   7.076
23589WAT     H271010   8.663   5.669   7.028
23590WAT      O71011   1.809   6.464   9.635
23590WAT     H171012   1.821   6.551   9.682
23590WAT     H271013   1.719   6.462   9.590
23591WAT      O71014   2.004   5.696   7.800
23591WAT     H171015   2.047   5.637   7.732
23591WAT     H271016   1.982   5.643   7.882
23592WAT      O71017   8.451   9.764   4.401
23592WAT     H171018   8.354   9.741   4.409
23592WAT     H271019   8.500   9.688   4.359
23593WAT      O71020   2.519   9.394   8.465
23593WAT     H171021   2.593   9.435   8.411
23593WAT     H271022   2.445   9.460   8.476
23594WAT      O71023   1.650   3.226   3.092
23594WAT     H171024   1.662   3.224   2.993
23594WAT     H271025   1.629   3.134   3.125
23595WAT      O71026   9.665   2.798   7.503
23595WAT     H171027   9.636   2.813   7.597
23595WAT     H271028   9.756   2.757   7.502
23596WAT      O71029   8.372   3.224   8.672
23596WAT     H171030   8.375   3.182   8.581
23596WAT     H271031   8.431   3.173   8.734
23597WAT      O71032   3.715   8.605   2.596
23597WAT     H171033   3.775   8.661   2.541
23597WAT     H271034   3.639   8.660   2.630
23598WAT      O71035   6.719   8.654   0.601
23598WAT     H171036   6.706   8.721   0.529
23598WAT     H271037   6.789   8.686   0.665
23599WAT      O71038   3.985   8.054   5.043
23599WAT     H171039   3.916   8.073   4.973
23599WAT     H271040   4.030   7.967   5.024
23600WAT      O71041   6.577   7.476   9.239
23600WAT     H171042   6.604   7.554   9.183
23600WAT     H271043   6.541   7.510   9.327
23601WAT      O71044   5.495   5.356   8.866
23601WAT     H171045   5.540   5.444   8.882
23601WAT     H271046   5.536   5.286   8.925
23602WAT      O71047   3.623   1.259   1.404
23602WAT     H171048   3.709   1.224   1.440
23602WAT     H271049   3.639   1.343   1.353
23603WAT      O71050   2.650   8.294   9.135
23603WAT     H171051   2.620   8.340   9.218
23603WAT     H271052   2.727   8.234   9.157
23604WAT      O71053   5.642   3.445   7.493
23604WAT     H171054   5.667   3.367   7.434
23604WAT     H271055   5.639   3.415   7.588
23605WAT      O71056   1.361   1.323   9.614
23605WAT     H171057   1.367   1.291   9.709
23605WAT     H271058   1.283   1.384   9.605
23606WAT      O71059   1.041   4.563   3.372
23606WAT     H171060   0.945   4.538   3.357
23606WAT     H271061   1.081   4.593   3.286
23607WAT      O71062   0.632   0.746   8.929
23607WAT     H171063   0.626   0.647   8.916
23607WAT     H271064   0.542   0.782   8.956
23608WAT      O71065   4.563   6.187   9.555
23608WAT     H171066   4.534   6.237   9.474
23608WAT     H271067   4.663   6.182   9.558
23609WAT      O71068   8.733   9.513   0.253
23609WAT     H171069   8.733   9.476   0.346
23609WAT     H271070   8.676   9.595   0.249
23610WAT      O71071   3.362   7.984   6.397
23610WAT     H171072   3.315   7.896   6.390
23610WAT     H271073   3.298   8.058   6.375
23611WAT      O71074   0.350   6.210   4.557
23611WAT     H171075   0.402   6.177   4.478
23611WAT     H271076   0.406   6.201   4.639
23612WAT      O71077   2.368   6.591   5.659
23612WAT     H171078   2.354   6.497   5.688
23612WAT     H271079   2.361   6.651   5.739
23613WAT      O71080   0.923   4.719   7.858
23613WAT     H171081   0.942   4.721   7.956
23613WAT     H271082   0.833   4.758   7.841
23614WAT      O71083   7.276   5.090   4.270
23614WAT     H171084   7.239   5.068   4.360
23614WAT     H271085   7.317   5.181   4.272
23615WAT      O71086   7.005   2.019   7.291
23615WAT     H171087   6.944   1.995   7.216
23615WAT     H271088   7.004   2.118   7.305
23616WAT      O71089   7.055   9.834   0.068
23616WAT     H171090   7.033   9.780   0.149
23616WAT     H271091   7.042   9.778  -0.014
23617WAT      O71092   3.503   1.292   7.087
23617WAT     H171093   3.443   1.242   7.149
23617WAT     H271094   3.584   1.323   7.136
23618WAT      O71095   2.986   1.826   7.409
23618WAT     H171096   2.966   1.755   7.342
23618WAT     H271097   2.906   1.841   7.467
23619WAT      O71098   3.936   8.849   2.008
23619WAT     H171099   3.843   8.845   2.045
23619WAT     H271100   3.935   8.890   1.917
23620WAT      O71101   2.224   4.508   0.244
23620WAT     H171102   2.166   4.517   0.325
23620WAT     H271103   2.319   4.496   0.272
23621WAT      O71104   6.735   5.007   9.817
23621WAT     H171105   6.740   4.908   9.805
23621WAT     H271106   6.789   5.034   9.897
23622WAT      O71107   6.415   3.165   6.928
23622WAT     H171108   6.499   3.200   6.886
23622WAT     H271109   6.391   3.222   7.006
23623WAT      O71110   5.080   3.760   5.341
23623WAT     H171111   5.047   3.765   5.247
23623WAT     H271112   5.088   3.664   5.369
23624WAT      O71113   2.667   1.435   3.044
23624WAT     H171114   2.653   1.356   2.984
23624WAT     H271115   2.651   1.408   3.139
23625WAT      O71116   8.667   8.385   3.122
23625WAT     H171117   8.680   8.306   3.063
23625WAT     H271118   8.751   8.403   3.173
23626WAT      O71119   8.161   3.101   8.485
23626WAT     H171120   8.210   3.014   8.484
23626WAT     H271121   8.102   3.108   8.404
23627WAT      O71122   1.667   2.658   2.534
23627WAT     H171123   1.683   2.708   2.619
23627WAT     H271124   1.683   2.561   2.549
23628WAT      O71125   1.956   0.493   2.272
23628WAT     H171126   1.935   0.497   2.369
23628WAT     H271127   1.885   0.543   2.221
23629WAT      O71128   2.127   7.480   1.898
23629WAT     H171129   2.032   7.484   1.930
23629WAT     H271130   2.162   7.573   1.887
23630WAT      O71131   8.143   9.145   1.149
23630WAT     H171132   8.214   9.174   1.213
23630WAT     H271133   8.057   9.191   1.171
23631WAT      O71134   7.901   3.803   2.186
23631WAT     H171135   7.903   3.736   2.260
23631WAT     H271136   7.806   3.823   2.162
23632WAT      O71137   9.860   3.918   4.946
23632WAT     H171138   9.893   3.991   5.006
23632WAT     H271139   9.760   3.918   4.945
23633WAT      O71140   9.605   9.662   9.640
23633WAT     H171141   9.670   9.632   9.570
23633WAT     H271142   9.630   9.624   9.728
23634WAT      O71143   5.721   7.701   2.381
23634WAT     H171144   5.735   7.763   2.459
23634WAT     H271145   5.803   7.700   2.324
23635WAT      O71146   0.614   2.383   9.331
23635WAT     H171147   0.553   2.363   9.254
23635WAT     H271148   0.574   2.346   9.415
23636WAT      O71149   9.024   1.363   7.287
23636WAT     H171150   9.044   1.456   7.321
23636WAT     H271151   8.928   1.342   7.303
23637WAT      O71152   2.090   1.589   9.253
23637WAT     H171153   2.102   1.659   9.324
23637WAT     H271154   1.992   1.574   9.238
23638WAT      O71155   4.548   1.346   0.244
23638WAT     H171156   4.632   1.301   0.274
23638WAT     H271157   4.548   1.440   0.279
23639WAT      O71158   9.591   9.438   0.870
23639WAT     H171159   9.581   9.339   0.875
23639WAT     H271160   9.516   9.477   0.816
23640WAT      O71161   9.592   8.150   1.547
23640WAT     H171162   9.534   8.080   1.506
23640WAT     H271163   9.625   8.211   1.475
23641WAT      O71164   2.375   5.555   1.857
23641WAT     H171165   2.324   5.481   1.811
23641WAT     H271166   2.440   5.515   1.922
23642WAT      O71167   9.077   1.066   6.042
23642WAT     H171168   9.090   1.148   6.098
23642WAT     H271169   9.112   0.986   6.091
23643WAT      O71170   3.371   8.990   0.875
23643WAT     H171171   3.328   9.028   0.793
23643WAT     H271172   3.330   8.902   0.897
23644WAT      O71173   9.364   8.495   0.281
23644WAT     H171174   9.400   8.409   0.244
23644WAT     H271175   9.315   8.477   0.366
23645WAT      O71176   4.462   7.133   0.323
23645WAT     H171177   4.554   7.108   0.355
23645WAT     H271178   4.397   7.063   0.353
23646WAT      O71179   7.996   8.291   2.040
23646WAT     H171180   8.046   8.313   2.124
23646WAT     H271181   7.998   8.192   2.024
23647WAT      O71182   1.945   3.604   8.825
23647WAT     H171183   1.850   3.634   8.834
23647WAT     H271184   1.950   3.524   8.766
23648WAT      O71185   0.077   0.374   6.030
23648WAT     H171186   0.056   0.422   5.944
23648WAT     H271187   0.165   0.327   6.021
23649WAT      O71188   0.221   8.092   6.525
23649WAT     H171189   0.320   8.099   6.510
23649WAT     H271190   0.177   8.057   6.442
23650WAT      O71191   6.880   0.856   8.630
23650WAT     H171192   6.812   0.926   8.653
23650WAT     H271193   6.897   0.798   8.710
23651WAT      O71194   0.747   8.510   0.931
23651WAT     H171195   0.737   8.456   0.848
23651WAT     H271196   0.844   8.519   0.954
23652WAT      O71197   2.356   4.175   4.379
23652WAT     H171198   2.401   4.259   4.348
23652WAT     H271199   2.421   4.100   4.377
23653WAT      O71200   3.017   9.026   9.663
23653WAT     H171201   2.996   8.939   9.707
23653WAT     H271202   3.064   9.010   9.576
23654WAT      O71203   2.533   9.736   3.905
23654WAT     H171204   2.512   9.647   3.947
23654WAT     H271205   2.521   9.730   3.806
23655WAT      O71206   1.114   7.956   3.490
23655WAT     H171207   1.079   8.049   3.479
23655WAT     H271208   1.043   7.891   3.464
23656WAT      O71209   1.466   1.821   2.658
23656WAT     H171210   1.400   1.829   2.733
23656WAT     H271211   1.419   1.826   2.570
23657WAT      O71212   4.460   1.276   0.560
23657WAT     H171213   4.505   1.358   0.523
23657WAT     H271214   4.422   1.222   0.484
23658WAT      O71215   4.947   9.027   5.114
23658WAT     H171216   4.931   9.097   5.045
23658WAT     H271217   4.860   8.988   5.143
23659WAT      O71218   6.386   9.844   7.454
23659WAT     H171219   6.449   9.869   7.527
23659WAT     H271220   6.390   9.745   7.439
23660WAT      O71221   3.506   0.189   4.463
23660WAT     H171222   3.598   0.165   4.493
23660WAT     H271223   3.496   0.289   4.465
23661WAT      O71224   5.715   2.648   9.061
23661WAT     H171225   5.682   2.734   9.022
23661WAT     H271226   5.659   2.623   9.139
23662WAT      O71227   5.416   7.439   7.199
23662WAT     H171228   5.334   7.383   7.201
23662WAT     H271229   5.472   7.418   7.279
23663WAT      O71230   2.490   5.049   4.719
23663WAT     H171231   2.568   5.094   4.763
23663WAT     H271232   2.438   4.999   4.788
23664WAT      O71233   7.166   5.079   6.822
23664WAT     H171234   7.211   5.048   6.906
23664WAT     H271235   7.072   5.106   6.843
23665WAT      O71236   4.950   0.738   5.505
23665WAT     H171237   4.933   0.705   5.598
23665WAT     H271238   4.994   0.665   5.452
23666WAT      O71239   4.662   9.137   5.307
23666WAT     H171240   4.738   9.173   5.361
23666WAT     H271241   4.578   9.145   5.360
23667WAT      O71242   5.916   5.778   4.251
23667WAT     H171243   5.995   5.721   4.272
23667WAT     H271244   5.941   5.874   4.261
23668WAT      O71245   5.247   2.313   0.878
23668WAT     H171246   5.322   2.264   0.834
23668WAT     H271247   5.207   2.255   0.949
23669WAT      O71248   7.536   8.416   6.429
23669WAT     H171249   7.516   8.367   6.344
23669WAT     H271250   7.635   8.424   6.440
23670WAT      O71251   5.890   6.518   0.523
23670WAT     H171252   5.808   6.510   0.466
23670WAT     H271253   5.935   6.606   0.506
23671WAT      O71254   1.996   9.774   0.535
23671WAT     H171255   2.091   9.754   0.513
23671WAT     H271256   1.990   9.809   0.629
23672WAT      O71257   0.866   9.708   1.275
23672WAT     H171258   0.822   9.731   1.361
23672WAT     H271259   0.930   9.633   1.290
23673WAT      O71260   7.823   0.765   8.456
23673WAT     H171261   7.844   0.817   8.539
23673WAT     H271262   7.833   0.667   8.475
23674WAT      O71263   4.394   8.955   4.555
23674WAT     H171264   4.324   8.940   4.484
23674WAT     H271265   4.359   9.020   4.622
23675WAT      O71266   9.043   0.988   1.051
23675WAT     H171267   9.057   1.087   1.059
23675WAT     H271268   9.131   0.941   1.063
23676WAT      O71269   4.145   7.042   8.414
23676WAT     H171270   4.192   6.963   8.374
23676WAT     H271271   4.118   7.105   8.342
23677WAT      O71272   4.940   1.858   5.212
23677WAT     H171273   4.855   1.831   5.256
23677WAT     H271274   4.952   1.806   5.127
23678WAT      O71275   6.453   0.256   3.012
23678WAT     H171276   6.435   0.209   3.099
23678WAT     H271277   6.521   0.328   3.027
23679WAT      O71278   6.717   3.626   8.649
23679WAT     H171279   6.792   3.563   8.634
23679WAT     H271280   6.728   3.706   8.590
23680WAT      O71281   6.375   6.684   6.593
23680WAT     H171282   6.420   6.642   6.672
23680WAT     H271283   6.316   6.616   6.548
23681WAT      O71284   3.578   2.890   6.970
23681WAT     H171285   3.640   2.856   7.041
23681WAT     H271286   3.591   2.989   6.959
23682WAT      O71287   8.088   5.757   0.860
23682WAT     H171288   8.183   5.734   0.882
23682WAT     H271289   8.083   5.851   0.824
23683WAT      O71290   2.076   9.595   8.565
23683WAT     H171291   2.153   9.590   8.629
23683WAT     H271292   2.059   9.690   8.541
23684WAT      O71293   7.893   6.197   5.361
23684WAT     H171294   7.953   6.234   5.290
23684WAT     H271295   7.945   6.132   5.417
23685WAT      O71296   4.595   4.602   7.112
23685WAT     H171297   4.686   4.578   7.080
23685WAT     H271298   4.552   4.666   7.049
23686WAT      O71299   5.029   6.394   2.603
23686WAT     H171300   4.986   6.429   2.519
23686WAT     H271301   5.055   6.472   2.661
23687WAT      O71302   8.819   6.350   4.929
23687WAT     H171303   8.843   6.379   4.836
23687WAT     H271304   8.748   6.280   4.925
23688WAT      O71305   5.899   4.432   2.309
23688WAT     H171306   5.842   4.357   2.342
23688WAT     H271307   5.982   4.437   2.364
23689WAT      O71308   8.155   9.422   2.361
23689WAT     H171309   8.191   9.449   2.450
23689WAT     H271310   8.231   9.400   2.300
23690WAT      O71311   9.073   9.159   5.728
23690WAT     H171312   9.069   9.092   5.803
23690WAT     H271313   9.088   9.250   5.766
23691WAT      O71314   5.255   6.403   8.915
23691WAT     H171315   5.220   6.394   8.822
23691WAT     H271316   5.246   6.497   8.946
23692WAT      O71317   6.027   9.262   9.048
23692WAT     H171318   5.940   9.298   9.014
23692WAT     H271319   6.011   9.175   9.094
23693WAT      O71320   9.610   5.400   9.060
23693WAT     H171321   9.656   5.371   8.976
23693WAT     H271322   9.656   5.358   9.138
23694WAT      O71323   9.755   8.930   8.782
23694WAT     H171324   9.730   8.995   8.711
23694WAT     H271325   9.771   8.840   8.741
23695WAT      O71326   1.091   3.559   2.761
23695WAT     H171327   1.007   3.557   2.708
23695WAT     H271328   1.121   3.465   2.779
23696WAT      O71329   4.201   7.074   9.069
23696WAT     H171330   4.284   7.020   9.081
23696WAT     H271331   4.222   7.156   9.014
23697WAT      O71332   0.056   7.758   2.523
23697WAT     H171333   0.007   7.722   2.603
23697WAT     H271334   0.151   7.777   2.549
23698WAT      O71335   8.657   4.821   8.839
23698WAT     H171336   8.668   4.913   8.878
23698WAT     H271337   8.708   4.815   8.753
23699WAT      O71338   2.132   8.464   0.859
23699WAT     H171339   2.063   8.401   0.895
23699WAT     H271340   2.130   8.549   0.913
23700WAT      O71341   5.306   3.478   0.794
23700WAT     H171342   5.313   3.398   0.735
23700WAT     H271343   5.277   3.449   0.885
23701WAT      O71344   8.726   0.829   1.752
23701WAT     H171345   8.771   0.899   1.808
23701WAT     H271346   8.725   0.858   1.657
23702WAT      O71347   7.602   0.363   6.900
23702WAT     H171348   7.674   0.409   6.951
23702WAT     H271349   7.640   0.327   6.814
23703WAT      O71350   8.792   6.634   2.275
23703WAT     H171351   8.779   6.644   2.374
23703WAT     H271352   8.777   6.723   2.231
23704WAT      O71353   6.799   4.117   8.536
23704WAT     H171354   6.867   4.055   8.575
23704WAT     H271355   6.708   4.075   8.541
23705WAT      O71356   9.146   6.886   9.557
23705WAT     H171357   9.179   6.833   9.636
23705WAT     H271358   9.131   6.981   9.584
23706WAT      O71359   8.682   9.398   8.367
23706WAT     H171360   8.597   9.397   8.420
23706WAT     H271361   8.677   9.331   8.293
23707WAT      O71362   9.072   8.475   1.607
23707WAT     H171363   9.147   8.411   1.624
23707WAT     H271364   9.034   8.506   1.694
23708WAT      O71365   5.685   2.527   4.434
23708WAT     H171366   5.719   2.599   4.496
23708WAT     H271367   5.721   2.439   4.463
23709WAT      O71368   7.703   7.894   1.914
23709WAT     H171369   7.719   7.949   1.996
23709WAT     H271370   7.747   7.938   1.835
23710WAT      O71371   7.814   6.682   0.803
23710WAT     H171372   7.838   6.624   0.880
23710WAT     H271373   7.749   6.752   0.833
23711WAT      O71374   1.701   8.171   3.263
23711WAT     H171375   1.698   8.268   3.287
23711WAT     H271376   1.758   8.157   3.182
23712WAT      O71377   7.690   8.340   7.971
23712WAT     H171378   7.599   8.303   7.951
23712WAT     H271379   7.730   8.290   8.048
23713WAT      O71380   4.380   8.306   9.525
23713WAT     H171381   4.451   8.315   9.595
23713WAT     H271382   4.323   8.388   9.524
23714WAT      O71383   1.250   4.104   4.026
23714WAT     H171384   1.301   4.113   4.111
23714WAT     H271385   1.154   4.085   4.047
23715WAT      O71386   3.311   2.226   6.130
23715WAT     H171387   3.372   2.258   6.202
23715WAT     H271388   3.216   2.247   6.155
23716WAT      O71389   0.040   0.457   7.713
23716WAT     H171390   0.108   0.475   7.784
23716WAT     H271391  -0.049   0.441   7.757
23717WAT      O71392   4.087   8.373   8.697
23717WAT     H171393   3.992   8.380   8.725
23717WAT     H271394   4.142   8.338   8.773
23718WAT      O71395   9.806   4.299   5.361
23718WAT     H171396   9.759   4.215   5.331
23718WAT     H271397   9.850   4.283   5.449
23719WAT      O71398   9.661   3.361   3.054
23719WAT     H171399   9.572   3.318   3.035
23719WAT     H271400   9.734   3.302   3.022
23720WAT      O71401   4.689   5.791   0.602
23720WAT     H171402   4.726   5.876   0.639
23720WAT     H271403   4.758   5.719   0.609
23721WAT      O71404   0.772   3.230   2.570
23721WAT     H171405   0.842   3.238   2.499
23721WAT     H271406   0.813   3.193   2.653
23722WAT      O71407   3.934   3.515   3.289
23722WAT     H171408   3.953   3.504   3.191
23722WAT     H271409   4.018   3.541   3.336
23723WAT      O71410   2.443   2.077   3.015
23723WAT     H171411   2.382   2.148   3.049
23723WAT     H271412   2.511   2.054   3.085
23724WAT      O71413   4.700   3.224   4.211
23724WAT     H171414   4.776   3.195   4.153
23724WAT     H271415   4.729   3.302   4.267
23725WAT      O71416   1.183   9.748   8.966
23725WAT     H171417   1.148   9.674   9.024
23725WAT     H271418   1.140   9.834   8.992
23726WAT      O71419   1.605   3.954   5.622
23726WAT     H171420   1.552   3.983   5.701
23726WAT     H271421   1.690   3.910   5.653
23727WAT      O71422   8.615   4.241   4.340
23727WAT     H171423   8.700   4.233   4.392
23727WAT     H271424   8.577   4.332   4.352
23728WAT      O71425   6.239   4.215   0.803
23728WAT     H171426   6.281   4.274   0.873
23728WAT     H271427   6.188   4.142   0.848
23729WAT      O71428   4.725   8.946   7.767
23729WAT     H171429   4.711   8.881   7.692
23729WAT     H271430   4.644   8.949   7.824
23730WAT      O71431   0.077   6.931   4.592
23730WAT     H171432  -0.012   6.888   4.607
23730WAT     H271433   0.066   7.030   4.583
23731WAT      O71434   3.911   0.850   3.313
23731WAT     H171435   3.928   0.940   3.272
23731WAT     H271436   3.814   0.828   3.305
23732WAT      O71437   6.045   7.121   5.334
23732WAT     H171438   6.104   7.084   5.405
23732WAT     H271439   5.994   7.200   5.370
23733WAT      O71440   5.190   6.999   1.411
23733WAT     H171441   5.242   7.005   1.325
23733WAT     H271442   5.253   7.005   1.488
23734WAT      O71443   3.210   2.298   3.927
23734WAT     H171444   3.181   2.365   3.858
23734WAT     H271445   3.236   2.346   4.011
23735WAT      O71446   0.707   4.668   4.608
23735WAT     H171447   0.643   4.738   4.576
23735WAT     H271448   0.799   4.706   4.611
23736WAT      O71449   5.608   1.977   9.596
23736WAT     H171450   5.663   2.019   9.525
23736WAT     H271451   5.553   2.048   9.642
23737WAT      O71452   4.206   6.128   8.987
23737WAT     H171453   4.175   6.076   8.907
23737WAT     H271454   4.152   6.212   8.995
23738WAT      O71455   3.886   8.252   9.078
23738WAT     H171456   3.826   8.332   9.087
23738WAT     H271457   3.883   8.199   9.163
23739WAT      O71458   6.460   4.527   1.805
23739WAT     H171459   6.500   4.437   1.788
23739WAT     H271460   6.387   4.545   1.739
23740WAT      O71461   8.219   4.866   0.312
23740WAT     H171462   8.209   4.769   0.289
23740WAT     H271463   8.312   4.883   0.344
23741WAT      O71464   7.110   0.864   9.094
23741WAT     H171465   7.038   0.796   9.080
23741WAT     H271466   7.193   0.837   9.045
23742WAT      O71467   6.305   0.559   8.482
23742WAT     H171468   6.273   0.648   8.517
23742WAT     H271469   6.226   0.505   8.452
23743WAT      O71470   2.962   9.411   5.995
23743WAT     H171471   2.871   9.376   5.976
23743WAT     H271472   3.018   9.340   6.038
23744WAT      O71473   7.721   7.384   7.941
23744WAT     H171474   7.810   7.379   7.986
23744WAT     H271475   7.732   7.356   7.845
23745WAT      O71476   8.487   8.729   7.578
23745WAT     H171477   8.526   8.811   7.536
23745WAT     H271478   8.437   8.754   7.661
23746WAT      O71479   6.780   2.722   1.560
23746WAT     H171480   6.742   2.650   1.619
23746WAT     H271481   6.719   2.801   1.561
23747WAT      O71482   2.711   3.415   5.584
23747WAT     H171483   2.744   3.321   5.579
23747WAT     H271484   2.779   3.471   5.632
23748WAT      O71485   0.715   8.727   8.010
23748WAT     H171486   0.708   8.823   8.038
23748WAT     H271487   0.732   8.670   8.090
23749WAT      O71488   1.600   7.107   0.436
23749WAT     H171489   1.623   7.010   0.436
23749WAT     H271490   1.682   7.161   0.417
23750WAT      O71491   1.063   6.789   3.566
23750WAT     H171492   1.080   6.837   3.481
23750WAT     H271493   0.973   6.745   3.563
23751WAT      O71494   4.860   1.360   9.387
23751WAT     H171495   4.926   1.326   9.320
23751WAT     H271496   4.895   1.444   9.429
23752WAT      O71497   1.061   2.832   2.600
23752WAT     H171498   1.158   2.821   2.623
23752WAT     H271499   1.011   2.752   2.632
23753WAT      O71500   0.947   7.727   2.355
23753WAT     H171501   0.866   7.764   2.309
23753WAT     H271502   1.015   7.800   2.366
23754WAT      O71503   9.506   3.115   1.443
23754WAT     H171504   9.573   3.070   1.501
23754WAT     H271505   9.459   3.047   1.387
23755WAT      O71506   7.905   6.654   3.378
23755WAT     H171507   7.940   6.585   3.443
23755WAT     H271508   7.983   6.696   3.330
23756WAT      O71509   2.618   3.327   4.481
23756WAT     H171510   2.627   3.418   4.441
23756WAT     H271511   2.707   3.297   4.516
23757WAT      O71512   5.070   0.876   2.214
23757WAT     H171513   5.163   0.891   2.181
23757WAT     H271514   5.044   0.950   2.276
23758WAT      O71515   8.768   5.095   0.485
23758WAT     H171516   8.799   5.084   0.391
23758WAT     H271517   8.675   5.133   0.486
23759WAT      O71518   6.148   2.262   2.216
23759WAT     H171519   6.166   2.203   2.295
23759WAT     H271520   6.234   2.283   2.170
23760WAT      O71521   6.421   7.760   9.771
23760WAT     H171522   6.387   7.851   9.749
23760WAT     H271523   6.344   7.699   9.792
23761WAT      O71524   1.430   7.370   9.796
23761WAT     H171525   1.385   7.341   9.881
23761WAT     H271526   1.413   7.467   9.781
23762WAT      O71527   1.912   2.716   4.938
23762WAT     H171528   1.880   2.709   4.843
23762WAT     H271529   1.988   2.781   4.942
23763WAT      O71530   2.476   6.376   4.777
23763WAT     H171531   2.546   6.445   4.756
23763WAT     H271532   2.397   6.389   4.716
23764WAT      O71533   7.741   6.223   1.367
23764WAT     H171534   7.675   6.177   1.426
23764WAT     H271535   7.829   6.177   1.372
23765WAT      O71536   6.855   1.013   8.932
23765WAT     H171537   6.953   1.031   8.921
23765WAT     H271538   6.811   1.019   8.843
23766WAT      O71539   8.508   6.073   8.436
23766WAT     H171540   8.600   6.041   8.458
23766WAT     H271541   8.471   6.125   8.513
23767WAT      O71542   8.955   7.332   5.579
23767WAT     H171543   8.935   7.353   5.674
23767WAT     H271544   8.890   7.265   5.544
23768WAT      O71545   8.854   1.905   7.472
23768WAT     H171546   8.883   1.810   7.485
23768WAT     H271547   8.933   1.965   7.483
23769WAT      O71548   4.751   0.393   7.925
23769WAT     H171549   4.841   0.366   7.960
23769WAT     H271550   4.680   0.357   7.985
23770WAT      O71551   8.930   9.441   7.815
23770WAT     H171552   8.972   9.515   7.867
23770WAT     H271553   8.988   9.360   7.819
23771WAT      O71554   0.835   7.186   3.028
23771WAT     H171555   0.765   7.163   2.959
23771WAT     H271556   0.925   7.190   2.984
23772WAT      O71557   6.952   3.018   4.088
23772WAT     H171558   6.876   3.071   4.124
23772WAT     H271559   7.038   3.053   4.124
23773WAT      O71560   2.645   6.690   1.500
23773WAT     H171561   2.594   6.627   1.559
23773WAT     H271562   2.715   6.736   1.554
23774WAT      O71563   7.763   5.795   3.793
23774WAT     H171564   7.796   5.729   3.860
23774WAT     H271565   7.666   5.814   3.809
23775WAT      O71566   3.568   1.296   0.526
23775WAT     H171567   3.594   1.247   0.443
23775WAT     H271568   3.596   1.392   0.519
23776WAT      O71569   9.424   3.678   2.147
23776WAT     H171570   9.492   3.748   2.166
23776WAT     H271571   9.422   3.659   2.049
23777WAT      O71572   6.886   4.606   5.711
23777WAT     H171573   6.871   4.606   5.809
23777WAT     H271574   6.968   4.553   5.690
23778WAT      O71575   5.618   3.865   5.946
23778WAT     H171576   5.677   3.860   6.026
23778WAT     H271577   5.565   3.780   5.938
23779WAT      O71578   7.220   6.066   1.464
23779WAT     H171579   7.247   6.163   1.467
23779WAT     H271580   7.288   6.011   1.512
23780WAT      O71581   2.335   8.543   6.088
23780WAT     H171582   2.318   8.625   6.142
23780WAT     H271583   2.410   8.560   6.024
23781WAT      O71584   7.603   1.975   6.326
23781WAT     H171585   7.559   1.951   6.239
23781WAT     H271586   7.577   1.909   6.396
23782WAT      O71587   8.919   2.280   0.040
23782WAT     H171588   8.848   2.342   0.005
23782WAT     H271589   8.956   2.226  -0.036
23783WAT      O71590   0.371   4.391   4.668
23783WAT     H171591   0.372   4.298   4.704
23783WAT     H271592   0.336   4.454   4.738
23784WAT      O71593   3.787   6.207   5.607
23784WAT     H171594   3.822   6.291   5.565
23784WAT     H271595   3.859   6.137   5.606
23785WAT      O71596   4.176   4.408   3.113
23785WAT     H171597   4.108   4.371   3.050
23785WAT     H271598   4.202   4.338   3.180
23786WAT      O71599   4.539   7.892   4.211
23786WAT     H171600   4.451   7.938   4.219
23786WAT     H271601   4.600   7.925   4.283
23787WAT      O71602   3.999   3.348   1.782
23787WAT     H171603   3.976   3.264   1.831
23787WAT     H271604   3.947   3.424   1.821
23788WAT      O71605   2.417   0.189   2.974
23788WAT     H171606   2.418   0.267   3.036
23788WAT     H271607   2.355   0.208   2.898
23789WAT      O71608   6.725   0.776   5.930
23789WAT     H171609   6.724   0.847   6.001
23789WAT     H271610   6.705   0.817   5.841
23790WAT      O71611   4.147   6.357   0.933
23790WAT     H171612   4.159   6.428   0.863
23790WAT     H271613   4.141   6.400   1.023
23791WAT      O71614   0.425   7.395   2.816
23791WAT     H171615   0.405   7.395   2.718
23791WAT     H271616   0.370   7.324   2.861
23792WAT      O71617   0.851   9.229   2.701
23792WAT     H171618   0.803   9.171   2.767
23792WAT     H271619   0.936   9.263   2.743
23793WAT      O71620   0.980   6.856   4.018
23793WAT     H171621   0.932   6.876   3.932
23793WAT     H271622   1.016   6.941   4.056
23794WAT      O71623   5.994   5.969   7.380
23794WAT     H171624   6.054   5.901   7.337
23794WAT     H271625   5.911   5.978   7.326
23795WAT      O71626   0.935   8.239   0.591
23795WAT     H171627   0.945   8.212   0.686
23795WAT     H271628   0.864   8.310   0.583
23796WAT      O71629   9.437   9.313   9.869
23796WAT     H171630   9.453   9.287   9.774
23796WAT     H271631   9.350   9.362   9.877
23797WAT      O71632   2.240   5.023   8.423
23797WAT     H171633   2.303   5.086   8.469
23797WAT     H271634   2.259   4.929   8.452
23798WAT      O71635   9.290   9.425   7.837
23798WAT     H171636   9.225   9.349   7.828
23798WAT     H271637   9.289   9.459   7.931
23799WAT      O71638   4.096   9.386   8.849
23799WAT     H171639   4.001   9.414   8.840
23799WAT     H271640   4.129   9.405   8.942
23800WAT      O71641   1.364   5.827   2.005
23800WAT     H171642   1.357   5.926   2.015
23800WAT     H271643   1.444   5.793   2.054
23801WAT      O71644   5.517   7.904   7.407
23801WAT     H171645   5.429   7.940   7.375
23801WAT     H271646   5.559   7.849   7.335
23802WAT      O71647   9.005   8.428   6.859
23802WAT     H171648   9.045   8.345   6.820
23802WAT     H271649   9.024   8.430   6.958
23803WAT      O71650   9.098   1.532   2.864
23803WAT     H171651   9.009   1.578   2.863
23803WAT     H271652   9.153   1.564   2.787
23804WAT      O71653   8.552   9.310   3.266
23804WAT     H171654   8.525   9.224   3.310
23804WAT     H271655   8.637   9.343   3.307
23805WAT      O71656   8.449   2.274   1.635
23805WAT     H171657   8.362   2.308   1.601
23805WAT     H271658   8.521   2.341   1.617
23806WAT      O71659   6.888   0.283   0.256
23806WAT     H171660   6.909   0.248   0.164
23806WAT     H271661   6.798   0.328   0.255
23807WAT      O71662   2.213   7.216   5.333
23807WAT     H171663   2.172   7.179   5.249
23807WAT     H271664   2.265   7.144   5.379
23808WAT      O71665   0.172   1.928   0.536
23808WAT     H171666   0.163   1.994   0.461
23808WAT     H271667   0.083   1.915   0.580
23809WAT      O71668   5.823   7.763   7.349
23809WAT     H171669   5.746   7.703   7.327
23809WAT     H271670   5.825   7.840   7.285
23810WAT      O71671   0.954   3.935   6.958
23810WAT     H171672   0.906   3.988   6.888
23810WAT     H271673   0.912   3.845   6.966
23811WAT      O71674   6.229   1.047   6.876
23811WAT     H171675   6.197   1.097   6.795
23811WAT     H271676   6.160   1.053   6.948
23812WAT      O71677   0.734   4.722   1.745
23812WAT     H171678   0.648   4.714   1.694
23812WAT     H271679   0.728   4.801   1.806
23813WAT      O71680   4.656   2.454   2.719
23813WAT     H171681   4.649   2.411   2.809
23813WAT     H271682   4.570   2.503   2.700
23814WAT      O71683   6.545   2.080   9.191
23814WAT     H171684   6.527   2.141   9.114
23814WAT     H271685   6.469   2.084   9.256
23815WAT      O71686   1.510   8.634   6.897
23815WAT     H171687   1.412   8.654   6.910
23815WAT     H271688   1.529   8.626   6.799
23816WAT      O71689   0.578   9.744   2.560
23816WAT     H171690   0.645   9.679   2.595
23816WAT     H271691   0.575   9.823   2.622
23817WAT      O71692   1.129   6.642   2.288
23817WAT     H171693   1.056   6.678   2.346
23817WAT     H271694   1.119   6.544   2.277
23818WAT      O71695   6.174   5.619   7.656
23818WAT     H171696   6.116   5.623   7.737
23818WAT     H271697   6.130   5.668   7.581
23819WAT      O71698   3.529   9.585   6.842
23819WAT     H171699   3.587   9.621   6.769
23819WAT     H271700   3.449   9.541   6.802
23820WAT      O71701   4.384   5.349   6.364
23820WAT     H171702   4.395   5.410   6.285
23820WAT     H271703   4.457   5.281   6.364
23821WAT      O71704   6.217   1.261   5.470
23821WAT     H171705   6.248   1.352   5.441
23821WAT     H271706   6.196   1.262   5.567
23822WAT      O71707   1.975   1.284   5.112
23822WAT     H171708   2.028   1.307   5.031
23822WAT     H271709   2.019   1.323   5.193
23823WAT      O71710   1.840   9.573   7.548
23823WAT     H171711   1.874   9.628   7.625
23823WAT     H271712   1.918   9.541   7.494
23824WAT      O71713   8.250   0.733   8.060
23824WAT     H171714   8.332   0.721   8.003
23824WAT     H271715   8.169   0.732   8.002
23825WAT      O71716   0.355   8.489   1.705
23825WAT     H171717   0.349   8.567   1.768
23825WAT     H271718   0.440   8.439   1.723
23826WAT      O71719   6.778   1.726   8.312
23826WAT     H171720   6.852   1.791   8.295
23826WAT     H271721   6.810   1.655   8.374
23827WAT      O71722   2.919   9.094   8.809
23827WAT     H171723   2.994   9.032   8.832
23827WAT     H271724   2.884   9.137   8.893
23828WAT      O71725   8.120   3.987   6.870
23828WAT     H171726   8.098   4.083   6.886
23828WAT     H271727   8.035   3.933   6.867
23829WAT      O71728   1.526   9.292   0.527
23829WAT     H171729   1.485   9.215   0.576
23829WAT     H271730   1.591   9.338   0.587
23830WAT      O71731   3.880   9.285   5.145
23830WAT     H171732   3.852   9.195   5.177
23830WAT     H271733   3.921   9.277   5.054
23831WAT      O71734   2.430   5.790   3.094
23831WAT     H171735   2.504   5.754   3.037
23831WAT     H271736   2.465   5.814   3.184
23832WAT      O71737   0.762   2.125   9.155
23832WAT     H171738   0.692   2.083   9.096
23832WAT     H271739   0.788   2.060   9.226
23833WAT      O71740   6.323   4.572   4.462
23833WAT     H171741   6.382   4.498   4.432
23833WAT     H271742   6.229   4.554   4.435
23834WAT      O71743   9.002   5.427   3.621
23834WAT     H171744   8.973   5.488   3.549
23834WAT     H271745   8.922   5.386   3.665
23835WAT      O71746   0.302   4.180   2.262
23835WAT     H171747   0.249   4.095   2.261
23835WAT     H271748   0.343   4.194   2.172
23836WAT      O71749   4.515   0.543   8.552
23836WAT     H171750   4.611   0.529   8.525
23836WAT     H271751   4.461   0.567   8.472
23837WAT      O71752   5.950   0.013   8.410
23837WAT     H171753   5.888  -0.063   8.387
23837WAT     H271754   5.913   0.098   8.372
23838WAT      O71755   9.852   1.230   6.375
23838WAT     H171756   9.888   1.324   6.377
23838WAT     H271757   9.873   1.189   6.286
23839WAT      O71758   7.134   1.208   9.101
23839WAT     H171759   7.131   1.112   9.076
23839WAT     H271760   7.201   1.222   9.174
23840WAT      O71761   7.379   7.167   9.860
23840WAT     H171762   7.288   7.184   9.899
23840WAT     H271763   7.378   7.079   9.812
23841WAT      O71764   1.084   7.332   3.802
23841WAT     H171765   1.064   7.238   3.777
23841WAT     H271766   1.032   7.357   3.883
23842WAT      O71767   0.969   3.745   5.197
23842WAT     H171768   1.031   3.771   5.271
23842WAT     H271769   0.977   3.809   5.121
23843WAT      O71770   7.842   1.941   5.781
23843WAT     H171771   7.867   1.870   5.715
23843WAT     H271772   7.922   1.999   5.798
23844WAT      O71773   7.961   0.194   3.782
23844WAT     H171774   7.910   0.117   3.821
23844WAT     H271775   7.928   0.279   3.821
23845WAT      O71776   5.369   7.865   1.644
23845WAT     H171777   5.381   7.964   1.655
23845WAT     H271778   5.457   7.819   1.651
23846WAT      O71779   8.540   7.200   4.688
23846WAT     H171780   8.526   7.102   4.695
23846WAT     H271781   8.634   7.219   4.661
23847WAT      O71782   3.429   1.876   0.010
23847WAT     H171783   3.413   1.961   0.062
23847WAT     H271784   3.524   1.847   0.022
23848WAT      O71785   6.010   0.127   3.486
23848WAT     H171786   5.973   0.137   3.578
23848WAT     H271787   6.067   0.046   3.481
23849WAT      O71788   5.364   9.601   8.990
23849WAT     H171789   5.316   9.651   9.062
23849WAT     H271790   5.457   9.637   8.980
23850WAT      O71791   0.010   1.007   3.985
23850WAT     H171792  -0.042   0.928   4.018
23850WAT     H271793   0.066   1.043   4.060
23851WAT      O71794   2.547   0.661   1.298
23851WAT     H171795   2.511   0.647   1.206
23851WAT     H271796   2.562   0.759   1.312
23852WAT      O71797   4.387   2.900   6.648
23852WAT     H171798   4.455   2.860   6.586
23852WAT     H271799   4.310   2.936   6.595
23853WAT      O71800   3.764   3.251   1.333
23853WAT     H171801   3.772   3.286   1.426
23853WAT     H271802   3.667   3.232   1.313
23854WAT      O71803   7.944   8.449   5.055
23854WAT     H171804   7.886   8.530   5.049
23854WAT     H271805   7.927   8.402   5.142
23855WAT      O71806   9.764   7.247   7.923
23855WAT     H171807   9.786   7.242   8.021
23855WAT     H271808   9.813   7.175   7.874
23856WAT      O71809   0.914   8.757   6.484
23856WAT     H171810   0.890   8.829   6.549
23856WAT     H271811   0.905   8.668   6.529
23857WAT      O71812   2.459   6.279   6.998
23857WAT     H171813   2.555   6.306   7.009
23857WAT     H271814   2.449   6.225   6.914
23858WAT      O71815   3.533   2.236   9.860
23858WAT     H171816   3.527   2.336   9.860
23858WAT     H271817   3.509   2.202   9.951
23859WAT      O71818   4.753   3.454   3.682
23859WAT     H171819   4.676   3.419   3.736
23859WAT     H271820   4.719   3.501   3.601
23860WAT      O71821   2.821   9.826   1.211
23860WAT     H171822   2.763   9.829   1.293
23860WAT     H271823   2.916   9.815   1.238
23861WAT      O71824   9.097   7.598   1.949
23861WAT     H171825   9.018   7.658   1.953
23861WAT     H271826   9.105   7.548   2.036
23862WAT      O71827   0.760   2.613   4.077
23862WAT     H171828   0.663   2.605   4.051
23862WAT     H271829   0.802   2.689   4.029
23863WAT      O71830   6.792   1.883   5.513
23863WAT     H171831   6.757   1.815   5.449
23863WAT     H271832   6.754   1.865   5.604
23864WAT      O71833   8.215   4.342   8.533
23864WAT     H171834   8.257   4.267   8.584
23864WAT     H271835   8.277   4.421   8.533
23865WAT      O71836   1.892   4.690   8.888
23865WAT     H171837   1.850   4.780   8.903
23865WAT     H271838   1.910   4.647   8.976
23866WAT      O71839   3.559   0.926   9.863
23866WAT     H171840   3.579   0.873   9.946
23866WAT     H271841   3.479   0.983   9.878
23867WAT      O71842   0.609   9.493   0.138
23867WAT     H171843   0.541   9.431   0.100
23867WAT     H271844   0.689   9.497   0.077
23868WAT      O71845   2.615   6.972   9.510
23868WAT     H171846   2.655   7.056   9.473
23868WAT     H271847   2.592   6.910   9.434
23869WAT      O71848   8.753   6.682   3.597
23869WAT     H171849   8.722   6.777   3.589
23869WAT     H271850   8.840   6.671   3.549
23870WAT      O71851   8.146   2.615   6.445
23870WAT     H171852   8.217   2.655   6.388
23870WAT     H271853   8.116   2.528   6.406
23871WAT      O71854   5.946   5.357   9.316
23871WAT     H171855   6.035   5.373   9.358
23871WAT     H271856   5.956   5.288   9.244
23872WAT      O71857   6.682   0.905   6.599
23872WAT     H171858   6.588   0.924   6.628
23872WAT     H271859   6.682   0.835   6.528
23873WAT      O71860   9.175   2.076   3.129
23873WAT     H171861   9.130   2.158   3.164
23873WAT     H271862   9.171   2.003   3.198
23874WAT      O71863   1.505   8.448   7.884
23874WAT     H171864   1.564   8.503   7.825
23874WAT     H271865   1.410   8.480   7.877
23875WAT      O71866   4.700   3.817   6.930
23875WAT     H171867   4.765   3.765   6.874
23875WAT     H271868   4.610   3.774   6.924
23876WAT      O71869   8.499   0.470   5.148
23876WAT     H171870   8.405   0.463   5.182
23876WAT     H271871   8.500   0.458   5.049
23877WAT      O71872   4.457   0.994   2.740
23877WAT     H171873   4.456   1.065   2.669
23877WAT     H271874   4.430   0.907   2.699
23878WAT      O71875   6.141   6.263   0.294
23878WAT     H171876   6.200   6.266   0.375
23878WAT     H271877   6.081   6.184   0.299
23879WAT      O71878   1.496   2.583   6.796
23879WAT     H171879   1.444   2.510   6.841
23879WAT     H271880   1.587   2.589   6.836
23880WAT      O71881   6.957   9.595   2.746
23880WAT     H171882   7.014   9.647   2.683
23880WAT     H271883   7.011   9.568   2.826
23881WAT      O71884   3.528   5.435   3.136
23881WAT     H171885   3.434   5.437   3.101
23881WAT     H271886   3.590   5.406   3.063
23882WAT      O71887   8.309   7.407   8.215
23882WAT     H171888   8.336   7.314   8.239
23882WAT     H271889   8.215   7.423   8.243
23883WAT      O71890   7.325   9.835   1.330
23883WAT     H171891   7.351   9.743   1.358
23883WAT     H271892   7.392   9.871   1.265
23884WAT      O71893   8.764   3.871   8.680
23884WAT     H171894   8.780   3.831   8.770
23884WAT     H271895   8.668   3.897   8.672
23885WAT      O71896   2.123   0.785   6.751
23885WAT     H171897   2.121   0.687   6.736
23885WAT     H271898   2.041   0.827   6.712
23886WAT      O71899   9.551   6.707   6.347
23886WAT     H171900   9.525   6.611   6.345
23886WAT     H271901   9.579   6.731   6.440
23887WAT      O71902   0.176   2.297   5.660
23887WAT     H171903   0.078   2.305   5.673
23887WAT     H271904   0.203   2.348   5.578
23888WAT      O71905   1.446   6.165   8.192
23888WAT     H171906   1.368   6.108   8.165
23888WAT     H271907   1.516   6.108   8.235
23889WAT      O71908   2.960   1.235   4.403
23889WAT     H171909   3.049   1.195   4.382
23889WAT     H271910   2.926   1.286   4.324
23890WAT      O71911   7.703   8.406   3.359
23890WAT     H171912   7.638   8.330   3.360
23890WAT     H271913   7.794   8.373   3.333
23891WAT      O71914   1.259   5.306   7.515
23891WAT     H171915   1.279   5.214   7.550
23891WAT     H271916   1.339   5.364   7.525
23892WAT      O71917   2.738   1.484   8.284
23892WAT     H171918   2.750   1.490   8.184
23892WAT     H271919   2.790   1.407   8.319
23893WAT      O71920   7.104   9.709   7.922
23893WAT     H171921   7.122   9.610   7.915
23893WAT     H271922   7.130   9.741   8.013
23894WAT      O71923   6.020   6.424   5.763
23894WAT     H171924   6.035   6.384   5.853
23894WAT     H271925   6.071   6.373   5.695
23895WAT      O71926   1.887   9.147   8.081
23895WAT     H171927   1.886   9.175   8.177
23895WAT     H271928   1.921   9.053   8.075
23896WAT      O71929   6.378   1.022   6.103
23896WAT     H171930   6.286   1.054   6.080
23896WAT     H271931   6.403   0.946   6.044
23897WAT      O71932   1.953   3.988   8.565
23897WAT     H171933   1.961   3.945   8.654
23897WAT     H271934   1.941   4.086   8.576
23898WAT      O71935   2.904   7.936   9.333
23898WAT     H171936   2.909   8.011   9.268
23898WAT     H271937   2.872   7.970   9.422
23899WAT      O71938   9.343   1.514   2.210
23899WAT     H171939   9.348   1.471   2.301
23899WAT     H271940   9.254   1.559   2.200
23900WAT      O71941   4.134   7.835   7.688
23900WAT     H171942   4.053   7.825   7.745
23900WAT     H271943   4.138   7.928   7.652
23901WAT      O71944   4.413   8.800   2.511
23901WAT     H171945   4.463   8.718   2.541
23901WAT     H271946   4.429   8.874   2.576
23902WAT      O71947   5.592   1.632   9.605
23902WAT     H171948   5.510   1.685   9.625
23902WAT     H271949   5.566   1.537   9.585
23903WAT      O71950   9.758   9.082   4.129
23903WAT     H171951   9.669   9.048   4.159
23903WAT     H271952   9.829   9.017   4.157
23904WAT      O71953   9.383   3.717   0.400
23904WAT     H171954   9.352   3.807   0.432
23904WAT     H271955   9.443   3.677   0.468
23905WAT      O71956   9.393   2.361   0.285
23905WAT     H171957   9.360   2.398   0.372
23905WAT     H271958   9.479   2.406   0.260
23906WAT      O71959   0.334   0.602   9.719
23906WAT     H171960   0.320   0.506   9.743
23906WAT     H271961   0.261   0.658   9.758
23907WAT      O71962   4.245   1.845   7.744
23907WAT     H171963   4.258   1.927   7.800
23907WAT     H271964   4.331   1.792   7.743
23908WAT      O71965   7.518   7.523   5.192
23908WAT     H171966   7.592   7.587   5.175
23908WAT     H271967   7.489   7.480   5.107
23909WAT      O71968   3.748   5.812   1.288
23909WAT     H171969   3.838   5.783   1.319
23909WAT     H271970   3.757   5.896   1.234
23910WAT      O71971   5.579   4.176   1.025
23910WAT     H171972   5.526   4.098   0.993
23910WAT     H271973   5.639   4.208   0.952
23911WAT      O71974   6.528   2.921   7.604
23911WAT     H171975   6.608   2.951   7.655
23911WAT     H271976   6.496   2.834   7.642
23912WAT      O71977   7.285   8.580   4.090
23912WAT     H171978   7.238   8.510   4.035
23912WAT     H271979   7.315   8.539   4.176
23913WAT      O71980   9.438   1.123   6.674
23913WAT     H171981   9.486   1.186   6.613
23913WAT     H271982   9.388   1.174   6.744
23914WAT      O71983   7.250   6.248   3.356
23914WAT     H171984   7.200   6.164   3.376
23914WAT     H271985   7.345   6.238   3.385
23915WAT      O71986   1.759   8.089   8.110
23915WAT     H171987   1.816   8.049   8.038
23915WAT     H271988   1.739   8.184   8.088
23916WAT      O71989   4.410   1.632   2.445
23916WAT     H171990   4.405   1.570   2.523
23916WAT     H271991   4.366   1.719   2.470
23917WAT      O71992   2.469   8.311   4.289
23917WAT     H171993   2.459   8.272   4.197
23917WAT     H271994   2.450   8.409   4.287
23918WAT      O71995   3.038   6.601   9.462
23918WAT     H171996   3.037   6.610   9.362
23918WAT     H271997   3.038   6.692   9.503
23919WAT      O71998   3.499   2.885   2.811
23919WAT     H171999   3.416   2.830   2.821
23919WAT     H272000   3.554   2.851   2.736
23920WAT      O72001   5.397   7.558   6.378
23920WAT     H172002   5.320   7.611   6.342
23920WAT     H272003   5.483   7.598   6.344
23921WAT      O72004   6.676   7.072   5.092
23921WAT     H172005   6.707   7.106   5.004
23921WAT     H272006   6.695   6.974   5.099
23922WAT      O72007   2.415   9.021   0.770
23922WAT     H172008   2.439   9.085   0.843
23922WAT     H272009   2.483   9.026   0.697
23923WAT      O72010   6.755   8.947   5.748
23923WAT     H172011   6.780   8.861   5.705
23923WAT     H272012   6.659   8.968   5.728
23924WAT      O72013   4.952   7.947   0.983
23924WAT     H172014   4.931   7.865   0.931
23924WAT     H272015   4.870   8.003   0.991
23925WAT      O72016   6.381   2.679   9.754
23925WAT     H172017   6.353   2.773   9.734
23925WAT     H272018   6.466   2.680   9.807
23926WAT      O72019   4.880   8.456   4.211
23926WAT     H172020   4.934   8.517   4.153
23926WAT     H272021   4.831   8.509   4.280
23927WAT      O72022   2.447   3.009   4.678
23927WAT     H172023   2.451   3.071   4.756
23927WAT     H272024   2.480   2.919   4.704
23928WAT      O72025   5.856   9.226   2.155
23928WAT     H172026   5.850   9.303   2.091
23928WAT     H272027   5.950   9.191   2.155
23929WAT      O72028   1.161   4.016   9.833
23929WAT     H172029   1.237   4.015   9.897
23929WAT     H272030   1.102   3.937   9.850
23930WAT      O72031   5.043   7.736   9.100
23930WAT     H172032   4.964   7.795   9.089
23930WAT     H272033   5.018   7.657   9.157
23931WAT      O72034   5.901   0.272   9.364
23931WAT     H172035   5.807   0.243   9.381
23931WAT     H272036   5.906   0.321   9.276
23932WAT      O72037   3.900   5.850   3.193
23932WAT     H172038   3.838   5.833   3.269
23932WAT     H272039   3.857   5.914   3.129
23933WAT      O72040   5.557   4.227   4.749
23933WAT     H172041   5.570   4.324   4.726
23933WAT     H272042   5.540   4.218   4.848
23934WAT      O72043   4.501   0.781   6.488
23934WAT     H172044   4.555   0.861   6.512
23934WAT     H272045   4.485   0.779   6.389
23935WAT      O72046   5.302   6.145   9.307
23935WAT     H172047   5.396   6.151   9.342
23935WAT     H272048   5.305   6.143   9.207
23936WAT      O72049   3.588   4.821   8.978
23936WAT     H172050   3.555   4.816   8.884
23936WAT     H272051   3.511   4.829   9.041
23937WAT      O72052   3.465   7.925   1.994
23937WAT     H172053   3.413   7.988   1.937
23937WAT     H272054   3.546   7.972   2.029
23938WAT      O72055   8.958   5.558   2.883
23938WAT     H172056   8.894   5.486   2.856
23938WAT     H272057   8.981   5.614   2.804
23939WAT      O72058   5.979   0.582   4.884
23939WAT     H172059   5.985   0.590   4.785
23939WAT     H272060   6.049   0.640   4.926
23940WAT      O72061   8.968   7.899   9.438
23940WAT     H172062   9.012   7.938   9.357
23940WAT     H272063   8.969   7.966   9.512
23941WAT      O72064   1.815   8.778   6.696
23941WAT     H172065   1.857   8.798   6.607
23941WAT     H272066   1.768   8.690   6.691
23942WAT      O72067   4.519   5.975   9.702
23942WAT     H172068   4.525   6.036   9.623
23942WAT     H272069   4.569   6.016   9.779
23943WAT      O72070   7.622   4.513   3.513
23943WAT     H172071   7.698   4.498   3.577
23943WAT     H272072   7.634   4.602   3.470
23944WAT      O72073   5.808   6.392   8.579
23944WAT     H172074   5.813   6.413   8.481
23944WAT     H272075   5.763   6.304   8.592
23945WAT      O72076   9.376   0.744   4.748
23945WAT     H172077   9.340   0.734   4.655
23945WAT     H272078   9.414   0.835   4.759
23946WAT      O72079   4.804   0.722   5.774
23946WAT     H172080   4.842   0.802   5.821
23946WAT     H272081   4.776   0.654   5.842
23947WAT      O72082   7.545   7.398   0.491
23947WAT     H172083   7.590   7.417   0.579
23947WAT     H272084   7.543   7.481   0.436
23948WAT      O72085   8.113   7.574   7.365
23948WAT     H172086   8.101   7.517   7.283
23948WAT     H272087   8.209   7.576   7.390
23949WAT      O72088   3.126   9.589   9.450
23949WAT     H172089   3.118   9.514   9.516
23949WAT     H272090   3.120   9.677   9.499
23950WAT      O72091   8.109   3.615   4.782
23950WAT     H172092   8.175   3.540   4.774
23950WAT     H272093   8.019   3.584   4.749
23951WAT      O72094   7.291   0.015   5.071
23951WAT     H172095   7.193   0.033   5.071
23951WAT     H272096   7.311  -0.062   5.132
23952WAT      O72097   0.936   6.631   0.112
23952WAT     H172098   0.837   6.627   0.106
23952WAT     H272099   0.977   6.587   0.033
23953WAT      O72100   6.290   3.055   3.532
23953WAT     H172101   6.202   3.079   3.490
23953WAT     H272102   6.337   3.139   3.559
23954WAT      O72103   2.036   7.988   2.825
23954WAT     H172104   1.956   7.958   2.773
23954WAT     H272105   2.101   8.034   2.764
23955WAT      O72106   4.600   3.955   7.942
23955WAT     H172107   4.580   3.877   7.882
23955WAT     H272108   4.693   3.946   7.977
23956WAT      O72109   5.573   6.370   4.139
23956WAT     H172110   5.574   6.313   4.057
23956WAT     H272111   5.530   6.458   4.118
23957WAT      O72112   3.845   6.960   6.132
23957WAT     H172113   3.921   7.025   6.124
23957WAT     H272114   3.864   6.896   6.206
23958WAT      O72115   1.752   1.272   6.833
23958WAT     H172116   1.732   1.283   6.930
23958WAT     H272117   1.686   1.209   6.792
23959WAT      O72118   3.368   7.672   8.463
23959WAT     H172119   3.348   7.595   8.523
23959WAT     H272120   3.456   7.657   8.417
23960WAT      O72121   2.400   9.382   4.403
23960WAT     H172122   2.484   9.347   4.360
23960WAT     H272123   2.386   9.477   4.375
23961WAT      O72124   5.579   1.569   0.028
23961WAT     H172125   5.580   1.628  -0.052
23961WAT     H272126   5.651   1.500   0.020
23962WAT      O72127   9.372   9.843   9.467
23962WAT     H172128   9.343   9.754   9.500
23962WAT     H272129   9.311   9.874   9.395
23963WAT      O72130   4.250   5.873   8.016
23963WAT     H172131   4.274   5.836   8.105
23963WAT     H272132   4.331   5.875   7.957
23964WAT      O72133   4.897   0.790   9.640
23964WAT     H172134   4.882   0.889   9.645
23964WAT     H272135   4.810   0.742   9.654
23965WAT      O72136   1.725   0.159   7.174
23965WAT     H172137   1.781   0.079   7.198
23965WAT     H272138   1.630   0.142   7.199
23966WAT      O72139   2.252   5.534   2.218
23966WAT     H172140   2.195   5.541   2.300
23966WAT     H272141   2.348   5.531   2.245
23967WAT      O72142   6.010   5.136   5.830
23967WAT     H172143   5.926   5.086   5.851
23967WAT     H272144   6.033   5.124   5.733
23968WAT      O72145   7.069   2.758   5.438
23968WAT     H172146   7.065   2.660   5.461
23968WAT     H272147   7.155   2.777   5.391
23969WAT      O72148   8.919   8.840   9.623
23969WAT     H172149   9.017   8.818   9.620
23969WAT     H272150   8.891   8.856   9.718
23970WAT      O72151   9.357   7.799   4.748
23970WAT     H172152   9.277   7.754   4.787
23970WAT     H272153   9.432   7.798   4.814
23971WAT      O72154   6.210   0.972   3.778
23971WAT     H172155   6.132   0.985   3.840
23971WAT     H272156   6.272   1.050   3.787
23972WAT      O72157   8.203   8.014   7.047
23972WAT     H172158   8.145   7.989   7.124
23972WAT     H272159   8.169   8.099   7.006
23973WAT      O72160   6.716   4.877   6.204
23973WAT     H172161   6.637   4.819   6.223
23973WAT     H272162   6.800   4.827   6.223
23974WAT      O72163   0.619   2.388   5.872
23974WAT     H172164   0.573   2.451   5.935
23974WAT     H272165   0.664   2.316   5.924
23975WAT      O72166   9.775   4.199   3.979
23975WAT     H172167   9.772   4.285   3.929
23975WAT     H272168   9.800   4.125   3.917
23976WAT      O72169   6.232   8.094   1.998
23976WAT     H172170   6.222   8.079   2.096
23976WAT     H272171   6.142   8.093   1.954
23977WAT      O72172   3.674   5.167   5.882
23977WAT     H172173   3.764   5.161   5.925
23977WAT     H272174   3.670   5.105   5.803
23978WAT      O72175   7.449   3.756   3.617
23978WAT     H172176   7.526   3.693   3.625
23978WAT     H272177   7.402   3.739   3.530
23979WAT      O72178   7.331   9.195   9.747
23979WAT     H172179   7.393   9.224   9.674
23979WAT     H272180   7.257   9.261   9.757
23980WAT      O72181   8.128   1.083   9.050
23980WAT     H172182   8.131   1.151   9.123
23980WAT     H272183   8.042   1.033   9.054
23981WAT      O72184   5.457   6.523   4.861
23981WAT     H172185   5.436   6.449   4.925
23981WAT     H272186   5.437   6.494   4.768
23982WAT      O72187   3.798   3.328   0.820
23982WAT     H172188   3.832   3.238   0.790
23982WAT     H272189   3.874   3.391   0.829
23983WAT      O72190   5.179   1.858   4.808
23983WAT     H172191   5.183   1.810   4.896
23983WAT     H272192   5.164   1.955   4.823
23984WAT      O72193   6.621   6.627   1.367
23984WAT     H172194   6.702   6.569   1.360
23984WAT     H272195   6.613   6.683   1.285
23985WAT      O72196   8.433   3.017   1.320
23985WAT     H172197   8.530   2.996   1.324
23985WAT     H272198   8.412   3.093   1.382
23986WAT      O72199   2.717   4.529   7.213
23986WAT     H172200   2.794   4.538   7.150
23986WAT     H272201   2.728   4.594   7.288
23987WAT      O72202   5.973   6.817   2.676
23987WAT     H172203   5.943   6.913   2.675
23987WAT     H272204   5.893   6.757   2.676
23988WAT      O72205   5.178   7.744   4.644
23988WAT     H172206   5.107   7.678   4.621
23988WAT     H272207   5.202   7.798   4.563
23989WAT      O72208   4.866   2.105   9.757
23989WAT     H172209   4.879   2.008   9.777
23989WAT     H272210   4.875   2.121   9.659
23990WAT      O72211   2.327   3.858   7.478
23990WAT     H172212   2.321   3.760   7.457
23990WAT     H272213   2.317   3.910   7.393
23991WAT      O72214   8.017   3.932   4.410
23991WAT     H172215   8.083   3.890   4.471
23991WAT     H272216   8.048   3.922   4.315
23992WAT      O72217   4.437   8.848   6.012
23992WAT     H172218   4.408   8.793   5.933
23992WAT     H272219   4.360   8.860   6.074
23993WAT      O72220   0.140   5.056   3.774
23993WAT     H172221   0.100   4.988   3.713
23993WAT     H272222   0.240   5.047   3.773
23994WAT      O72223   8.007   3.362   7.869
23994WAT     H172224   8.091   3.319   7.902
23994WAT     H272225   7.928   3.313   7.906
23995WAT      O72226   0.181   1.148   5.081
23995WAT     H172227   0.184   1.227   5.020
23995WAT     H272228   0.251   1.082   5.053
23996WAT      O72229   9.502   1.269   7.863
23996WAT     H172230   9.482   1.252   7.959
23996WAT     H272231   9.548   1.189   7.824
23997WAT      O72232   5.807   6.527   1.684
23997WAT     H172233   5.864   6.582   1.745
23997WAT     H272234   5.713   6.562   1.685
23998WAT      O72235   9.522   0.182   9.608
23998WAT     H172236   9.456   0.133   9.551
23998WAT     H272237   9.538   0.273   9.570
23999WAT      O72238   5.683   6.392   8.967
23999WAT     H172239   5.622   6.465   8.938
23999WAT     H272240   5.664   6.309   8.913
24000WAT      O72241   7.048   5.864   9.500
24000WAT     H172242   7.006   5.779   9.534
24000WAT     H272243   7.137   5.844   9.460
24001WAT      O72244   8.543   6.295   3.410
24001WAT     H172245   8.580   6.361   3.344
24001WAT     H272246   8.524   6.209   3.363
24002WAT      O72247   4.683   9.417   6.963
24002WAT     H172248   4.755   9.357   6.928
24002WAT     H272249   4.701   9.438   7.059
24003WAT      O72250   6.532   0.144   2.072
24003WAT     H172251   6.607   0.159   2.137
24003WAT     H272252   6.475   0.068   2.104
24004WAT      O72253   7.709   3.788   9.127
24004WAT     H172254   7.610   3.775   9.124
24004WAT     H272255   7.749   3.761   9.040
24005WAT      O72256   5.723   8.750   1.196
24005WAT     H172257   5.648   8.741   1.131
24005WAT     H272258   5.689   8.733   1.289
24006WAT      O72259   2.204   6.130   4.663
24006WAT     H172260   2.224   6.174   4.576
24006WAT     H272261   2.107   6.105   4.667
24007WAT      O72262   3.924   8.911   6.237
24007WAT     H172263   4.020   8.887   6.224
24007WAT     H272264   3.908   8.935   6.332
24008WAT      O72265   1.556   9.430   5.679
24008WAT     H172266   1.650   9.395   5.680
24008WAT     H272267   1.517   9.422   5.770
24009WAT      O72268   5.751   6.920   3.955
24009WAT     H172269   5.675   6.859   3.933
24009WAT     H272270   5.768   6.982   3.878
24010WAT      O72271   1.444   5.167   1.395
24010WAT     H172272   1.411   5.140   1.486
24010WAT     H272273   1.442   5.267   1.388
24011WAT      O72274   8.100   4.511   3.330
24011WAT     H172275   8.094   4.579   3.403
24011WAT     H272276   8.189   4.466   3.334
24012WAT      O72277   0.342   4.022   0.492
24012WAT     H172278   0.315   3.948   0.554
24012WAT     H272279   0.323   3.995   0.398
24013WAT      O72280   6.129   9.436   8.546
24013WAT     H172281   6.162   9.522   8.506
24013WAT     H272282   6.040   9.451   8.589
24014WAT      O72283   9.192   8.443   9.356
24014WAT     H172284   9.177   8.520   9.294
24014WAT     H272285   9.278   8.398   9.334
24015WAT      O72286   0.956   0.020   2.448
24015WAT     H172287   0.903   0.034   2.531
24015WAT     H272288   1.028  -0.048   2.465
24016WAT      O72289   9.579   0.101   0.211
24016WAT     H172290   9.526   0.120   0.128
24016WAT     H272291   9.527   0.041   0.270
24017WAT      O72292   4.013   2.323   9.465
24017WAT     H172293   4.019   2.232   9.425
24017WAT     H272294   4.104   2.365   9.466
24018WAT      O72295   1.661   3.237   0.100
24018WAT     H172296   1.615   3.161   0.056
24018WAT     H272297   1.674   3.311   0.034
24019WAT      O72298   5.246   2.346   9.162
24019WAT     H172299   5.279   2.388   9.077
24019WAT     H272300   5.191   2.413   9.213
24020WAT      O72301   7.578   8.004   4.064
24020WAT     H172302   7.582   8.100   4.036
24020WAT     H272303   7.670   7.972   4.086
24021WAT      O72304   2.854   6.722   0.939
24021WAT     H172305   2.898   6.755   0.856
24021WAT     H272306   2.922   6.719   1.013
24022WAT      O72307   1.682   2.405   2.653
24022WAT     H172308   1.631   2.329   2.694
24022WAT     H272309   1.779   2.383   2.651
24023WAT      O72310   5.476   1.110   3.848
24023WAT     H172311   5.414   1.032   3.850
24023WAT     H272312   5.424   1.194   3.834
24024WAT      O72313   4.097   8.024   9.510
24024WAT     H172314   4.025   8.065   9.454
24024WAT     H272315   4.145   8.096   9.560
24025WAT      O72316   2.764   4.101   4.965
24025WAT     H172317   2.825   4.095   5.044
24025WAT     H272318   2.819   4.114   4.882
24026WAT      O72319   3.040   1.772   1.047
24026WAT     H172320   3.071   1.677   1.042
24026WAT     H272321   3.053   1.807   1.140
24027WAT      O72322   7.378   2.780   0.383
24027WAT     H172323   7.453   2.717   0.366
24027WAT     H272324   7.303   2.732   0.429
24028WAT      O72325   8.854   8.512   8.288
24028WAT     H172326   8.783   8.498   8.357
24028WAT     H272327   8.816   8.496   8.197
24029WAT      O72328   5.338   1.662   3.079
24029WAT     H172329   5.408   1.604   3.037
24029WAT     H272330   5.380   1.749   3.106
24030WAT      O72331   8.768   1.489   9.029
24030WAT     H172332   8.859   1.468   8.993
24030WAT     H272333   8.767   1.472   9.128
24031WAT      O72334   9.808   8.725   9.015
24031WAT     H172335   9.835   8.759   8.924
24031WAT     H272336   9.822   8.797   9.082
24032WAT      O72337   0.020   4.168   6.900
24032WAT     H172338  -0.021   4.089   6.945
24032WAT     H272339  -0.002   4.167   6.803
24033WAT      O72340   1.089   3.484   0.710
24033WAT     H172341   1.137   3.557   0.758
24033WAT     H272342   1.076   3.406   0.773
24034WAT      O72343   8.105   4.296   0.002
24034WAT     H172344   8.052   4.305   0.086
24034WAT     H272345   8.122   4.387  -0.037
24035WAT      O72346   8.743   7.617   5.925
24035WAT     H172347   8.754   7.667   6.010
24035WAT     H272348   8.654   7.638   5.884
24036WAT      O72349   3.670   5.123   4.823
24036WAT     H172350   3.753   5.113   4.768
24036WAT     H272351   3.696   5.144   4.917
24037WAT      O72352   5.317   9.516   6.466
24037WAT     H172353   5.382   9.483   6.535
24037WAT     H272354   5.360   9.511   6.376
24038WAT      O72355   2.365   5.178   7.948
24038WAT     H172356   2.285   5.132   7.986
24038WAT     H272357   2.362   5.174   7.848
24039WAT      O72358   9.361   5.420   6.239
24039WAT     H172359   9.460   5.418   6.250
24039WAT     H272360   9.318   5.363   6.309
24040WAT      O72361   0.520   2.035   5.135
24040WAT     H172362   0.440   2.017   5.192
24040WAT     H272363   0.595   2.068   5.193
24041WAT      O72364   1.526   2.280   8.766
24041WAT     H172365   1.488   2.370   8.789
24041WAT     H272366   1.607   2.292   8.709
24042WAT      O72367   7.647   9.538   2.504
24042WAT     H172368   7.723   9.502   2.450
24042WAT     H272369   7.634   9.635   2.483
24043WAT      O72370   7.320   7.785   2.808
24043WAT     H172371   7.342   7.705   2.864
24043WAT     H272372   7.263   7.756   2.731
24044WAT      O72373   7.165   1.827   3.245
24044WAT     H172374   7.258   1.843   3.279
24044WAT     H272375   7.161   1.736   3.203
24045WAT      O72376   3.400   0.752   2.783
24045WAT     H172377   3.341   0.821   2.742
24045WAT     H272378   3.363   0.661   2.763
24046WAT      O72379   1.690   9.416   0.710
24046WAT     H172380   1.671   9.469   0.792
24046WAT     H272381   1.721   9.478   0.638
24047WAT      O72382   2.122   5.526   7.620
24047WAT     H172383   2.208   5.569   7.592
24047WAT     H272384   2.130   5.427   7.613
24048WAT      O72385   5.101   4.998   1.645
24048WAT     H172386   5.159   4.978   1.566
24048WAT     H272387   5.021   5.050   1.615
24049WAT      O72388   3.638   5.170   2.572
24049WAT     H172389   3.676   5.231   2.502
24049WAT     H272390   3.565   5.115   2.531
24050WAT      O72391   1.760   5.008   8.657
24050WAT     H172392   1.742   4.958   8.742
24050WAT     H272393   1.833   5.075   8.673
24051WAT      O72394   1.848   5.907   6.058
24051WAT     H172395   1.891   5.937   6.143
24051WAT     H272396   1.794   5.825   6.075
24052WAT      O72397   5.892   1.861   0.104
24052WAT     H172398   5.886   1.764   0.126
24052WAT     H272399   5.856   1.877   0.012
24053WAT      O72400   8.284   3.440   7.694
24053WAT     H172401   8.299   3.413   7.790
24053WAT     H272402   8.357   3.503   7.666
24054WAT      O72403   7.304   8.138   6.270
24054WAT     H172404   7.233   8.168   6.334
24054WAT     H272405   7.344   8.218   6.225
24055WAT      O72406   4.899   7.689   0.832
24055WAT     H172407   4.972   7.621   0.825
24055WAT     H272408   4.818   7.647   0.873
24056WAT      O72409   2.125   3.600   7.718
24056WAT     H172410   2.137   3.533   7.643
24056WAT     H272411   2.085   3.683   7.682
24057WAT      O72412   2.805   7.519   5.322
24057WAT     H172413   2.726   7.469   5.358
24057WAT     H272414   2.779   7.565   5.237
24058WAT      O72415   5.050   9.111   3.367
24058WAT     H172416   5.116   9.172   3.323
24058WAT     H272417   5.028   9.146   3.458
24059WAT      O72418   4.706   7.051   0.390
24059WAT     H172419   4.768   6.986   0.433
24059WAT     H272420   4.756   7.134   0.366
24060WAT      O72421   2.880   3.129   1.472
24060WAT     H172422   2.908   3.149   1.566
24060WAT     H272423   2.906   3.035   1.449
24061WAT      O72424   4.123   0.103   6.953
24061WAT     H172425   4.202   0.061   6.997
24061WAT     H272426   4.125   0.202   6.968
24062WAT      O72427   7.678   9.614   1.754
24062WAT     H172428   7.768   9.571   1.766
24062WAT     H272429   7.680   9.706   1.793
24063WAT      O72430   3.218   4.781   1.844
24063WAT     H172431   3.190   4.858   1.901
24063WAT     H272432   3.157   4.773   1.766
24064WAT      O72433   6.196   2.723   7.370
24064WAT     H172434   6.273   2.715   7.433
24064WAT     H272435   6.230   2.746   7.279
24065WAT      O72436   9.060   2.493   6.209
24065WAT     H172437   9.092   2.537   6.293
24065WAT     H272438   9.107   2.406   6.198
24066WAT      O72439   9.150   3.054   0.217
24066WAT     H172440   9.143   3.038   0.119
24066WAT     H272441   9.240   3.093   0.238
24067WAT      O72442   5.526   7.952   0.027
24067WAT     H172443   5.588   7.938  -0.051
24067WAT     H272444   5.436   7.979  -0.006
24068WAT      O72445   7.321   1.956   1.824
24068WAT     H172446   7.412   1.988   1.798
24068WAT     H272447   7.251   2.017   1.787
24069WAT      O72448   5.107   8.576   1.499
24069WAT     H172449   5.138   8.663   1.538
24069WAT     H272450   5.108   8.505   1.569
24070WAT      O72451   8.282   0.966   6.153
24070WAT     H172452   8.259   0.961   6.056
24070WAT     H272453   8.296   0.873   6.188
24071WAT      O72454   7.663   2.388   6.743
24071WAT     H172455   7.617   2.468   6.705
24071WAT     H272456   7.669   2.396   6.842
24072WAT      O72457   9.458   7.256   4.406
24072WAT     H172458   9.526   7.184   4.422
24072WAT     H272459   9.489   7.315   4.331
24073WAT      O72460   1.547   9.029   4.391
24073WAT     H172461   1.448   9.037   4.378
24073WAT     H272462   1.585   8.974   4.316
24074WAT      O72463   2.891   1.817   2.924
24074WAT     H172464   2.959   1.768   2.980
24074WAT     H272465   2.919   1.912   2.914
24075WAT      O72466   3.846   5.477   5.947
24075WAT     H172467   3.786   5.420   6.002
24075WAT     H272468   3.809   5.569   5.941
24076WAT      O72469   3.732   9.707   2.221
24076WAT     H172470   3.785   9.640   2.274
24076WAT     H272471   3.781   9.794   2.220
24077WAT      O72472   7.993   1.853   3.539
24077WAT     H172473   7.970   1.788   3.610
24077WAT     H272474   7.955   1.823   3.452
24078WAT      O72475   2.058   2.812   7.858
24078WAT     H172476   2.142   2.779   7.815
24078WAT     H272477   1.993   2.737   7.867
24079WAT      O72478   8.981   8.123   9.603
24079WAT     H172479   8.904   8.160   9.655
24079WAT     H272480   8.991   8.174   9.517
24080WAT      O72481   9.737   3.372   1.012
24080WAT     H172482   9.664   3.438   0.999
24080WAT     H272483   9.705   3.280   0.987
24081WAT      O72484   4.354   1.181   0.306
24081WAT     H172485   4.354   1.121   0.225
24081WAT     H272486   4.414   1.259   0.290
24082WAT      O72487   5.274   6.302   3.841
24082WAT     H172488   5.265   6.280   3.744
24082WAT     H272489   5.190   6.274   3.889
24083WAT      O72490   3.579   5.633   2.605
24083WAT     H172491   3.576   5.732   2.589
24083WAT     H272492   3.668   5.598   2.575
24084WAT      O72493   0.915   3.769   9.494
24084WAT     H172494   0.912   3.759   9.395
24084WAT     H272495   0.853   3.843   9.522
24085WAT      O72496   1.493   7.296   0.883
24085WAT     H172497   1.544   7.230   0.827
24085WAT     H272498   1.417   7.250   0.928
24086WAT      O72499   2.875   9.475   1.643
24086WAT     H172500   2.829   9.562   1.661
24086WAT     H272501   2.892   9.466   1.545
24087WAT      O72502   4.213   5.363   7.207
24087WAT     H172503   4.161   5.297   7.262
24087WAT     H272504   4.308   5.364   7.237
24088WAT      O72505   6.940   3.738   5.464
24088WAT     H172506   6.964   3.686   5.546
24088WAT     H272507   6.849   3.777   5.475
24089WAT      O72508   6.540   6.988   2.195
24089WAT     H172509   6.593   6.923   2.249
24089WAT     H272510   6.601   7.057   2.157
24090WAT      O72511   6.091   8.869   6.235
24090WAT     H172512   5.998   8.873   6.198
24090WAT     H272513   6.150   8.930   6.183
24091WAT      O72514   6.677   2.703   8.949
24091WAT     H172515   6.715   2.784   8.995
24091WAT     H272516   6.711   2.621   8.994
24092WAT      O72517   9.437   2.761   0.123
24092WAT     H172518   9.346   2.746   0.162
24092WAT     H272519   9.429   2.777   0.024
24093WAT      O72520   0.306   3.956   5.257
24093WAT     H172521   0.222   3.989   5.214
24093WAT     H272522   0.338   4.023   5.324
24094WAT      O72523   6.631   4.171   0.649
24094WAT     H172524   6.538   4.141   0.627
24094WAT     H272525   6.667   4.115   0.724
24095WAT      O72526   3.229   0.566   5.284
24095WAT     H172527   3.195   0.613   5.366
24095WAT     H272528   3.323   0.596   5.266
24096WAT      O72529   2.017   4.014   3.195
24096WAT     H172530   1.934   3.962   3.217
24096WAT     H272531   2.068   3.966   3.124
24097WAT      O72532   5.821   9.484   1.915
24097WAT     H172533   5.722   9.479   1.904
24097WAT     H272534   5.865   9.476   1.825
24098WAT      O72535   4.845   9.838   3.049
24098WAT     H172536   4.820   9.755   3.097
24098WAT     H272537   4.772   9.863   2.984
24099WAT      O72538   1.662   2.944   4.683
24099WAT     H172539   1.724   2.866   4.679
24099WAT     H272540   1.699   3.019   4.626
24100WAT      O72541   5.255   9.135   8.840
24100WAT     H172542   5.213   9.073   8.774
24100WAT     H272543   5.219   9.227   8.827
24101WAT      O72544   4.957   8.425   9.595
24101WAT     H172545   5.000   8.472   9.672
24101WAT     H272546   5.023   8.416   9.520
24102WAT      O72547   6.157   1.657   0.008
24102WAT     H172548   6.121   1.740  -0.035
24102WAT     H272549   6.158   1.583  -0.059
24103WAT      O72550   6.438   3.139   0.694
24103WAT     H172551   6.421   3.057   0.748
24103WAT     H272552   6.487   3.114   0.610
24104WAT      O72553   4.698   7.594   0.212
24104WAT     H172554   4.611   7.547   0.224
24104WAT     H272555   4.681   7.690   0.190
24105WAT      O72556   1.880   0.747   7.281
24105WAT     H172557   1.872   0.650   7.257
24105WAT     H272558   1.868   0.758   7.379
24106WAT      O72559   3.977   6.630   5.324
24106WAT     H172560   3.924   6.631   5.239
24106WAT     H272561   3.965   6.717   5.371
24107WAT      O72562   8.000   7.952   8.995
24107WAT     H172563   7.911   7.911   8.975
24107WAT     H272564   7.987   8.048   9.023
24108WAT      O72565   4.565   8.248   1.842
24108WAT     H172566   4.646   8.276   1.790
24108WAT     H272567   4.578   8.269   1.938
24109WAT      O72568   7.304   9.532   3.235
24109WAT     H172569   7.215   9.577   3.237
24109WAT     H272570   7.314   9.483   3.148
24110WAT      O72571   0.252   2.658   1.382
24110WAT     H172572   0.172   2.621   1.335
24110WAT     H272573   0.232   2.671   1.479
24111WAT      O72574   7.383   0.834   8.365
24111WAT     H172575   7.374   0.752   8.421
24111WAT     H272576   7.293   0.877   8.354
24112WAT      O72577   9.041   1.923   5.154
24112WAT     H172578   8.961   1.976   5.182
24112WAT     H272579   9.060   1.939   5.058
24113WAT      O72580   6.809   6.142   2.382
24113WAT     H172581   6.737   6.167   2.318
24113WAT     H272582   6.891   6.116   2.331
24114WAT      O72583   5.602   1.888   5.132
24114WAT     H172584   5.532   1.885   5.204
24114WAT     H272585   5.624   1.983   5.112
24115WAT      O72586   4.528   8.547   1.055
24115WAT     H172587   4.516   8.451   1.080
24115WAT     H272588   4.538   8.602   1.138
24116WAT      O72589   0.477   1.913   3.580
24116WAT     H172590   0.450   1.836   3.639
24116WAT     H272591   0.557   1.886   3.525
24117WAT      O72592   0.233   3.224   4.084
24117WAT     H172593   0.154   3.286   4.091
24117WAT     H272594   0.313   3.276   4.052
24118WAT      O72595   3.595   5.646   9.250
24118WAT     H172596   3.547   5.597   9.323
24118WAT     H272597   3.611   5.741   9.279
24119WAT      O72598   6.773   5.982   5.828
24119WAT     H172599   6.769   5.915   5.753
24119WAT     H272600   6.775   5.934   5.916
24120WAT      O72601   5.129   6.221   6.581
24120WAT     H172602   5.194   6.152   6.612
24120WAT     H272603   5.170   6.312   6.592
24121WAT      O72604   8.106   2.945   7.042
24121WAT     H172605   8.173   2.870   7.049
24121WAT     H272606   8.014   2.909   7.061
24122WAT      O72607   2.926   6.480   8.989
24122WAT     H172608   2.865   6.558   8.977
24122WAT     H272609   2.943   6.437   8.900
24123WAT      O72610   2.997   2.869   8.672
24123WAT     H172611   2.986   2.967   8.657
24123WAT     H272612   2.990   2.821   8.585
24124WAT      O72613   4.369   7.533   3.535
24124WAT     H172614   4.460   7.535   3.575
24124WAT     H272615   4.351   7.621   3.489
24125WAT      O72616   6.245   1.090   8.244
24125WAT     H172617   6.265   1.182   8.276
24125WAT     H272618   6.302   1.025   8.295
24126WAT      O72619   5.275   1.515   0.495
24126WAT     H172620   5.311   1.437   0.547
24126WAT     H272621   5.275   1.493   0.397
24127WAT      O72622   1.749   9.233   6.079
24127WAT     H172623   1.766   9.167   6.006
24127WAT     H272624   1.664   9.209   6.126
24128WAT      O72625   0.609   0.601   4.829
24128WAT     H172626   0.658   0.516   4.848
24128WAT     H272627   0.660   0.678   4.869
24129WAT      O72628   7.749   5.355   2.304
24129WAT     H172629   7.708   5.329   2.391
24129WAT     H272630   7.703   5.307   2.229
24130WAT      O72631   1.640   2.619   8.615
24130WAT     H172632   1.587   2.703   8.604
24130WAT     H272633   1.721   2.637   8.670
24131WAT      O72634   4.629   5.342   5.550
24131WAT     H172635   4.692   5.279   5.595
24131WAT     H272636   4.675   5.385   5.472
24132WAT      O72637   6.470   4.955   0.775
24132WAT     H172638   6.508   4.908   0.695
24132WAT     H272639   6.493   5.053   0.770
24133WAT      O72640   2.479   9.641   8.924
24133WAT     H172641   2.518   9.550   8.933
24133WAT     H272642   2.510   9.699   9.000
24134WAT      O72643   5.780   6.642   2.714
24134WAT     H172644   5.682   6.660   2.722
24134WAT     H272645   5.796   6.544   2.707
24135WAT      O72646   3.975   4.548   5.773
24135WAT     H172647   3.921   4.630   5.758
24135WAT     H272648   4.013   4.516   5.686
24136WAT      O72649   1.126   2.185   9.359
24136WAT     H172650   1.098   2.263   9.417
24136WAT     H272651   1.081   2.192   9.270
24137WAT      O72652   3.097   2.371   5.542
24137WAT     H172653   3.073   2.288   5.492
24137WAT     H272654   3.056   2.367   5.634
24138WAT      O72655   1.192   4.308   0.460
24138WAT     H172656   1.261   4.306   0.388
24138WAT     H272657   1.236   4.321   0.549
24139WAT      O72658   2.773   6.668   2.808
24139WAT     H172659   2.717   6.751   2.811
24139WAT     H272660   2.774   6.632   2.715
24140WAT      O72661   9.233   0.749   6.671
24140WAT     H172662   9.298   0.673   6.681
24140WAT     H272663   9.162   0.741   6.740
24141WAT      O72664   0.095   9.497   5.058
24141WAT     H172665   0.042   9.505   5.143
24141WAT     H272666   0.157   9.419   5.064
24142WAT      O72667   1.828   6.578   9.272
24142WAT     H172668   1.811   6.538   9.362
24142WAT     H272669   1.838   6.505   9.205
24143WAT      O72670   6.410   3.200   3.304
24143WAT     H172671   6.451   3.225   3.392
24143WAT     H272672   6.406   3.101   3.296
24144WAT      O72673   3.969   1.217   9.714
24144WAT     H172674   4.006   1.208   9.806
24144WAT     H272675   3.904   1.293   9.712
24145WAT      O72676   4.848   4.119   0.997
24145WAT     H172677   4.874   4.034   1.044
24145WAT     H272678   4.777   4.098   0.929
24146WAT      O72679   2.970   7.677   9.022
24146WAT     H172680   3.014   7.603   9.072
24146WAT     H272681   2.956   7.649   8.927
24147WAT      O72682   7.469   1.952   1.115
24147WAT     H172683   7.499   2.046   1.131
24147WAT     H272684   7.508   1.893   1.185
24148WAT      O72685   7.019   3.862   4.533
24148WAT     H172686   6.964   3.946   4.536
24148WAT     H272687   6.972   3.790   4.584
24149WAT      O72688   9.734   3.525   5.057
24149WAT     H172689   9.763   3.430   5.068
24149WAT     H272690   9.778   3.581   5.128
24150WAT      O72691   8.513   5.761   1.639
24150WAT     H172692   8.517   5.760   1.539
24150WAT     H272693   8.431   5.713   1.669
24151WAT      O72694   4.969   8.156   2.796
24151WAT     H172695   4.985   8.063   2.830
24151WAT     H272696   4.987   8.221   2.870
24152WAT      O72697   9.871   1.052   7.739
24152WAT     H172698   9.844   0.962   7.706
24152WAT     H272699   9.880   1.115   7.661
24153WAT      O72700   5.639   0.916   9.866
24153WAT     H172701   5.731   0.940   9.834
24153WAT     H272702   5.572   0.944   9.797
24154WAT      O72703   5.093   7.327   6.067
24154WAT     H172704   5.130   7.419   6.054
24154WAT     H272705   5.148   7.262   6.016
24155WAT      O72706   7.653   6.647   8.412
24155WAT     H172707   7.660   6.588   8.492
24155WAT     H272708   7.708   6.610   8.337
24156WAT      O72709   8.614   2.598   8.249
24156WAT     H172710   8.524   2.599   8.291
24156WAT     H272711   8.660   2.685   8.266
24157WAT      O72712   4.789   0.081   6.351
24157WAT     H172713   4.877   0.035   6.347
24157WAT     H272714   4.802   0.180   6.339
24158WAT      O72715   9.431   2.096   4.612
24158WAT     H172716   9.411   2.022   4.676
24158WAT     H272717   9.509   2.149   4.646
24159WAT      O72718   1.785   6.093   6.649
24159WAT     H172719   1.880   6.061   6.649
24159WAT     H272720   1.752   6.097   6.743
24160WAT      O72721   5.317   2.655   8.243
24160WAT     H172722   5.259   2.695   8.314
24160WAT     H272723   5.413   2.672   8.266
24161WAT      O72724   6.411   5.153   7.002
24161WAT     H172725   6.455   5.120   7.085
24161WAT     H272726   6.455   5.113   6.922
24162WAT      O72727   6.132   4.545   7.373
24162WAT     H172728   6.156   4.495   7.290
24162WAT     H272729   6.187   4.628   7.380
24163WAT      O72730   9.503   4.814   6.122
24163WAT     H172731   9.429   4.843   6.183
24163WAT     H272732   9.535   4.723   6.149
24164WAT      O72733   0.781   4.335   8.323
24164WAT     H172734   0.684   4.317   8.339
24164WAT     H272735   0.817   4.392   8.397
24165WAT      O72736   6.780   2.950   7.731
24165WAT     H172737   6.843   2.971   7.806
24165WAT     H272738   6.738   2.861   7.747
24166WAT      O72739   7.988   0.092   9.699
24166WAT     H172740   7.955   0.128   9.786
24166WAT     H272741   7.993  -0.008   9.705
24167WAT      O72742   0.737   4.497   8.112
24167WAT     H172743   0.826   4.507   8.066
24167WAT     H272744   0.745   4.425   8.181
24168WAT      O72745   5.182   5.637   8.437
24168WAT     H172746   5.110   5.595   8.494
24168WAT     H272747   5.145   5.657   8.346
24169WAT      O72748   8.404   6.910   6.816
24169WAT     H172749   8.481   6.967   6.845
24169WAT     H272750   8.388   6.923   6.718
24170WAT      O72751   2.948   5.782   0.964
24170WAT     H172752   2.971   5.730   1.047
24170WAT     H272753   2.931   5.877   0.988
24171WAT      O72754   7.144   4.877   0.137
24171WAT     H172755   7.191   4.791   0.157
24171WAT     H272756   7.091   4.867   0.053
24172WAT      O72757   1.708   4.242   3.612
24172WAT     H172758   1.676   4.256   3.705
24172WAT     H272759   1.636   4.199   3.557
24173WAT      O72760   6.986   1.235   4.013
24173WAT     H172761   6.906   1.230   3.953
24173WAT     H272762   7.042   1.152   4.001
24174WAT      O72763   8.933   3.760   0.585
24174WAT     H172764   8.882   3.707   0.652
24174WAT     H272765   9.031   3.755   0.605
24175WAT      O72766   7.150   0.235   5.607
24175WAT     H172767   7.073   0.182   5.644
24175WAT     H272768   7.179   0.195   5.520
24176WAT      O72769   6.495   0.628   9.789
24176WAT     H172770   6.401   0.656   9.769
24176WAT     H272771   6.495   0.534   9.824
24177WAT      O72772   9.734   0.493   4.192
24177WAT     H172773   9.832   0.510   4.199
24177WAT     H272774   9.698   0.537   4.110
24178WAT      O72775   9.227   8.262   8.944
24178WAT     H172776   9.302   8.227   8.999
24178WAT     H272777   9.252   8.257   8.847
24179WAT      O72778   4.602   2.366   3.032
24179WAT     H172779   4.570   2.437   3.094
24179WAT     H272780   4.546   2.284   3.042
24180WAT      O72781   6.232   7.565   6.310
24180WAT     H172782   6.284   7.544   6.393
24180WAT     H272783   6.197   7.480   6.271
24181WAT      O72784   2.233   6.938   4.433
24181WAT     H172785   2.315   6.969   4.482
24181WAT     H272786   2.261   6.883   4.354
24182WAT      O72787   2.825   8.272   1.934
24182WAT     H172788   2.763   8.226   1.998
24182WAT     H272789   2.832   8.217   1.851
24183WAT      O72790   2.554   3.933   3.940
24183WAT     H172791   2.559   3.847   3.889
24183WAT     H272792   2.503   4.001   3.887
24184WAT      O72793   0.556   5.399   6.060
24184WAT     H172794   0.503   5.355   6.132
24184WAT     H272795   0.653   5.397   6.084
24185WAT      O72796   7.890   0.745   7.285
24185WAT     H172797   7.965   0.683   7.261
24185WAT     H272798   7.803   0.702   7.261
24186WAT      O72799   5.276   8.466   0.182
24186WAT     H172800   5.275   8.540   0.249
24186WAT     H272801   5.293   8.379   0.229
24187WAT      O72802   8.548   0.745   0.780
24187WAT     H172803   8.613   0.688   0.830
24187WAT     H272804   8.524   0.825   0.835
24188WAT      O72805   6.220   4.227   8.268
24188WAT     H172806   6.238   4.283   8.188
24188WAT     H272807   6.274   4.261   8.345
24189WAT      O72808   4.700   4.548   5.829
24189WAT     H172809   4.634   4.540   5.903
24189WAT     H272810   4.719   4.457   5.791
24190WAT      O72811   7.926   1.202   5.401
24190WAT     H172812   7.983   1.283   5.415
24190WAT     H272813   7.959   1.151   5.322
24191WAT      O72814   1.006   5.961   7.173
24191WAT     H172815   0.906   5.952   7.180
24191WAT     H272816   1.031   5.980   7.078
24192WAT      O72817   5.479   3.575   5.250
24192WAT     H172818   5.391   3.602   5.212
24192WAT     H272819   5.465   3.511   5.325
24193WAT      O72820   2.788   0.247   5.223
24193WAT     H172821   2.850   0.169   5.231
24193WAT     H272822   2.784   0.295   5.311
24194WAT      O72823   6.214   1.516   4.050
24194WAT     H172824   6.236   1.610   4.022
24194WAT     H272825   6.199   1.515   4.149
24195WAT      O72826   5.407   5.663   3.937
24195WAT     H172827   5.359   5.687   4.022
24195WAT     H272828   5.350   5.688   3.859
24196WAT      O72829   0.564   5.322   5.639
24196WAT     H172830   0.591   5.404   5.691
24196WAT     H272831   0.619   5.316   5.556
24197WAT      O72832   7.920   5.557   0.877
24197WAT     H172833   7.969   5.474   0.904
24197WAT     H272834   7.984   5.633   0.872
24198WAT      O72835   4.148   0.691   8.763
24198WAT     H172836   4.217   0.620   8.747
24198WAT     H272837   4.192   0.780   8.767
24199WAT      O72838   0.661   0.218   0.058
24199WAT     H172839   0.636   0.231   0.154
24199WAT     H272840   0.601   0.274   0.000
24200WAT      O72841   5.645   3.780   2.066
24200WAT     H172842   5.653   3.880   2.073
24200WAT     H272843   5.555   3.757   2.029
24201WAT      O72844   5.093   1.950   4.133
24201WAT     H172845   5.106   1.963   4.231
24201WAT     H272846   5.172   1.902   4.094
24202WAT      O72847   8.077   0.252   0.026
24202WAT     H172848   7.991   0.272   0.072
24202WAT     H272849   8.142   0.326   0.044
24203WAT      O72850   2.493   5.741   8.723
24203WAT     H172851   2.432   5.733   8.644
24203WAT     H272852   2.587   5.751   8.692
24204WAT      O72853   2.413   9.691   0.193
24204WAT     H172854   2.439   9.742   0.111
24204WAT     H272855   2.493   9.642   0.228
24205WAT      O72856   9.324   4.611   5.207
24205WAT     H172857   9.388   4.557   5.262
24205WAT     H272858   9.240   4.559   5.194
24206WAT      O72859   6.372   1.692   9.620
24206WAT     H172860   6.377   1.705   9.719
24206WAT     H272861   6.277   1.674   9.594
24207WAT      O72862   7.081   8.515   2.255
24207WAT     H172863   7.060   8.579   2.330
24207WAT     H272864   7.171   8.536   2.218
24208WAT      O72865   6.795   3.181   7.539
24208WAT     H172866   6.777   3.122   7.618
24208WAT     H272867   6.723   3.251   7.534
24209WAT      O72868   4.904   3.920   1.951
24209WAT     H172869   4.993   3.927   1.904
24209WAT     H272870   4.890   3.826   1.983
24210WAT      O72871   5.978   7.276   8.943
24210WAT     H172872   5.898   7.305   8.995
24210WAT     H272873   5.963   7.184   8.906
24211WAT      O72874   6.507   5.645   6.624
24211WAT     H172875   6.518   5.718   6.691
24211WAT     H272876   6.578   5.577   6.636
24212WAT      O72877   4.194   1.938   8.657
24212WAT     H172878   4.216   1.843   8.677
24212WAT     H272879   4.204   1.993   8.740
24213WAT      O72880   7.104   7.279   5.553
24213WAT     H172881   7.193   7.300   5.595
24213WAT     H272882   7.035   7.270   5.625
24214WAT      O72883   7.288   8.600   9.106
24214WAT     H172884   7.277   8.635   9.199
24214WAT     H272885   7.246   8.510   9.099
24215WAT      O72886   2.887   0.149   3.371
24215WAT     H172887   2.791   0.147   3.398
24215WAT     H272888   2.894   0.140   3.272
24216WAT      O72889   3.217   6.323   1.042
24216WAT     H172890   3.119   6.314   1.028
24216WAT     H272891   3.236   6.408   1.091
24217WAT      O72892   6.149   6.094   5.311
24217WAT     H172893   6.119   6.127   5.221
24217WAT     H272894   6.201   6.165   5.357
24218WAT      O72895   0.494   3.798   6.132
24218WAT     H172896   0.449   3.737   6.198
24218WAT     H272897   0.491   3.757   6.042
24219WAT      O72898   5.382   9.048   1.826
24219WAT     H172899   5.315   9.068   1.754
24219WAT     H272900   5.351   9.086   1.913
24220WAT      O72901   6.510   0.249   3.470
24220WAT     H172902   6.590   0.268   3.414
24220WAT     H272903   6.538   0.236   3.565
24221WAT      O72904   8.121   0.411   1.079
24221WAT     H172905   8.163   0.476   1.142
24221WAT     H272906   8.022   0.408   1.095
24222WAT      O72907   6.334   2.313   3.177
24222WAT     H172908   6.431   2.323   3.198
24222WAT     H272909   6.321   2.233   3.117
24223WAT      O72910   9.375   7.672   1.172
24223WAT     H172911   9.322   7.697   1.253
24223WAT     H272912   9.361   7.741   1.101
24224WAT      O72913   5.232   0.087   1.492
24224WAT     H172914   5.188   0.135   1.568
24224WAT     H272915   5.294   0.017   1.528
24225WAT      O72916   2.605   7.579   5.700
24225WAT     H172917   2.581   7.483   5.686
24225WAT     H272918   2.536   7.624   5.757
24226WAT      O72919   1.895   2.936   8.513
24226WAT     H172920   1.894   2.906   8.417
24226WAT     H272921   1.949   2.871   8.567
24227WAT      O72922   3.399   3.872   3.419
24227WAT     H172923   3.324   3.827   3.468
24227WAT     H272924   3.483   3.866   3.474
24228WAT      O72925   6.827   5.099   5.158
24228WAT     H172926   6.851   5.129   5.066
24228WAT     H272927   6.729   5.115   5.174
24229WAT      O72928   5.137   9.468   0.440
24229WAT     H172929   5.157   9.486   0.536
24229WAT     H272930   5.212   9.418   0.398
24230WAT      O72931   5.186   1.472   5.138
24230WAT     H172932   5.235   1.474   5.225
24230WAT     H272933   5.092   1.503   5.151
24231WAT      O72934   9.079   5.266   4.518
24231WAT     H172935   9.166   5.308   4.493
24231WAT     H272936   9.069   5.178   4.471
24232WAT      O72937   3.616   1.426   5.983
24232WAT     H172938   3.704   1.389   6.011
24232WAT     H272939   3.604   1.413   5.885
24233WAT      O72940   9.182   9.742   6.040
24233WAT     H172941   9.262   9.687   6.013
24233WAT     H272942   9.162   9.809   5.969
24234WAT      O72943   2.169   2.265   8.060
24234WAT     H172944   2.113   2.240   7.981
24234WAT     H272945   2.190   2.363   8.057
24235WAT      O72946   3.328   6.601   8.984
24235WAT     H172947   3.296   6.550   8.905
24235WAT     H272948   3.268   6.680   8.999
24236WAT      O72949   5.605   4.190   4.190
24236WAT     H172950   5.687   4.152   4.232
24236WAT     H272951   5.619   4.287   4.172
24237WAT      O72952   5.589   4.312   9.284
24237WAT     H172953   5.626   4.382   9.345
24237WAT     H272954   5.665   4.259   9.246
24238WAT      O72955   2.600   7.253   7.689
24238WAT     H172956   2.539   7.187   7.730
24238WAT     H272957   2.693   7.239   7.723
24239WAT      O72958   8.433   9.681   8.365
24239WAT     H172959   8.486   9.765   8.379
24239WAT     H272960   8.452   9.616   8.438
24240WAT      O72961   8.858   3.406   4.061
24240WAT     H172962   8.791   3.372   4.127
24240WAT     H272963   8.949   3.408   4.104
24241WAT      O72964   9.177   7.069   5.534
24241WAT     H172965   9.105   7.129   5.499
24241WAT     H272966   9.156   7.044   5.628
24242WAT      O72967   5.534   7.929   5.937
24242WAT     H172968   5.509   7.867   5.862
24242WAT     H272969   5.579   7.877   6.009
24243WAT      O72970   5.718   7.680   5.033
24243WAT     H172971   5.733   7.606   5.098
24243WAT     H272972   5.805   7.726   5.014
24244WAT      O72973   9.441   6.453   9.143
24244WAT     H172974   9.521   6.404   9.111
24244WAT     H272975   9.456   6.552   9.135
24245WAT      O72976   0.879   9.501   9.400
24245WAT     H172977   0.885   9.403   9.381
24245WAT     H272978   0.834   9.516   9.488
24246WAT      O72979   9.870   8.133   0.082
24246WAT     H172980   9.775   8.102   0.088
24246WAT     H272981   9.876   8.214   0.024
24247WAT      O72982   3.515   7.014   1.122
24247WAT     H172983   3.552   6.956   1.194
24247WAT     H272984   3.578   7.016   1.045
24248WAT      O72985   3.779   0.824   9.724
24248WAT     H172986   3.758   0.767   9.644
24248WAT     H272987   3.693   0.859   9.762
24249WAT      O72988   8.702   7.440   5.113
24249WAT     H172989   8.767   7.408   5.182
24249WAT     H272990   8.752   7.473   5.032
24250WAT      O72991   7.686   0.485   5.446
24250WAT     H172992   7.615   0.554   5.432
24250WAT     H272993   7.748   0.516   5.518
24251WAT      O72994   3.320   5.643   1.291
24251WAT     H172995   3.308   5.740   1.311
24251WAT     H272996   3.399   5.631   1.230
24252WAT      O72997   3.898   9.330   0.827
24252WAT     H172998   3.813   9.311   0.778
24252WAT     H272999   3.891   9.418   0.875
24253WAT      O73000   3.840   4.456   8.894
24253WAT     H173001   3.781   4.496   8.963
24253WAT     H273002   3.926   4.506   8.890
24254WAT      O73003   3.483   7.140   0.493
24254WAT     H173004   3.491   7.239   0.488
24254WAT     H273005   3.559   7.103   0.546
24255WAT      O73006   8.898   7.596   1.429
24255WAT     H173007   8.864   7.684   1.396
24255WAT     H273008   8.822   7.531   1.436
24256WAT      O73009   3.499   4.371   2.793
24256WAT     H173010   3.523   4.401   2.701
24256WAT     H273011   3.578   4.381   2.853
24257WAT      O73012   2.386   6.874   1.509
24257WAT     H173013   2.424   6.834   1.425
24257WAT     H273014   2.294   6.908   1.491
24258WAT      O73015   8.795   6.556   1.943
24258WAT     H173016   8.719   6.621   1.940
24258WAT     H273017   8.796   6.502   1.859
24259WAT      O73018   0.543   7.569   0.424
24259WAT     H173019   0.625   7.544   0.476
24259WAT     H273020   0.464   7.570   0.485
24260WAT      O73021   7.897   7.242   1.687
24260WAT     H173022   7.937   7.311   1.747
24260WAT     H273023   7.818   7.200   1.731
24261WAT      O73024   0.270   9.663   3.365
24261WAT     H173025   0.258   9.736   3.432
24261WAT     H273026   0.201   9.673   3.293
24262WAT      O73027   6.765   3.896   1.470
24262WAT     H173028   6.729   3.817   1.419
24262WAT     H273029   6.861   3.879   1.492
24263WAT      O73030   5.927   6.002   9.637
24263WAT     H173031   5.994   5.951   9.583
24263WAT     H273032   5.850   6.029   9.579
24264WAT      O73033   3.689   5.976   6.516
24264WAT     H173034   3.613   5.993   6.453
24264WAT     H273035   3.669   6.019   6.604
24265WAT      O73036   0.763   4.465   5.279
24265WAT     H173037   0.798   4.556   5.256
24265WAT     H273038   0.836   4.398   5.270
24266WAT      O73039   0.867   0.944   8.377
24266WAT     H173040   0.827   0.853   8.373
24266WAT     H273041   0.878   0.972   8.473
24267WAT      O73042   9.273   4.846   8.789
24267WAT     H173043   9.212   4.806   8.721
24267WAT     H273044   9.368   4.842   8.756
24268WAT      O73045   0.250   0.681   1.161
24268WAT     H173046   0.340   0.659   1.201
24268WAT     H273047   0.254   0.771   1.119
24269WAT      O73048   5.655   4.952   1.738
24269WAT     H173049   5.711   4.915   1.811
24269WAT     H273050   5.560   4.957   1.768
24270WAT      O73051   7.281   9.064   0.716
24270WAT     H173052   7.321   9.133   0.655
24270WAT     H273053   7.344   9.047   0.792
24271WAT      O73054   5.340   2.027   5.082
24271WAT     H173055   5.425   2.079   5.083
24271WAT     H273056   5.291   2.041   5.168
24272WAT      O73057   1.780   0.645   9.570
24272WAT     H173058   1.715   0.651   9.646
24272WAT     H273059   1.770   0.556   9.525
24273WAT      O73060   2.843   3.680   5.672
24273WAT     H173061   2.931   3.650   5.636
24273WAT     H273062   2.798   3.739   5.605
24274WAT      O73063   2.970   3.533   9.745
24274WAT     H173064   3.020   3.611   9.782
24274WAT     H273065   2.886   3.564   9.701
24275WAT      O73066   3.008   5.122   5.141
24275WAT     H173067   3.064   5.185   5.194
24275WAT     H273068   3.064   5.078   5.071
24276WAT      O73069   5.157   2.495   7.735
24276WAT     H173070   5.130   2.591   7.742
24276WAT     H273071   5.244   2.488   7.686
24277WAT      O73072   8.488   0.696   1.705
24277WAT     H173073   8.580   0.733   1.716
24277WAT     H273074   8.486   0.634   1.627
24278WAT      O73075   5.705   0.701   9.015
24278WAT     H173076   5.684   0.759   9.093
24278WAT     H273077   5.786   0.735   8.969
24279WAT      O73078   6.013   3.323   0.460
24279WAT     H173079   5.981   3.380   0.385
24279WAT     H273080   6.052   3.238   0.423
24280WAT      O73081   3.489   7.745   5.611
24280WAT     H173082   3.444   7.738   5.700
24280WAT     H273083   3.569   7.685   5.609
24281WAT      O73084   6.244   2.482   6.233
24281WAT     H173085   6.288   2.563   6.195
24281WAT     H273086   6.146   2.484   6.214
24282WAT      O73087   8.496   6.535   3.973
24282WAT     H173088   8.433   6.498   3.905
24282WAT     H273089   8.473   6.630   3.992
24283WAT      O73090   7.727   9.349   0.114
24283WAT     H173091   7.766   9.402   0.038
24283WAT     H273092   7.703   9.411   0.189
24284WAT      O73093   7.975   8.309   2.980
24284WAT     H173094   7.899   8.348   2.928
24284WAT     H273095   8.057   8.307   2.924
24285WAT      O73096   1.063   1.900   4.442
24285WAT     H173097   1.022   1.984   4.478
24285WAT     H273098   1.036   1.889   4.346
24286WAT      O73099   1.706   8.002   7.275
24286WAT     H173100   1.615   7.997   7.314
24286WAT     H273101   1.717   7.929   7.207
24287WAT      O73102   4.987   4.620   0.875
24287WAT     H173103   5.028   4.542   0.922
24287WAT     H273104   4.898   4.640   0.915
24288WAT      O73105   7.649   0.714   3.155
24288WAT     H173106   7.582   0.767   3.207
24288WAT     H273107   7.614   0.697   3.063
24289WAT      O73108   6.092   0.030   6.847
24289WAT     H173109   6.187  -0.001   6.851
24289WAT     H273110   6.033  -0.040   6.888
24290WAT      O73111   8.501   0.999   0.457
24290WAT     H173112   8.404   1.014   0.478
24290WAT     H273113   8.557   1.059   0.515
24291WAT      O73114   1.771   1.678   6.622
24291WAT     H173115   1.866   1.702   6.602
24291WAT     H273116   1.761   1.663   6.721
24292WAT      O73117   4.220   7.833   4.030
24292WAT     H173118   4.247   7.894   4.104
24292WAT     H273119   4.139   7.781   4.058
24293WAT      O73120   2.172   4.636   9.112
24293WAT     H173121   2.072   4.634   9.124
24293WAT     H273122   2.211   4.550   9.145
24294WAT      O73123   8.124   9.212   2.755
24294WAT     H173124   8.136   9.194   2.657
24294WAT     H273125   8.195   9.277   2.785
24295WAT      O73126   5.149   6.721   1.483
24295WAT     H173127   5.170   6.816   1.460
24295WAT     H273128   5.086   6.683   1.415
24296WAT      O73129   0.544   9.359   2.386
24296WAT     H173130   0.475   9.363   2.458
24296WAT     H273131   0.607   9.283   2.404
24297WAT      O73132   0.587   2.449   2.422
24297WAT     H173133   0.626   2.492   2.504
24297WAT     H273134   0.500   2.493   2.401
24298WAT      O73135   2.145   0.633   1.692
24298WAT     H173136   2.238   0.637   1.657
24298WAT     H273137   2.124   0.540   1.721
24299WAT      O73138   7.125   0.482   3.329
24299WAT     H173139   7.185   0.539   3.385
24299WAT     H273140   7.077   0.417   3.388
24300WAT      O73141   3.223   7.759   7.826
24300WAT     H173142   3.302   7.821   7.831
24300WAT     H273143   3.223   7.700   7.907
24301WAT      O73144   4.933   4.843   1.476
24301WAT     H173145   4.943   4.811   1.382
24301WAT     H273146   4.995   4.792   1.536
24302WAT      O73147   0.520   3.419   2.440
24302WAT     H173148   0.501   3.514   2.414
24302WAT     H273149   0.611   3.393   2.408
24303WAT      O73150   1.097   2.557   4.617
24303WAT     H173151   1.125   2.510   4.701
24303WAT     H273152   1.125   2.653   4.621
24304WAT      O73153   9.324   7.410   8.404
24304WAT     H173154   9.359   7.452   8.321
24304WAT     H273155   9.224   7.410   8.403
24305WAT      O73156   9.608   0.868   5.019
24305WAT     H173157   9.571   0.902   4.933
24305WAT     H273158   9.536   0.865   5.088
24306WAT      O73159   8.022   5.832   4.429
24306WAT     H173160   7.974   5.850   4.344
24306WAT     H273161   7.973   5.876   4.505
24307WAT      O73162   2.777   9.524   9.321
24307WAT     H173163   2.855   9.487   9.271
24307WAT     H273164   2.752   9.613   9.282
24308WAT      O73165   4.132   3.121   7.833
24308WAT     H173166   4.052   3.178   7.816
24308WAT     H273167   4.215   3.172   7.814
24309WAT      O73168   1.617   8.762   9.123
24309WAT     H173169   1.600   8.751   9.026
24309WAT     H273170   1.626   8.672   9.166
24310WAT      O73171   6.061   5.328   9.630
24310WAT     H173172   5.974   5.370   9.653
24310WAT     H273173   6.097   5.367   9.546
24311WAT      O73174   9.460   3.207   2.039
24311WAT     H173175   9.367   3.235   2.062
24311WAT     H273176   9.481   3.121   2.086
24312WAT      O73177   4.755   4.657   7.744
24312WAT     H173178   4.854   4.644   7.742
24312WAT     H273179   4.715   4.620   7.660
24313WAT      O73180   6.081   5.486   0.885
24313WAT     H173181   6.151   5.545   0.925
24313WAT     H273182   5.996   5.496   0.937
24314WAT      O73183   7.518   3.828   7.848
24314WAT     H173184   7.612   3.845   7.880
24314WAT     H273185   7.512   3.735   7.811
24315WAT      O73186   4.363   2.628   8.121
24315WAT     H173187   4.447   2.645   8.172
24315WAT     H273188   4.313   2.552   8.162
24316WAT      O73189   8.955   4.573   1.396
24316WAT     H173190   8.967   4.673   1.395
24316WAT     H273191   9.039   4.529   1.367
24317WAT      O73192   8.606   0.334   6.408
24317WAT     H173193   8.579   0.430   6.416
24317WAT     H273194   8.543   0.277   6.460
24318WAT      O73195   6.343   2.732   6.221
24318WAT     H173196   6.430   2.760   6.183
24318WAT     H273197   6.275   2.804   6.206
24319WAT      O73198   0.781   6.374   5.631
24319WAT     H173199   0.870   6.420   5.631
24319WAT     H273200   0.738   6.383   5.721
24320WAT      O73201   3.264   2.493   6.457
24320WAT     H173202   3.344   2.529   6.504
24320WAT     H273203   3.259   2.394   6.468
24321WAT      O73204   6.243   9.589   1.384
24321WAT     H173205   6.234   9.606   1.482
24321WAT     H273206   6.324   9.533   1.367
24322WAT      O73207   5.554   8.473   5.647
24322WAT     H173208   5.643   8.442   5.680
24322WAT     H273209   5.516   8.406   5.583
24323WAT      O73210   2.088   6.456   2.144
24323WAT     H173211   2.077   6.543   2.192
24323WAT     H273212   2.067   6.468   2.047
24324WAT      O73213   9.187   1.264   1.967
24324WAT     H173214   9.174   1.194   1.897
24324WAT     H273215   9.208   1.351   1.923
24325WAT      O73216   4.600   8.417   0.138
24325WAT     H173217   4.572   8.494   0.081
24325WAT     H273218   4.543   8.414   0.220
24326WAT      O73219   3.119   2.534   1.876
24326WAT     H173220   3.051   2.518   1.948
24326WAT     H273221   3.196   2.584   1.914
24327WAT      O73222   0.918   8.253   4.008
24327WAT     H173223   0.991   8.214   3.954
24327WAT     H273224   0.889   8.188   4.078
24328WAT      O73225   4.219   9.559   6.957
24328WAT     H173226   4.276   9.480   6.932
24328WAT     H273227   4.273   9.622   7.013
24329WAT      O73228   5.824   2.504   6.635
24329WAT     H173229   5.887   2.429   6.652
24329WAT     H273230   5.838   2.576   6.704
24330WAT      O73231   7.449   9.439   5.400
24330WAT     H173232   7.508   9.370   5.357
24330WAT     H273233   7.436   9.416   5.497
24331WAT      O73234   1.809   2.430   2.961
24331WAT     H173235   1.826   2.340   2.921
24331WAT     H273236   1.877   2.448   3.032
24332WAT      O73237   1.866   0.613   4.467
24332WAT     H173238   1.844   0.699   4.513
24332WAT     H273239   1.866   0.538   4.534
24333WAT      O73240   4.237   3.380   0.205
24333WAT     H173241   4.321   3.420   0.241
24333WAT     H273242   4.228   3.286   0.236
24334WAT      O73243   5.772   3.648   3.899
24334WAT     H173244   5.759   3.612   3.807
24334WAT     H273245   5.866   3.682   3.909
24335WAT      O73246   0.719   1.811   7.167
24335WAT     H173247   0.788   1.882   7.150
24335WAT     H273248   0.661   1.801   7.086
24336WAT      O73249   7.356   8.147   5.329
24336WAT     H173250   7.277   8.149   5.390
24336WAT     H273251   7.436   8.182   5.378
24337WAT      O73252   9.324   6.834   3.166
24337WAT     H173253   9.267   6.886   3.230
24337WAT     H273254   9.333   6.886   3.081
24338WAT      O73255   0.280   0.579   5.582
24338WAT     H173256   0.341   0.522   5.527
24338WAT     H273257   0.202   0.607   5.526
24339WAT      O73258   4.471   9.835   3.208
24339WAT     H173259   4.454   9.916   3.263
24339WAT     H273260   4.495   9.758   3.268
24340WAT      O73261   2.245   2.978   5.717
24340WAT     H173262   2.244   3.061   5.661
24340WAT     H273263   2.279   3.000   5.808
24341WAT      O73264   3.303   8.026   3.578
24341WAT     H173265   3.353   8.034   3.491
24341WAT     H273266   3.220   7.973   3.563
24342WAT      O73267   5.042   1.884   7.494
24342WAT     H173268   4.994   1.801   7.523
24342WAT     H273269   5.066   1.876   7.397
24343WAT      O73270   6.655   0.886   4.117
24343WAT     H173271   6.646   0.985   4.130
24343WAT     H273272   6.572   0.851   4.073
24344WAT      O73273   8.102   4.147   5.504
24344WAT     H173274   8.134   4.075   5.565
24344WAT     H273275   8.006   4.131   5.481
24345WAT      O73276   5.459   8.413   8.195
24345WAT     H173277   5.455   8.445   8.289
24345WAT     H273278   5.461   8.313   8.194
24346WAT      O73279   6.221   1.110   3.287
24346WAT     H173280   6.144   1.075   3.234
24346WAT     H273281   6.198   1.199   3.325
24347WAT      O73282   8.138   8.865   8.482
24347WAT     H173283   8.116   8.823   8.394
24347WAT     H273284   8.079   8.827   8.553
24348WAT      O73285   2.356   1.298   9.158
24348WAT     H173286   2.257   1.297   9.168
24348WAT     H273287   2.397   1.343   9.238
24349WAT      O73288   1.208   9.009   3.232
24349WAT     H173289   1.269   8.931   3.242
24349WAT     H273290   1.208   9.062   3.317
24350WAT      O73291   9.166   2.141   9.278
24350WAT     H173292   9.106   2.136   9.198
24350WAT     H273293   9.164   2.234   9.315
24351WAT      O73294   2.289   2.119   0.798
24351WAT     H173295   2.342   2.065   0.733
24351WAT     H273296   2.218   2.170   0.749
24352WAT      O73297   7.312   3.083   9.136
24352WAT     H173298   7.358   3.042   9.215
24352WAT     H273299   7.266   3.167   9.165
24353WAT      O73300   9.046   6.143   7.268
24353WAT     H173301   9.002   6.219   7.220
24353WAT     H273302   9.034   6.059   7.216
24354WAT      O73303   1.128   2.683   9.484
24354WAT     H173304   1.206   2.714   9.428
24354WAT     H273305   1.157   2.605   9.540
24355WAT      O73306   1.241   1.078   7.439
24355WAT     H173307   1.149   1.097   7.474
24355WAT     H273308   1.236   1.056   7.342
24356WAT      O73309   1.708   8.898   4.212
24356WAT     H173310   1.789   8.894   4.270
24356WAT     H273311   1.698   8.811   4.163
24357WAT      O73312   6.296   0.377   5.157
24357WAT     H173313   6.378   0.430   5.140
24357WAT     H273314   6.224   0.405   5.093
24358WAT      O73315   2.831   3.895   7.991
24358WAT     H173316   2.770   3.967   7.956
24358WAT     H273317   2.878   3.851   7.915
24359WAT      O73318   1.980   2.321   5.375
24359WAT     H173319   2.073   2.356   5.361
24359WAT     H273320   1.919   2.396   5.398
24360WAT      O73321   7.350   0.799   4.635
24360WAT     H173322   7.328   0.831   4.543
24360WAT     H273323   7.428   0.737   4.631
24361WAT      O73324   4.687   3.535   3.426
24361WAT     H173325   4.636   3.504   3.346
24361WAT     H273326   4.705   3.633   3.419
24362WAT      O73327   2.556   3.795   0.972
24362WAT     H173328   2.533   3.889   0.998
24362WAT     H273329   2.543   3.735   1.051
24363WAT      O73330   4.464   0.110   5.226
24363WAT     H173331   4.443   0.188   5.285
24363WAT     H273332   4.550   0.068   5.256
24364WAT      O73333   4.555   3.699   7.822
24364WAT     H173334   4.567   3.658   7.912
24364WAT     H273335   4.478   3.656   7.776
24365WAT      O73336   2.260   3.519   3.215
24365WAT     H173337   2.243   3.485   3.307
24365WAT     H273338   2.357   3.507   3.192
24366WAT      O73339   7.928   5.525   7.343
24366WAT     H173340   7.987   5.584   7.289
24366WAT     H273341   7.960   5.523   7.438
24367WAT      O73342   0.476   1.222   3.181
24367WAT     H173343   0.447   1.252   3.272
24367WAT     H273344   0.470   1.299   3.118
24368WAT      O73345   5.249   3.354   1.031
24368WAT     H173346   5.203   3.267   1.045
24368WAT     H273347   5.331   3.358   1.087
24369WAT      O73348   0.419   5.004   2.780
24369WAT     H173349   0.401   4.948   2.861
24369WAT     H273350   0.342   4.996   2.716
24370WAT      O73351   0.668   0.896   0.313
24370WAT     H173352   0.633   0.843   0.390
24370WAT     H273353   0.661   0.993   0.333
24371WAT      O73354   3.668   2.925   8.957
24371WAT     H173355   3.708   2.877   8.880
24371WAT     H273356   3.679   2.870   9.040
24372WAT      O73357   4.044   2.862   5.146
24372WAT     H173358   4.074   2.767   5.135
24372WAT     H273359   4.110   2.910   5.204
24373WAT      O73360   1.248   3.691   1.279
24373WAT     H173361   1.194   3.611   1.252
24373WAT     H273362   1.293   3.673   1.367
24374WAT      O73363   7.871   4.092   1.817
24374WAT     H173364   7.791   4.038   1.843
24374WAT     H273365   7.955   4.044   1.843
24375WAT      O73366   8.867   9.278   9.583
24375WAT     H173367   8.824   9.224   9.655
24375WAT     H273368   8.966   9.265   9.586
24376WAT      O73369   2.563   7.275   3.050
24376WAT     H173370   2.617   7.335   2.991
24376WAT     H273371   2.570   7.307   3.145
24377WAT      O73372   5.084   0.864   3.999
24377WAT     H173373   5.079   0.937   4.067
24377WAT     H273374   5.135   0.787   4.038
24378WAT      O73375   9.068   1.798   8.385
24378WAT     H173376   9.075   1.747   8.299
24378WAT     H273377   9.071   1.734   8.462
24379WAT      O73378   6.338   5.432   2.026
24379WAT     H173379   6.372   5.489   1.951
24379WAT     H273380   6.348   5.335   2.001
24380WAT      O73381   1.492   5.084   5.688
24380WAT     H173382   1.513   5.072   5.785
24380WAT     H273383   1.568   5.132   5.643
24381WAT      O73384   9.279   3.347   8.758
24381WAT     H173385   9.318   3.422   8.811
24381WAT     H273386   9.351   3.304   8.704
24382WAT      O73387   7.693   0.878   9.735
24382WAT     H173388   7.647   0.917   9.814
24382WAT     H273389   7.675   0.934   9.654
24383WAT      O73390   1.896   6.263   2.255
24383WAT     H173391   1.834   6.318   2.311
24383WAT     H273392   1.946   6.323   2.193
24384WAT      O73393   4.685   7.794   2.638
24384WAT     H173394   4.651   7.710   2.681
24384WAT     H273395   4.724   7.854   2.707
24385WAT      O73396   6.125   7.761   4.720
24385WAT     H173397   6.182   7.774   4.802
24385WAT     H273398   6.168   7.692   4.661
24386WAT      O73399   8.755   5.768   5.058
24386WAT     H173400   8.664   5.799   5.032
24386WAT     H273401   8.779   5.687   5.005
24387WAT      O73402   4.142   9.279   3.395
24387WAT     H173403   4.082   9.229   3.332
24387WAT     H273404   4.095   9.360   3.429
24388WAT      O73405   9.861   0.154   2.919
24388WAT     H173406   9.889   0.094   2.843
24388WAT     H273407   9.762   0.170   2.914
24389WAT      O73408   3.385   2.025   2.747
24389WAT     H173409   3.474   2.038   2.704
24389WAT     H273410   3.343   2.114   2.766
24390WAT      O73411   9.607   4.703   0.386
24390WAT     H173412   9.634   4.774   0.321
24390WAT     H273413   9.688   4.665   0.429
24391WAT      O73414   3.737   9.688   3.390
24391WAT     H173415   3.782   9.693   3.479
24391WAT     H273416   3.735   9.594   3.358
24392WAT      O73417   1.331   2.381   0.643
24392WAT     H173418   1.290   2.441   0.712
24392WAT     H273419   1.428   2.368   0.665
24393WAT      O73420   3.041   5.893   0.215
24393WAT     H173421   3.034   5.986   0.251
24393WAT     H273422   3.135   5.860   0.224
24394WAT      O73423   7.545   9.396   1.882
24394WAT     H173424   7.603   9.460   1.832
24394WAT     H273425   7.479   9.447   1.937
24395WAT      O73426   2.589   7.364   8.618
24395WAT     H173427   2.544   7.331   8.701
24395WAT     H273428   2.544   7.447   8.587
24396WAT      O73429   0.333   0.801   6.759
24396WAT     H173430   0.236   0.780   6.774
24396WAT     H273431   0.364   0.755   6.675
24397WAT      O73432   2.714   1.918   0.253
24397WAT     H173433   2.718   1.850   0.327
24397WAT     H273434   2.721   2.010   0.293
24398WAT      O73435   3.019   1.671   9.454
24398WAT     H173436   3.020   1.583   9.501
24398WAT     H273437   2.936   1.721   9.479
24399WAT      O73438   7.831   0.467   1.128
24399WAT     H173439   7.787   0.453   1.040
24399WAT     H273440   7.766   0.449   1.202
24400WAT      O73441   4.905   1.576   9.673
24400WAT     H173442   4.907   1.628   9.588
24400WAT     H273443   4.816   1.585   9.717
24401WAT      O73444   0.984   3.988   3.366
24401WAT     H173445   1.008   3.901   3.408
24401WAT     H273446   1.066   4.041   3.348
24402WAT      O73447   9.243   3.204   1.680
24402WAT     H173448   9.338   3.180   1.699
24402WAT     H273449   9.183   3.128   1.707
24403WAT      O73450   4.230   1.978   8.232
24403WAT     H173451   4.165   1.907   8.258
24403WAT     H273452   4.208   2.011   8.140
24404WAT      O73453   7.682   3.753   4.702
24404WAT     H173454   7.585   3.740   4.721
24404WAT     H273455   7.705   3.850   4.709
24405WAT      O73456   2.709   9.718   2.371
24405WAT     H173457   2.758   9.776   2.436
24405WAT     H273458   2.669   9.776   2.299
24406WAT      O73459   6.635   5.201   9.109
24406WAT     H173460   6.563   5.247   9.057
24406WAT     H273461   6.714   5.184   9.049
24407WAT      O73462   6.332   4.579   9.812
24407WAT     H173463   6.356   4.511   9.880
24407WAT     H273464   6.347   4.542   9.720
24408WAT      O73465   3.551   2.021   9.198
24408WAT     H173466   3.488   2.097   9.214
24408WAT     H273467   3.515   1.961   9.128
24409WAT      O73468   6.111   0.029   5.507
24409WAT     H173469   6.144   0.087   5.582
24409WAT     H273470   6.014   0.009   5.521
24410WAT      O73471   5.468   4.949   6.084
24410WAT     H173472   5.542   4.963   6.150
24410WAT     H273473   5.500   4.892   6.009
24411WAT      O73474   2.980   3.269   2.178
24411WAT     H173475   2.917   3.338   2.214
24411WAT     H273476   2.936   3.180   2.176
24412WAT      O73477   6.515   4.522   8.107
24412WAT     H173478   6.486   4.442   8.055
24412WAT     H273479   6.473   4.604   8.067
24413WAT      O73480   5.913   7.612   1.116
24413WAT     H173481   5.994   7.557   1.093
24413WAT     H273482   5.941   7.705   1.137
24414WAT      O73483   8.521   3.651   1.560
24414WAT     H173484   8.463   3.577   1.525
24414WAT     H273485   8.545   3.714   1.486
24415WAT      O73486   0.749   5.346   6.775
24415WAT     H173487   0.650   5.341   6.760
24415WAT     H273488   0.767   5.397   6.859
24416WAT      O73489   1.709   9.623   9.537
24416WAT     H173490   1.785   9.633   9.473
24416WAT     H273491   1.725   9.543   9.596
24417WAT      O73492   3.194   1.345   9.447
24417WAT     H173493   3.174   1.399   9.366
24417WAT     H273494   3.136   1.375   9.522
24418WAT      O73495   7.389   6.572   6.504
24418WAT     H173496   7.415   6.637   6.575
24418WAT     H273497   7.339   6.620   6.432
24419WAT      O73498   5.030   7.329   6.949
24419WAT     H173499   5.028   7.427   6.929
24419WAT     H273500   4.939   7.299   6.978
24420WAT      O73501   4.157   5.469   4.585
24420WAT     H173502   4.166   5.545   4.649
24420WAT     H273503   4.230   5.475   4.516
24421WAT      O73504   4.453   1.425   2.688
24421WAT     H173505   4.364   1.421   2.735
24421WAT     H273506   4.516   1.480   2.742
24422WAT      O73507   1.651   1.630   1.979
24422WAT     H173508   1.587   1.556   1.957
24422WAT     H273509   1.708   1.649   1.899
24423WAT      O73510   2.212   8.418   0.066
24423WAT     H173511   2.211   8.516   0.048
24423WAT     H273512   2.140   8.395   0.131
24424WAT      O73513   4.991   8.362   4.808
24424WAT     H173514   5.029   8.272   4.786
24424WAT     H273515   5.040   8.401   4.885
24425WAT      O73516   6.174   8.497   8.559
24425WAT     H173517   6.192   8.591   8.529
24425WAT     H273518   6.251   8.439   8.533
24426WAT      O73519   8.276   8.942   2.551
24426WAT     H173520   8.191   8.991   2.529
24426WAT     H273521   8.333   8.999   2.610
24427WAT      O73522   1.298   9.173   8.402
24427WAT     H173523   1.277   9.104   8.333
24427WAT     H273524   1.380   9.223   8.375
24428WAT      O73525   4.726   3.418   1.825
24428WAT     H173526   4.801   3.351   1.830
24428WAT     H273527   4.763   3.509   1.842
24429WAT      O73528   1.426   1.179   0.977
24429WAT     H173529   1.431   1.231   0.892
24429WAT     H273530   1.509   1.193   1.030
24430WAT      O73531   8.668   0.929   1.122
24430WAT     H173532   8.700   0.843   1.083
24430WAT     H273533   8.609   0.911   1.200
24431WAT      O73534   2.066   6.853   3.707
24431WAT     H173535   2.076   6.946   3.672
24431WAT     H273536   1.969   6.832   3.720
24432WAT      O73537   4.137   2.892   5.939
24432WAT     H173538   4.057   2.872   5.882
24432WAT     H273539   4.219   2.887   5.882
24433WAT      O73540   3.639   5.459   7.882
24433WAT     H173541   3.583   5.382   7.852
24433WAT     H273542   3.583   5.524   7.934
24434WAT      O73543   5.741   8.491   8.177
24434WAT     H173544   5.785   8.407   8.146
24434WAT     H273545   5.644   8.489   8.152
24435WAT      O73546   5.204   9.311   3.273
24435WAT     H173547   5.219   9.388   3.211
24435WAT     H273548   5.272   9.314   3.346
24436WAT      O73549   9.568   5.778   2.116
24436WAT     H173550   9.574   5.866   2.162
24436WAT     H273551   9.474   5.744   2.121
24437WAT      O73552   4.989   2.506   4.896
24437WAT     H173553   4.933   2.577   4.938
24437WAT     H273554   5.045   2.547   4.823
24438WAT      O73555   4.229   9.276   8.039
24438WAT     H173556   4.281   9.350   8.080
24438WAT     H273557   4.134   9.306   8.025
24439WAT      O73558   5.844   8.091   4.195
24439WAT     H173559   5.795   8.004   4.199
24439WAT     H273560   5.857   8.126   4.288
24440WAT      O73561   6.327   6.347   6.484
24440WAT     H173562   6.363   6.411   6.417
24440WAT     H273563   6.384   6.265   6.485
24441WAT      O73564   2.503   3.332   0.679
24441WAT     H173565   2.406   3.312   0.693
24441WAT     H273566   2.514   3.427   0.649
24442WAT      O73567   2.688   5.018   9.648
24442WAT     H173568   2.766   5.080   9.640
24442WAT     H273569   2.654   5.020   9.742
24443WAT      O73570   5.376   7.774   3.208
24443WAT     H173571   5.409   7.828   3.286
24443WAT     H273572   5.412   7.681   3.214
24444WAT      O73573   5.274   9.575   9.581
24444WAT     H173574   5.199   9.508   9.573
24444WAT     H273575   5.239   9.660   9.620
24445WAT      O73576   3.256   1.691   5.240
24445WAT     H173577   3.321   1.714   5.167
24445WAT     H273578   3.163   1.713   5.210
24446WAT      O73579   5.391   3.820   7.995
24446WAT     H173580   5.347   3.752   7.935
24446WAT     H273581   5.333   3.838   8.074
24447WAT      O73582   2.150   2.453   6.806
24447WAT     H173583   2.126   2.359   6.782
24447WAT     H273584   2.151   2.509   6.723
24448WAT      O73585   7.164   8.551   8.060
24448WAT     H173586   7.117   8.629   8.102
24448WAT     H273587   7.262   8.571   8.054
24449WAT      O73588   7.890   7.726   5.805
24449WAT     H173589   7.931   7.748   5.893
24449WAT     H273590   7.888   7.627   5.793
24450WAT      O73591   4.860   7.926   9.007
24450WAT     H173592   4.763   7.927   9.028
24450WAT     H273593   4.874   7.894   8.913
24451WAT      O73594   9.204   7.357   4.378
24451WAT     H173595   9.181   7.336   4.473
24451WAT     H273596   9.292   7.316   4.356
24452WAT      O73597   4.886   6.339   3.773
24452WAT     H173598   4.918   6.407   3.708
24452WAT     H273599   4.956   6.322   3.842
24453WAT      O73600   9.813   2.927   6.135
24453WAT     H173601   9.755   2.967   6.064
24453WAT     H273602   9.779   2.835   6.157
24454WAT      O73603   2.114   0.321   6.881
24454WAT     H173604   2.022   0.313   6.919
24454WAT     H273605   2.158   0.231   6.879
24455WAT      O73606   1.820   1.876   6.900
24455WAT     H173607   1.805   1.778   6.890
24455WAT     H273608   1.917   1.897   6.886
24456WAT      O73609   1.541   7.631   6.512
24456WAT     H173610   1.587   7.544   6.529
24456WAT     H273611   1.608   7.705   6.516
24457WAT      O73612   9.384   3.179   0.328
24457WAT     H173613   9.418   3.096   0.373
24457WAT     H273614   9.443   3.200   0.249
24458WAT      O73615   7.850   1.265   5.685
24458WAT     H173616   7.780   1.200   5.714
24458WAT     H273617   7.827   1.300   5.594
24459WAT      O73618   7.593   3.101   8.276
24459WAT     H173619   7.649   3.057   8.346
24459WAT     H273620   7.581   3.040   8.198
24460WAT      O73621   0.628   2.420   5.172
24460WAT     H173622   0.722   2.397   5.145
24460WAT     H273623   0.607   2.376   5.259
24461WAT      O73624   9.548   0.312   3.269
24461WAT     H173625   9.643   0.337   3.248
24461WAT     H273626   9.487   0.360   3.206
24462WAT      O73627   2.761   8.427   3.265
24462WAT     H173628   2.727   8.489   3.337
24462WAT     H273629   2.751   8.471   3.176
24463WAT      O73630   0.860   5.543   3.583
24463WAT     H173631   0.874   5.510   3.490
24463WAT     H273632   0.803   5.478   3.633
24464WAT      O73633   4.131   0.861   8.259
24464WAT     H173634   4.228   0.860   8.237
24464WAT     H273635   4.100   0.956   8.269
24465WAT      O73636   5.717   9.275   6.147
24465WAT     H173637   5.799   9.331   6.133
24465WAT     H273638   5.736   9.181   6.118
24466WAT      O73639   1.783   3.818   3.267
24466WAT     H173640   1.728   3.737   3.248
24466WAT     H273641   1.727   3.900   3.254
24467WAT      O73642   0.816   6.140   1.266
24467WAT     H173643   0.838   6.225   1.219
24467WAT     H273644   0.893   6.111   1.322
24468WAT      O73645   8.803   7.507   4.528
24468WAT     H173646   8.796   7.483   4.625
24468WAT     H273647   8.793   7.425   4.472
24469WAT      O73648   4.705   9.647   0.285
24469WAT     H173649   4.773   9.721   0.290
24469WAT     H273650   4.706   9.595   0.371
24470WAT      O73651   8.872   3.113   9.232
24470WAT     H173652   8.882   3.109   9.133
24470WAT     H273653   8.899   3.204   9.265
24471WAT      O73654   3.799   2.578   8.361
24471WAT     H173655   3.848   2.492   8.376
24471WAT     H273656   3.720   2.561   8.302
24472WAT      O73657   6.792   6.580   6.485
24472WAT     H173658   6.745   6.599   6.399
24472WAT     H273659   6.860   6.651   6.502
24473WAT      O73660   7.050   1.755   4.274
24473WAT     H173661   6.977   1.706   4.226
24473WAT     H273662   7.127   1.694   4.290
24474WAT      O73663   2.298   1.067   7.056
24474WAT     H173664   2.373   1.132   7.040
24474WAT     H273665   2.253   1.089   7.142
24475WAT      O73666   8.164   7.012   6.928
24475WAT     H173667   8.124   7.072   6.859
24475WAT     H273668   8.250   6.974   6.893
24476WAT      O73669   4.971   5.936   2.915
24476WAT     H173670   5.023   5.998   2.855
24476WAT     H273671   4.996   5.953   3.010
24477WAT      O73672   2.450   5.692   5.814
24477WAT     H173673   2.455   5.604   5.767
24477WAT     H273674   2.410   5.680   5.904
24478WAT      O73675   8.702   1.686   3.184
24478WAT     H173676   8.637   1.620   3.222
24478WAT     H273677   8.659   1.776   3.179
24479WAT      O73678   2.467   7.872   4.231
24479WAT     H173679   2.421   7.921   4.304
24479WAT     H273680   2.519   7.795   4.270
24480WAT      O73681   5.921   1.599   0.140
24480WAT     H173682   5.893   1.514   0.096
24480WAT     H273683   6.014   1.623   0.110
24481WAT      O73684   7.099   1.376   1.456
24481WAT     H173685   7.182   1.321   1.465
24481WAT     H273686   7.027   1.338   1.513
24482WAT      O73687   0.765   6.650   2.081
24482WAT     H173688   0.700   6.589   2.035
24482WAT     H273689   0.809   6.710   2.014
24483WAT      O73690   2.849   6.969   6.280
24483WAT     H173691   2.904   6.933   6.205
24483WAT     H273692   2.835   6.898   6.348
24484WAT      O73693   2.636   5.290   9.286
24484WAT     H173694   2.678   5.230   9.219
24484WAT     H273695   2.705   5.322   9.352
24485WAT      O73696   8.944   3.349   5.858
24485WAT     H173697   9.005   3.408   5.805
24485WAT     H273698   8.862   3.329   5.803
24486WAT      O73699   4.214   7.163   0.174
24486WAT     H173700   4.298   7.154   0.228
24486WAT     H273701   4.148   7.094   0.203
24487WAT      O73702   6.702   0.228   9.682
24487WAT     H173703   6.797   0.242   9.710
24487WAT     H273704   6.659   0.161   9.743
24488WAT      O73705   6.671   5.160   9.587
24488WAT     H173706   6.680   5.260   9.591
24488WAT     H273707   6.717   5.120   9.667
24489WAT      O73708   6.521   9.450   9.439
24489WAT     H173709   6.425   9.451   9.467
24489WAT     H273710   6.579   9.454   9.521
24490WAT      O73711   6.202   3.519   0.039
24490WAT     H173712   6.209   3.433   0.090
24490WAT     H273713   6.283   3.530  -0.019
24491WAT      O73714   6.727   7.104   8.027
24491WAT     H173715   6.745   7.182   8.086
24491WAT     H273716   6.630   7.100   8.004
24492WAT      O73717   8.407   6.584   4.797
24492WAT     H173718   8.507   6.595   4.801
24492WAT     H273719   8.382   6.501   4.848
24493WAT      O73720   3.495   2.169   9.600
24493WAT     H173721   3.502   2.175   9.700
24493WAT     H273722   3.566   2.226   9.559
24494WAT      O73723  -0.001   8.293   4.281
24494WAT     H173724  -0.035   8.220   4.341
24494WAT     H273725   0.085   8.329   4.318
24495WAT      O73726   1.998   1.774   8.267
24495WAT     H173727   2.068   1.712   8.303
24495WAT     H273728   1.917   1.769   8.326
24496WAT      O73729   8.080   8.513   1.003
24496WAT     H173730   8.134   8.488   1.083
24496WAT     H273731   8.042   8.430   0.961
24497WAT      O73732   8.475   2.277   6.963
24497WAT     H173733   8.493   2.211   7.035
24497WAT     H273734   8.562   2.319   6.934
24498WAT      O73735   3.000   4.388   9.370
24498WAT     H173736   3.057   4.415   9.447
24498WAT     H273737   3.036   4.429   9.286
24499WAT      O73738   5.248   4.161   0.349
24499WAT     H173739   5.170   4.218   0.374
24499WAT     H273740   5.286   4.119   0.431
24500WAT      O73741   9.586   0.053   4.251
24500WAT     H173742   9.528  -0.014   4.204
24500WAT     H273743   9.536   0.091   4.329
24501WAT      O73744   8.500   1.019   1.941
24501WAT     H173745   8.534   0.926   1.926
24501WAT     H273746   8.493   1.036   2.040
24502WAT      O73747   4.576   8.207   0.416
24502WAT     H173748   4.621   8.296   0.410
24502WAT     H273749   4.602   8.162   0.502
24503WAT      O73750   0.029   7.223   9.260
24503WAT     H173751   0.093   7.150   9.237
24503WAT     H273752   0.012   7.279   9.179
24504WAT      O73753   1.265   5.092   7.890
24504WAT     H173754   1.168   5.078   7.871
24504WAT     H273755   1.316   5.090   7.804
24505WAT      O73756   8.816   3.904   0.055
24505WAT     H173757   8.756   3.914   0.134
24505WAT     H273758   8.861   3.814   0.059
24506WAT      O73759   7.368   7.550   9.381
24506WAT     H173760   7.425   7.492   9.323
24506WAT     H273761   7.319   7.493   9.447
24507WAT      O73762   1.035   8.519   8.244
24507WAT     H173763   1.035   8.505   8.343
24507WAT     H273764   0.948   8.486   8.206
24508WAT      O73765   3.510   0.985   3.569
24508WAT     H173766   3.532   0.890   3.548
24508WAT     H273767   3.454   1.024   3.496
24509WAT      O73768   5.180   3.432   7.959
24509WAT     H173769   5.237   3.349   7.961
24509WAT     H273770   5.142   3.448   8.050
24510WAT      O73771   4.231   1.940   6.646
24510WAT     H173772   4.175   1.865   6.609
24510WAT     H273773   4.228   2.018   6.584
24511WAT      O73774   2.142   4.019   1.790
24511WAT     H173775   2.054   3.994   1.830
24511WAT     H273776   2.171   4.107   1.827
24512WAT      O73777   9.215   8.232   4.107
24512WAT     H173778   9.296   8.284   4.133
24512WAT     H273779   9.223   8.203   4.012
24513WAT      O73780   0.268   8.557   2.105
24513WAT     H173781   0.191   8.495   2.094
24513WAT     H273782   0.349   8.517   2.061
24514WAT      O73783   2.572   6.343   8.931
24514WAT     H173784   2.484   6.369   8.970
24514WAT     H273785   2.633   6.310   9.004
24515WAT      O73786   1.284   5.061   1.190
24515WAT     H173787   1.346   5.105   1.255
24515WAT     H273788   1.190   5.090   1.210
24516WAT      O73789   1.550   6.163   8.698
24516WAT     H173790   1.518   6.068   8.708
24516WAT     H273791   1.499   6.222   8.761
24517WAT      O73792   4.363   0.673   2.425
24517WAT     H173793   4.322   0.715   2.506
24517WAT     H273794   4.462   0.686   2.428
24518WAT      O73795   6.942   6.870   3.559
24518WAT     H173796   6.865   6.849   3.620
24518WAT     H273797   6.987   6.954   3.590
24519WAT      O73798   7.665   3.061   3.795
24519WAT     H173799   7.755   3.028   3.767
24519WAT     H273800   7.601   2.984   3.802
24520WAT      O73801   8.454   3.027   3.201
24520WAT     H173802   8.441   2.971   3.282
24520WAT     H273803   8.521   2.983   3.140
24521WAT      O73804   8.914   2.242   0.813
24521WAT     H173805   8.843   2.277   0.752
24521WAT     H273806   8.929   2.306   0.888
24522WAT      O73807   4.401   2.251   1.937
24522WAT     H173808   4.486   2.232   1.986
24522WAT     H273809   4.356   2.330   1.979
24523WAT      O73810   6.628   5.093   0.230
24523WAT     H173811   6.616   5.131   0.322
24523WAT     H273812   6.557   5.025   0.212
24524WAT      O73813   6.181   3.389   3.358
24524WAT     H173814   6.195   3.479   3.399
24524WAT     H273815   6.270   3.344   3.344
24525WAT      O73816   9.751   2.864   2.219
24525WAT     H173817   9.846   2.891   2.203
24525WAT     H273818   9.747   2.767   2.244
24526WAT      O73819   7.671   8.891   8.708
24526WAT     H173820   7.679   8.803   8.660
24526WAT     H273821   7.761   8.935   8.710
24527WAT      O73822   7.537   6.355   2.002
24527WAT     H173823   7.503   6.262   1.987
24527WAT     H273824   7.482   6.400   2.072
24528WAT      O73825   6.592   6.786   7.951
24528WAT     H173826   6.681   6.820   7.979
24528WAT     H273827   6.596   6.754   7.856
24529WAT      O73828   0.859   6.012   0.402
24529WAT     H173829   0.777   6.067   0.389
24529WAT     H273830   0.868   5.948   0.325
24530WAT      O73831   8.492   1.459   7.014
24530WAT     H173832   8.538   1.377   7.048
24530WAT     H273833   8.403   1.433   6.975
24531WAT      O73834   4.322   0.419   1.590
24531WAT     H173835   4.277   0.508   1.580
24531WAT     H273836   4.405   0.430   1.644
24532WAT      O73837   2.289   8.614   4.008
24532WAT     H173838   2.205   8.611   3.953
24532WAT     H273839   2.363   8.568   3.959
24533WAT      O73840   4.251   6.063   2.772
24533WAT     H173841   4.343   6.103   2.773
24533WAT     H273842   4.211   6.073   2.863
24534WAT      O73843   1.062   9.631   2.132
24534WAT     H173844   1.097   9.586   2.214
24534WAT     H273845   1.010   9.564   2.077
24535WAT      O73846   7.781   6.149   0.673
24535WAT     H173847   7.755   6.079   0.607
24535WAT     H273848   7.783   6.109   0.765
24536WAT      O73849   3.984   8.406   6.421
24536WAT     H173850   3.911   8.473   6.412
24536WAT     H273851   3.995   8.381   6.518
24537WAT      O73852   4.538   2.633   4.248
24537WAT     H173853   4.599   2.676   4.182
24537WAT     H273854   4.457   2.690   4.262
24538WAT      O73855   3.877   1.365   1.756
24538WAT     H173856   3.838   1.430   1.691
24538WAT     H273857   3.971   1.391   1.777
24539WAT      O73858   1.619   1.089   5.120
24539WAT     H173859   1.621   0.993   5.147
24539WAT     H273860   1.696   1.108   5.059
24540WAT      O73861   0.367   6.852   6.494
24540WAT     H173862   0.437   6.798   6.448
24540WAT     H273863   0.279   6.805   6.486
24541WAT      O73864   8.994   0.913   7.134
24541WAT     H173865   9.077   0.866   7.104
24541WAT     H273866   8.929   0.918   7.059
24542WAT      O73867   6.237   9.594   7.192
24542WAT     H173868   6.191   9.508   7.174
24542WAT     H273869   6.323   9.597   7.141
24543WAT      O73870   3.013   6.623   1.755
24543WAT     H173871   3.034   6.546   1.695
24543WAT     H273872   2.997   6.589   1.848
24544WAT      O73873   6.303   0.577   4.334
24544WAT     H173874   6.365   0.548   4.262
24544WAT     H273875   6.300   0.677   4.338
24545WAT      O73876   7.289   1.274   3.735
24545WAT     H173877   7.275   1.267   3.834
24545WAT     H273878   7.223   1.216   3.688
24546WAT      O73879   9.021   4.577   8.847
24546WAT     H173880   9.113   4.552   8.876
24546WAT     H273881   8.954   4.541   8.911
24547WAT      O73882   7.796   6.534   4.729
24547WAT     H173883   7.766   6.612   4.673
24547WAT     H273884   7.716   6.486   4.765
24548WAT      O73885   5.141   1.574   7.719
24548WAT     H173886   5.238   1.587   7.701
24548WAT     H273887   5.121   1.598   7.814
24549WAT      O73888   7.556   4.988   7.360
24549WAT     H173889   7.539   5.052   7.285
24549WAT     H273890   7.493   5.008   7.435
24550WAT      O73891   6.431   9.411   0.279
24550WAT     H173892   6.351   9.393   0.337
24550WAT     H273893   6.512   9.369   0.320
24551WAT      O73894   8.930   6.868   0.388
24551WAT     H173895   8.887   6.788   0.429
24551WAT     H273896   8.878   6.897   0.308
24552WAT      O73897   4.342   0.770   9.063
24552WAT     H173898   4.405   0.795   9.137
24552WAT     H273899   4.394   0.741   8.983
24553WAT      O73900   2.439   6.694   6.641
24553WAT     H173901   2.390   6.777   6.615
24553WAT     H273902   2.447   6.634   6.561
24554WAT      O73903   0.478   9.417   5.344
24554WAT     H173904   0.401   9.361   5.314
24554WAT     H273905   0.451   9.472   5.423
24555WAT      O73906   7.130   4.978   6.472
24555WAT     H173907   7.205   4.962   6.536
24555WAT     H273908   7.054   5.022   6.520
24556WAT      O73909   7.865   3.440   8.727
24556WAT     H173910   7.959   3.422   8.698
24556WAT     H273911   7.802   3.382   8.676
24557WAT      O73912   1.480   2.399   9.774
24557WAT     H173913   1.428   2.332   9.721
24557WAT     H273914   1.428   2.423   9.857
24558WAT      O73915   6.156   1.621   7.424
24558WAT     H173916   6.089   1.660   7.362
24558WAT     H273917   6.220   1.692   7.454
24559WAT      O73918   0.023   9.553   7.593
24559WAT     H173919   0.106   9.589   7.551
24559WAT     H273920   0.031   9.558   7.692
24560WAT      O73921   0.737   5.292   3.693
24560WAT     H173922   0.665   5.226   3.673
24560WAT     H273923   0.705   5.356   3.764
24561WAT      O73924   3.248   3.732   8.163
24561WAT     H173925   3.171   3.669   8.176
24561WAT     H273926   3.237   3.779   8.075
24562WAT      O73927   1.703   7.794   7.080
24562WAT     H173928   1.738   7.701   7.098
24562WAT     H273929   1.683   7.804   6.983
24563WAT      O73930   4.600   0.023   2.935
24563WAT     H173931   4.535   0.040   2.862
24563WAT     H273932   4.554  -0.023   3.011
24564WAT      O73933   0.402   4.643   6.289
24564WAT     H173934   0.395   4.632   6.190
24564WAT     H273935   0.398   4.740   6.312
24565WAT      O73936   4.732   7.502   8.718
24565WAT     H173937   4.771   7.410   8.725
24565WAT     H273938   4.716   7.538   8.810
24566WAT      O73939   5.481   1.911   4.665
24566WAT     H173940   5.424   1.986   4.698
24566WAT     H273941   5.471   1.903   4.565
24567WAT      O73942   5.662   9.730   9.051
24567WAT     H173943   5.631   9.825   9.052
24567WAT     H273944   5.668   9.695   9.144
24568WAT      O73945   6.212   9.234   8.222
24568WAT     H173946   6.176   9.285   8.145
24568WAT     H273947   6.294   9.184   8.193
24569WAT      O73948   9.021   4.578   2.782
24569WAT     H173949   9.055   4.515   2.713
24569WAT     H273950   8.928   4.604   2.761
24570WAT      O73951   4.727   8.883   4.101
24570WAT     H173952   4.753   8.918   4.191
24570WAT     H273953   4.660   8.810   4.112
24571WAT      O73954   9.784   0.673   2.374
24571WAT     H173955   9.851   0.643   2.441
24571WAT     H273956   9.829   0.693   2.287
24572WAT      O73957   3.739   0.976   8.679
24572WAT     H173958   3.777   1.009   8.765
24572WAT     H273959   3.646   0.940   8.694
24573WAT      O73960   6.584   3.529   2.075
24573WAT     H173961   6.667   3.501   2.028
24573WAT     H273962   6.607   3.573   2.162
24574WAT      O73963   9.486   4.404   1.350
24574WAT     H173964   9.522   4.454   1.428
24574WAT     H273965   9.479   4.307   1.372
24575WAT      O73966   0.878   7.031   2.010
24575WAT     H173967   0.791   7.073   2.038
24575WAT     H273968   0.877   7.016   1.911
24576WAT      O73969   2.759   2.804   3.944
24576WAT     H173970   2.773   2.794   4.042
24576WAT     H273971   2.663   2.827   3.927
24577WAT      O73972   5.552   7.233   1.853
24577WAT     H173973   5.462   7.230   1.896
24577WAT     H273974   5.617   7.276   1.916
24578WAT      O73975   6.480   8.675   6.464
24578WAT     H173976   6.455   8.582   6.491
24578WAT     H273977   6.559   8.705   6.517
24579WAT      O73978   0.516   4.312   8.615
24579WAT     H173979   0.429   4.306   8.664
24579WAT     H273980   0.547   4.407   8.613
24580WAT      O73981   2.851   2.462   2.582
24580WAT     H173982   2.776   2.398   2.563
24580WAT     H273983   2.813   2.552   2.603
24581WAT      O73984   2.972   4.593   8.958
24581WAT     H173985   3.018   4.680   8.970
24581WAT     H273986   2.909   4.598   8.881
24582WAT      O73987   9.126   9.375   6.078
24582WAT     H173988   9.105   9.452   6.138
24582WAT     H273989   9.128   9.406   5.983
24583WAT      O73990   7.300   1.512   4.735
24583WAT     H173991   7.277   1.426   4.690
24583WAT     H273992   7.218   1.552   4.775
24584WAT      O73993   3.063   0.724   3.462
24584WAT     H173994   3.022   0.762   3.379
24584WAT     H273995   2.994   0.671   3.512
24585WAT      O73996   3.531   0.312   8.311
24585WAT     H173997   3.466   0.264   8.370
24585WAT     H273998   3.623   0.304   8.350
24586WAT      O73999   8.744   7.608   2.038
24586WAT     H174000   8.742   7.509   2.022
24586WAT     H274001   8.650   7.642   2.044
24587WAT      O74002   8.694   6.109   3.902
24587WAT     H174003   8.671   6.185   3.841
24587WAT     H274004   8.619   6.043   3.901
24588WAT      O74005   0.645   5.258   3.383
24588WAT     H174006   0.629   5.206   3.300
24588WAT     H274007   0.733   5.231   3.423
24589WAT      O74008   2.524   4.272   7.655
24589WAT     H174009   2.440   4.247   7.607
24589WAT     H274010   2.602   4.225   7.613
24590WAT      O74011   9.422   7.846   7.471
24590WAT     H174012   9.372   7.787   7.534
24590WAT     H274013   9.485   7.904   7.522
24591WAT      O74014   7.235   2.530   5.633
24591WAT     H174015   7.193   2.523   5.542
24591WAT     H274016   7.244   2.626   5.658
24592WAT      O74017   9.036   1.846   0.304
24592WAT     H174018   9.067   1.842   0.399
24592WAT     H274019   9.067   1.932   0.263
24593WAT      O74020   5.495   7.382   2.671
24593WAT     H174021   5.447   7.392   2.758
24593WAT     H274022   5.446   7.315   2.614
24594WAT      O74023   2.116   5.731   0.216
24594WAT     H174024   2.121   5.822   0.176
24594WAT     H274025   2.085   5.666   0.147
24595WAT      O74026   0.251   4.279   5.140
24595WAT     H174027   0.267   4.377   5.147
24595WAT     H274028   0.337   4.231   5.124
24596WAT      O74029   6.609   6.277   6.264
24596WAT     H174030   6.530   6.229   6.304
24596WAT     H274031   6.581   6.369   6.236
24597WAT      O74032   8.928   7.775   7.396
24597WAT     H174033   8.852   7.730   7.350
24597WAT     H274034   8.951   7.860   7.349
24598WAT      O74035   1.858   3.689   7.062
24598WAT     H174036   1.829   3.674   6.968
24598WAT     H274037   1.944   3.742   7.062
24599WAT      O74038   0.844   1.857   5.864
24599WAT     H174039   0.832   1.915   5.783
24599WAT     H274040   0.772   1.787   5.865
24600WAT      O74041   7.704   0.147   2.151
24600WAT     H174042   7.642   0.199   2.209
24600WAT     H274043   7.796   0.185   2.158
24601WAT      O74044   4.728   1.175   6.033
24601WAT     H174045   4.781   1.123   5.966
24601WAT     H274046   4.639   1.198   5.994
24602WAT      O74047   1.675   6.197   4.416
24602WAT     H174048   1.743   6.157   4.478
24602WAT     H274049   1.598   6.134   4.406
24603WAT      O74050   8.153   5.214   3.866
24603WAT     H174051   8.074   5.164   3.900
24603WAT     H274052   8.188   5.169   3.784
24604WAT      O74053   3.927   4.813   0.630
24604WAT     H174054   3.931   4.911   0.614
24604WAT     H274055   3.839   4.789   0.670
24605WAT      O74056   5.256   1.696   8.683
24605WAT     H174057   5.269   1.754   8.764
24605WAT     H274058   5.208   1.749   8.613
24606WAT      O74059   1.897   6.558   5.530
24606WAT     H174060   1.986   6.567   5.485
24606WAT     H274061   1.847   6.481   5.490
24607WAT      O74062   0.313   7.193   4.779
24607WAT     H174063   0.225   7.152   4.799
24607WAT     H274064   0.365   7.134   4.717
24608WAT      O74065   8.763   2.737   9.528
24608WAT     H174066   8.737   2.795   9.451
24608WAT     H274067   8.773   2.642   9.497
24609WAT      O74068   9.315   7.479   6.613
24609WAT     H174069   9.253   7.426   6.671
24609WAT     H274070   9.268   7.509   6.531
24610WAT      O74071   5.764   2.192   6.600
24610WAT     H174072   5.763   2.102   6.556
24610WAT     H274073   5.812   2.257   6.541
24611WAT      O74074   9.796   6.450   4.142
24611WAT     H174075   9.779   6.426   4.046
24611WAT     H274076   9.838   6.541   4.146
24612WAT      O74077   7.840   9.530   5.251
24612WAT     H174078   7.773   9.598   5.281
24612WAT     H274079   7.927   9.575   5.231
24613WAT      O74080   4.407   9.009   8.506
24613WAT     H174081   4.414   9.032   8.603
24613WAT     H274082   4.315   8.976   8.486
24614WAT      O74083   0.148   8.480   0.801
24614WAT     H174084   0.205   8.556   0.769
24614WAT     H274085   0.207   8.408   0.838
24615WAT      O74086   7.181   0.547   7.181
24615WAT     H174087   7.254   0.481   7.163
24615WAT     H274088   7.101   0.524   7.125
24616WAT      O74089   8.863   1.261   3.081
24616WAT     H174090   8.935   1.328   3.099
24616WAT     H274091   8.773   1.305   3.086
24617WAT      O74092   0.821   7.809   0.452
24617WAT     H174093   0.871   7.727   0.423
24617WAT     H274094   0.771   7.790   0.536
24618WAT      O74095   9.753   9.238   1.931
24618WAT     H174096   9.701   9.162   1.892
24618WAT     H274097   9.689   9.310   1.959
24619WAT      O74098   1.748   3.344   5.771
24619WAT     H174099   1.661   3.377   5.734
24619WAT     H274100   1.794   3.288   5.703
24620WAT      O74101   5.380   3.651   6.747
24620WAT     H174102   5.404   3.722   6.680
24620WAT     H274103   5.357   3.694   6.834
24621WAT      O74104   4.147   4.485   7.216
24621WAT     H174105   4.114   4.432   7.138
24621WAT     H274106   4.089   4.565   7.229
24622WAT      O74107   0.619   3.851   4.272
24622WAT     H174108   0.522   3.875   4.268
24622WAT     H274109   0.629   3.759   4.310
24623WAT      O74110   5.513   2.094   7.781
24623WAT     H174111   5.581   2.027   7.808
24623WAT     H274112   5.441   2.049   7.727
24624WAT      O74113   3.843   9.515   6.475
24624WAT     H174114   3.851   9.488   6.379
24624WAT     H274115   3.861   9.436   6.533
24625WAT      O74116   6.765   7.279   0.234
24625WAT     H174117   6.739   7.209   0.300
24625WAT     H274118   6.860   7.307   0.251
24626WAT      O74119   3.069   7.035   4.696
24626WAT     H174120   3.043   6.987   4.780
24626WAT     H274121   3.034   7.129   4.699
24627WAT      O74122   4.927   0.070   1.484
24627WAT     H174123   5.025   0.090   1.476
24627WAT     H274124   4.894   0.100   1.573
24628WAT      O74125   5.529   5.020   2.099
24628WAT     H174126   5.591   5.027   2.177
24628WAT     H274127   5.485   5.108   2.083
24629WAT      O74128   1.859   8.053   8.387
24629WAT     H174129   1.794   7.981   8.412
24629WAT     H274130   1.879   8.047   8.290
24630WAT      O74131   2.199   7.596   6.444
24630WAT     H174132   2.125   7.605   6.376
24630WAT     H274133   2.194   7.505   6.485
24631WAT      O74134   3.550   0.468   6.144
24631WAT     H174135   3.565   0.567   6.139
24631WAT     H274136   3.502   0.447   6.229
24632WAT      O74137   5.974   1.487   2.881
24632WAT     H174138   6.008   1.458   2.971
24632WAT     H274139   5.905   1.423   2.849
24633WAT      O74140   3.566   0.010   8.576
24633WAT     H174141   3.587   0.005   8.478
24633WAT     H274142   3.471   0.038   8.588
24634WAT      O74143   2.113   1.284   9.311
24634WAT     H174144   2.086   1.380   9.324
24634WAT     H274145   2.037   1.225   9.337
24635WAT      O74146   8.085   6.910   2.579
24635WAT     H174147   7.997   6.869   2.554
24635WAT     H274148   8.114   6.874   2.668
24636WAT      O74149   1.591   0.283   3.527
24636WAT     H174150   1.559   0.202   3.478
24636WAT     H274151   1.512   0.335   3.560
24637WAT      O74152   6.531   9.523   6.516
24637WAT     H174153   6.458   9.523   6.447
24637WAT     H274154   6.591   9.602   6.500
24638WAT      O74155   1.040   1.803   7.348
24638WAT     H174156   0.974   1.853   7.405
24638WAT     H274157   1.012   1.707   7.341
24639WAT      O74158   7.138   0.499   7.877
24639WAT     H174159   7.042   0.503   7.851
24639WAT     H274160   7.195   0.499   7.795
24640WAT      O74161   1.592   3.709   8.527
24640WAT     H174162   1.526   3.760   8.582
24640WAT     H274163   1.646   3.773   8.472
24641WAT      O74164   8.364   2.909   1.079
24641WAT     H174165   8.322   2.820   1.099
24641WAT     H274166   8.376   2.960   1.164
24642WAT      O74167   3.701   8.333   9.703
24642WAT     H174168   3.725   8.342   9.800
24642WAT     H274169   3.612   8.375   9.687
24643WAT      O74170   6.921   7.338   5.072
24643WAT     H174171   7.003   7.288   5.100
24643WAT     H274172   6.857   7.343   5.149
24644WAT      O74173   2.039   6.674   2.282
24644WAT     H174174   1.963   6.729   2.314
24644WAT     H274175   2.080   6.626   2.359
24645WAT      O74176   4.582   1.548   2.224
24645WAT     H174177   4.557   1.454   2.201
24645WAT     H274178   4.534   1.576   2.307
24646WAT      O74179   7.935   8.314   7.705
24646WAT     H174180   7.915   8.407   7.675
24646WAT     H274181   7.861   8.280   7.762
24647WAT      O74182   5.518   0.998   0.216
24647WAT     H174183   5.535   0.939   0.137
24647WAT     H274184   5.419   1.008   0.229
24648WAT      O74185   9.239   8.541   9.031
24648WAT     H174186   9.260   8.445   9.014
24648WAT     H274187   9.164   8.570   8.972
24649WAT      O74188   3.321   6.195   8.310
24649WAT     H174189   3.392   6.165   8.245
24649WAT     H274190   3.231   6.183   8.269
24650WAT      O74191   9.043   3.256   0.605
24650WAT     H174192   9.022   3.264   0.702
24650WAT     H274193   9.135   3.289   0.587
24651WAT      O74194   3.869   0.259   3.659
24651WAT     H174195   3.898   0.210   3.577
24651WAT     H274196   3.940   0.253   3.729
24652WAT      O74197   4.012   9.082   8.658
24652WAT     H174198   3.998   9.118   8.751
24652WAT     H274199   3.934   9.025   8.632
24653WAT      O74200   3.827   4.221   6.895
24653WAT     H174201   3.740   4.249   6.854
24653WAT     H274202   3.841   4.123   6.880
24654WAT      O74203   4.862   3.173   6.223
24654WAT     H174204   4.826   3.177   6.316
24654WAT     H274205   4.904   3.084   6.207
24655WAT      O74206   2.448   8.170   4.566
24655WAT     H174207   2.387   8.113   4.510
24655WAT     H274208   2.483   8.246   4.511
24656WAT      O74209   7.171   9.838   8.131
24656WAT     H174210   7.146   9.932   8.109
24656WAT     H274211   7.270   9.830   8.138
24657WAT      O74212   4.134   3.923   0.797
24657WAT     H174213   4.055   3.914   0.736
24657WAT     H274214   4.120   3.866   0.878
24658WAT      O74215   2.628   5.505   0.253
24658WAT     H174216   2.555   5.554   0.299
24658WAT     H274217   2.674   5.566   0.188
24659WAT      O74218   3.718   0.526   2.023
24659WAT     H174219   3.630   0.478   2.026
24659WAT     H274220   3.772   0.492   1.946
24660WAT      O74221   7.623   5.332   6.865
24660WAT     H174222   7.672   5.303   6.948
24660WAT     H274223   7.644   5.270   6.790
24661WAT      O74224   2.392   5.913   5.619
24661WAT     H174225   2.348   5.864   5.694
24661WAT     H274226   2.454   5.851   5.571
24662WAT      O74227   3.336   2.676   1.492
24662WAT     H174228   3.415   2.725   1.455
24662WAT     H274229   3.350   2.577   1.481
24663WAT      O74230   4.734   5.765   3.611
24663WAT     H174231   4.740   5.824   3.692
24663WAT     H274232   4.665   5.695   3.627
24664WAT      O74233   0.524   3.012   4.018
24664WAT     H174234   0.468   3.030   3.937
24664WAT     H274235   0.476   2.948   4.078
24665WAT      O74236   3.113   3.853   2.921
24665WAT     H174237   3.176   3.875   2.996
24665WAT     H274238   3.118   3.755   2.901
24666WAT      O74239   7.006   0.488   2.966
24666WAT     H174240   7.032   0.410   2.911
24666WAT     H274241   7.079   0.509   3.031
24667WAT      O74242   7.297   8.944   3.046
24667WAT     H174243   7.297   8.981   2.953
24667WAT     H274244   7.388   8.909   3.069
24668WAT      O74245   1.442   6.302   5.160
24668WAT     H174246   1.427   6.246   5.242
24668WAT     H274247   1.477   6.244   5.086
24669WAT      O74248   5.548   0.828   8.087
24669WAT     H174249   5.510   0.765   8.018
24669WAT     H274250   5.513   0.920   8.070
24670WAT      O74251   9.269   5.064   4.934
24670WAT     H174252   9.203   5.116   4.880
24670WAT     H274253   9.227   4.979   4.965
24671WAT      O74254   6.415   2.843   4.978
24671WAT     H174255   6.476   2.922   4.975
24671WAT     H274256   6.468   2.760   4.988
24672WAT      O74257   1.333   8.797   3.468
24672WAT     H174258   1.251   8.741   3.481
24672WAT     H274259   1.353   8.848   3.551
24673WAT      O74260   7.784   7.572   5.357
24673WAT     H174261   7.707   7.629   5.387
24673WAT     H274262   7.848   7.560   5.433
24674WAT      O74263   7.133   3.640   4.388
24674WAT     H174264   7.042   3.610   4.359
24674WAT     H274265   7.123   3.703   4.465
24675WAT      O74266   8.327   0.002   5.340
24675WAT     H174267   8.317   0.088   5.291
24675WAT     H274268   8.240  -0.022   5.383
24676WAT      O74269   7.222   1.828   4.790
24676WAT     H174270   7.226   1.928   4.798
24676WAT     H274271   7.285   1.788   4.857
24677WAT      O74272   3.497   5.898   8.873
24677WAT     H174273   3.443   5.943   8.944
24677WAT     H274274   3.438   5.880   8.794
24678WAT      O74275   9.236   6.478   5.741
24678WAT     H174276   9.333   6.458   5.728
24678WAT     H274277   9.182   6.396   5.721
24679WAT      O74278   0.528   1.420   4.456
24679WAT     H174279   0.517   1.450   4.362
24679WAT     H274280   0.615   1.371   4.465
24680WAT      O74281   0.019   1.735   2.449
24680WAT     H174282   0.113   1.703   2.438
24680WAT     H274283  -0.010   1.781   2.365
24681WAT      O74284   3.723   1.651   1.986
24681WAT     H174285   3.801   1.589   2.000
24681WAT     H274286   3.673   1.661   2.072
24682WAT      O74287   5.760   7.830   4.206
24682WAT     H174288   5.687   7.783   4.255
24682WAT     H274289   5.841   7.835   4.264
24683WAT      O74290   7.191   2.659   0.797
24683WAT     H174291   7.201   2.734   0.862
24683WAT     H274292   7.106   2.610   0.815
24684WAT      O74293   4.250   6.618   1.212
24684WAT     H174294   4.170   6.677   1.220
24684WAT     H274295   4.329   6.673   1.185
24685WAT      O74296   0.748   5.950   8.156
24685WAT     H174297   0.700   5.999   8.084
24685WAT     H274298   0.725   5.852   8.151
24686WAT      O74299   4.056   1.862   6.404
24686WAT     H174300   4.093   1.786   6.350
24686WAT     H274301   3.956   1.859   6.399
24687WAT      O74302   6.260   4.398   6.369
24687WAT     H174303   6.349   4.359   6.394
24687WAT     H274304   6.196   4.324   6.347
24688WAT      O74305   1.611   7.181   1.207
24688WAT     H174306   1.552   7.238   1.149
24688WAT     H274307   1.596   7.205   1.303
24689WAT      O74308   2.233   6.745   0.429
24689WAT     H174309   2.312   6.685   0.413
24689WAT     H274310   2.216   6.752   0.527
24690WAT      O74311   4.268   7.169   7.460
24690WAT     H174312   4.310   7.086   7.496
24690WAT     H274313   4.254   7.234   7.534
24691WAT      O74314   5.735   4.915   3.855
24691WAT     H174315   5.735   4.994   3.793
24691WAT     H274316   5.646   4.869   3.851
24692WAT      O74317   9.592   6.885   1.379
24692WAT     H174318   9.647   6.864   1.460
24692WAT     H274319   9.519   6.948   1.404
24693WAT      O74320   2.798   3.190   6.189
24693WAT     H174321   2.858   3.228   6.259
24693WAT     H274322   2.838   3.207   6.098
24694WAT      O74323   4.423   4.858   3.079
24694WAT     H174324   4.464   4.819   3.162
24694WAT     H274325   4.494   4.900   3.023
24695WAT      O74326   2.852   8.254   6.680
24695WAT     H174327   2.889   8.202   6.603
24695WAT     H274328   2.880   8.349   6.672
24696WAT      O74329   6.139   7.161   7.378
24696WAT     H174330   6.227   7.117   7.397
24696WAT     H274331   6.128   7.172   7.280
24697WAT      O74332   5.670   9.042   9.324
24697WAT     H174333   5.692   9.024   9.420
24697WAT     H274334   5.581   9.087   9.318
24698WAT      O74335   9.523   2.753   8.936
24698WAT     H174336   9.469   2.744   8.852
24698WAT     H274337   9.612   2.795   8.914
24699WAT      O74338   5.488   5.101   0.277
24699WAT     H174339   5.537   5.188   0.285
24699WAT     H274340   5.411   5.112   0.214
24700WAT      O74341   3.486   0.675   9.002
24700WAT     H174342   3.438   0.754   9.041
24700WAT     H274343   3.466   0.593   9.056
24701WAT      O74344   7.296   6.895   6.185
24701WAT     H174345   7.266   6.802   6.207
24701WAT     H274346   7.357   6.892   6.106
24702WAT      O74347   1.298   0.738   2.171
24702WAT     H174348   1.222   0.715   2.110
24702WAT     H274349   1.310   0.665   2.239
24703WAT      O74350   1.823   5.558   0.136
24703WAT     H174351   1.811   5.611   0.052
24703WAT     H274352   1.752   5.584   0.202
24704WAT      O74353   4.438   3.847   8.313
24704WAT     H174354   4.438   3.887   8.404
24704WAT     H274355   4.411   3.917   8.246
24705WAT      O74356   1.844   8.075   3.776
24705WAT     H174357   1.815   8.141   3.707
24705WAT     H274358   1.882   7.994   3.732
24706WAT      O74359   2.669   8.024   4.679
24706WAT     H174360   2.586   8.059   4.636
24706WAT     H274361   2.650   8.004   4.776
24707WAT      O74362   6.560   4.801   0.978
24707WAT     H174363   6.484   4.774   1.038
24707WAT     H274364   6.528   4.872   0.915
24708WAT      O74365   1.212   5.676   4.257
24708WAT     H174366   1.129   5.730   4.272
24708WAT     H274367   1.195   5.609   4.185
24709WAT      O74368   9.798   5.403   4.883
24709WAT     H174369   9.880   5.459   4.891
24709WAT     H274370   9.815   5.326   4.822
24710WAT      O74371   8.128   2.737   8.651
24710WAT     H174372   8.074   2.701   8.575
24710WAT     H274373   8.148   2.664   8.716
24711WAT      O74374   3.184   1.594   3.836
24711WAT     H174375   3.193   1.685   3.877
24711WAT     H274376   3.261   1.578   3.773
24712WAT      O74377   5.228   2.236   5.429
24712WAT     H174378   5.220   2.323   5.380
24712WAT     H274379   5.174   2.166   5.382
24713WAT      O74380   6.613   2.581   0.036
24713WAT     H174381   6.557   2.571   0.118
24713WAT     H274382   6.580   2.519  -0.035
24714WAT      O74383   9.806   3.911   6.989
24714WAT     H174384   9.843   3.834   6.938
24714WAT     H274385   9.709   3.923   6.965
24715WAT      O74386   2.744   0.290   2.155
24715WAT     H174387   2.726   0.386   2.132
24715WAT     H274388   2.839   0.268   2.134
24716WAT      O74389   5.003   4.374   0.152
24716WAT     H174390   5.081   4.432   0.173
24716WAT     H274391   4.945   4.365   0.233
24717WAT      O74392   3.278   2.054   9.461
24717WAT     H174393   3.352   2.107   9.501
24717WAT     H274394   3.307   1.959   9.449
24718WAT      O74395   6.749   1.787   6.499
24718WAT     H174396   6.828   1.848   6.489
24718WAT     H274397   6.709   1.769   6.409
24719WAT      O74398   2.831   2.386   7.015
24719WAT     H174399   2.854   2.444   7.093
24719WAT     H274400   2.864   2.293   7.031
24720WAT      O74401   4.621   4.024   7.108
24720WAT     H174402   4.642   3.980   7.020
24720WAT     H274403   4.522   4.033   7.118
24721WAT      O74404   0.648   1.344   7.154
24721WAT     H174405   0.556   1.361   7.118
24721WAT     H274406   0.710   1.416   7.123
24722WAT      O74407   2.622   4.135   9.154
24722WAT     H174408   2.634   4.201   9.080
24722WAT     H274409   2.706   4.083   9.167
24723WAT      O74410   3.537   8.536   1.312
24723WAT     H174411   3.633   8.512   1.304
24723WAT     H274412   3.487   8.461   1.356
24724WAT      O74413   1.552   7.324   6.115
24724WAT     H174414   1.464   7.348   6.156
24724WAT     H274415   1.538   7.264   6.037
24725WAT      O74416   8.280   1.389   5.752
24725WAT     H174417   8.280   1.332   5.670
24725WAT     H274418   8.186   1.405   5.782
24726WAT      O74419   0.098   2.562   8.902
24726WAT     H174420   0.014   2.508   8.893
24726WAT     H274421   0.177   2.506   8.880
24727WAT      O74422   5.248   1.323   2.030
24727WAT     H174423   5.169   1.384   2.027
24727WAT     H274424   5.332   1.377   2.037
24728WAT      O74425   8.311   9.716   8.821
24728WAT     H174426   8.251   9.720   8.741
24728WAT     H274427   8.259   9.682   8.900
24729WAT      O74428   8.677   4.190   5.501
24729WAT     H174429   8.597   4.151   5.546
24729WAT     H274430   8.737   4.116   5.470
24730WAT      O74431   3.525   7.448   5.636
24730WAT     H174432   3.516   7.350   5.623
24730WAT     H274433   3.436   7.492   5.624
24731WAT      O74434   8.227   6.251   2.875
24731WAT     H174435   8.250   6.153   2.874
24731WAT     H274436   8.129   6.262   2.884
24732WAT      O74437   7.632   0.038   2.951
24732WAT     H174438   7.539   0.064   2.973
24732WAT     H274439   7.631  -0.039   2.887
24733WAT      O74440   1.697   6.172   7.788
24733WAT     H174441   1.599   6.193   7.782
24733WAT     H274442   1.713   6.109   7.864
24734WAT      O74443   2.939   1.656   9.775
24734WAT     H174444   2.882   1.724   9.729
24734WAT     H274445   3.034   1.688   9.776
24735WAT      O74446   5.050   8.345   8.655
24735WAT     H174447   4.979   8.299   8.601
24735WAT     H274448   5.021   8.350   8.750
24736WAT      O74449   9.383   4.507   3.605
24736WAT     H174450   9.421   4.434   3.662
24736WAT     H274451   9.283   4.503   3.607
24737WAT      O74452   1.932   8.142   1.815
24737WAT     H174453   1.912   8.196   1.734
24737WAT     H274454   1.869   8.167   1.889
24738WAT      O74455   5.806   1.075   6.472
24738WAT     H174456   5.775   1.102   6.563
24738WAT     H274457   5.842   0.982   6.475
24739WAT      O74458   1.366   0.771   6.240
24739WAT     H174459   1.321   0.716   6.310
24739WAT     H274460   1.336   0.741   6.150
24740WAT      O74461   3.386   1.902   9.033
24740WAT     H174462   3.292   1.928   9.056
24740WAT     H274463   3.389   1.805   9.011
24741WAT      O74464   7.581   6.169   4.741
24741WAT     H174465   7.590   6.092   4.677
24741WAT     H274466   7.662   6.174   4.799
24742WAT      O74467   1.359   4.639   7.103
24742WAT     H174468   1.277   4.664   7.155
24742WAT     H274469   1.421   4.586   7.161
24743WAT      O74470   4.984   4.410   3.828
24743WAT     H174471   4.950   4.488   3.777
24743WAT     H274472   4.924   4.393   3.906
24744WAT      O74473   4.575   6.624   9.440
24744WAT     H174474   4.576   6.697   9.509
24744WAT     H274475   4.665   6.580   9.438
24745WAT      O74476   4.146   8.688   1.039
24745WAT     H174477   4.156   8.643   1.127
24745WAT     H274478   4.049   8.710   1.023
24746WAT      O74479   3.281   1.792   9.426
24746WAT     H174480   3.338   1.720   9.386
24746WAT     H274481   3.186   1.760   9.429
24747WAT      O74482   0.080   8.891   9.435
24747WAT     H174483  -0.013   8.885   9.471
24747WAT     H274484   0.113   8.985   9.441
24748WAT      O74485   8.436   1.345   3.987
24748WAT     H174486   8.498   1.289   4.041
24748WAT     H274487   8.485   1.380   3.907
24749WAT      O74488   1.591   2.513   1.343
24749WAT     H174489   1.492   2.520   1.337
24749WAT     H274490   1.618   2.417   1.342
24750WAT      O74491   3.458   3.084   8.756
24750WAT     H174492   3.522   3.037   8.817
24750WAT     H274493   3.364   3.056   8.779
24751WAT      O74494   2.379   8.580   4.264
24751WAT     H174495   2.350   8.564   4.169
24751WAT     H274496   2.404   8.676   4.275
24752WAT      O74497   2.097   6.323   7.532
24752WAT     H174498   2.186   6.279   7.519
24752WAT     H274499   2.110   6.419   7.556
24753WAT      O74500   7.045   3.332   6.625
24753WAT     H174501   7.002   3.376   6.704
24753WAT     H274502   6.977   3.279   6.574
24754WAT      O74503   0.467   8.497   3.467
24754WAT     H174504   0.436   8.567   3.402
24754WAT     H274505   0.510   8.422   3.417
24755WAT      O74506   3.664   5.503   0.045
24755WAT     H174507   3.641   5.596   0.074
24755WAT     H274508   3.762   5.487   0.062
24756WAT      O74509   0.559   2.536   7.716
24756WAT     H174510   0.614   2.531   7.633
24756WAT     H274511   0.594   2.471   7.783
24757WAT      O74512   7.368   4.369   4.339
24757WAT     H174513   7.378   4.387   4.241
24757WAT     H274514   7.299   4.430   4.377
24758WAT      O74515   8.975   3.894   9.065
24758WAT     H174516   8.900   3.854   9.013
24758WAT     H274517   9.060   3.884   9.013
24759WAT      O74518   3.826   0.737   1.728
24759WAT     H174519   3.807   0.771   1.820
24759WAT     H274520   3.880   0.653   1.734
24760WAT      O74521   8.462   8.244   2.839
24760WAT     H174522   8.482   8.291   2.753
24760WAT     H274523   8.537   8.181   2.860
24761WAT      O74524   5.785   0.051   4.103
24761WAT     H174525   5.837   0.134   4.082
24761WAT     H274526   5.717   0.035   4.031
24762WAT      O74527   4.590   4.184   2.987
24762WAT     H174528   4.624   4.132   3.065
24762WAT     H274529   4.585   4.125   2.906
24763WAT      O74530   0.236   8.061   0.062
24763WAT     H174531   0.248   8.048  -0.037
24763WAT     H274532   0.140   8.081   0.081
24764WAT      O74533   8.709   3.354   3.559
24764WAT     H174534   8.631   3.348   3.621
24764WAT     H274535   8.680   3.327   3.467
24765WAT      O74536   4.852   1.585   5.848
24765WAT     H174537   4.889   1.642   5.922
24765WAT     H274538   4.912   1.506   5.835
24766WAT      O74539   1.956   4.160   3.764
24766WAT     H174540   1.973   4.223   3.840
24766WAT     H274541   1.882   4.197   3.707
24767WAT      O74542   1.907   8.437   7.266
24767WAT     H174543   1.982   8.460   7.205
24767WAT     H274544   1.829   8.497   7.247
24768WAT      O74545   5.305   0.452   4.657
24768WAT     H174546   5.266   0.544   4.656
24768WAT     H274547   5.395   0.455   4.700
24769WAT      O74548   0.513   7.678   2.547
24769WAT     H174549   0.484   7.585   2.522
24769WAT     H274550   0.570   7.673   2.629
24770WAT      O74551   6.377   2.508   9.069
24770WAT     H174552   6.429   2.584   9.108
24770WAT     H274553   6.287   2.540   9.040
24771WAT      O74554   6.508   4.106   2.967
24771WAT     H174555   6.538   4.201   2.964
24771WAT     H274556   6.542   4.058   2.885
24772WAT      O74557   6.790   7.843   2.156
24772WAT     H174558   6.814   7.799   2.069
24772WAT     H274559   6.868   7.897   2.188
24773WAT      O74560   4.703   9.465   2.916
24773WAT     H174561   4.681   9.539   2.853
24773WAT     H274562   4.778   9.410   2.877
24774WAT      O74563   6.411   0.224   1.496
24774WAT     H174564   6.504   0.206   1.527
24774WAT     H274565   6.355   0.256   1.572
24775WAT      O74566   4.791   3.073   3.166
24775WAT     H174567   4.763   3.131   3.243
24775WAT     H274568   4.720   3.005   3.148
24776WAT      O74569   8.509   0.110   6.273
24776WAT     H174570   8.527   0.197   6.318
24776WAT     H274571   8.516   0.122   6.174
24777WAT      O74572   0.265   6.177   3.028
24777WAT     H174573   0.300   6.125   3.105
24777WAT     H274574   0.168   6.197   3.043
24778WAT      O74575   5.866   2.681   5.549
24778WAT     H174576   5.790   2.640   5.499
24778WAT     H274577   5.939   2.706   5.485
24779WAT      O74578   8.640   1.504   1.744
24779WAT     H174579   8.611   1.560   1.821
24779WAT     H274580   8.661   1.412   1.776
24780WAT      O74581   7.038   0.460   5.720
24780WAT     H174582   7.092   0.377   5.706
24780WAT     H274583   7.087   0.539   5.684
24781WAT      O74584   4.642   3.108   9.379
24781WAT     H174585   4.558   3.117   9.325
24781WAT     H274586   4.697   3.192   9.369
24782WAT      O74587   5.885   6.713   7.698
24782WAT     H174588   5.838   6.734   7.612
24782WAT     H274589   5.846   6.768   7.771
24783WAT      O74590   2.877   7.984   6.447
24783WAT     H174591   2.912   7.915   6.510
24783WAT     H274592   2.796   7.949   6.400
24784WAT      O74593   1.213   4.922   4.438
24784WAT     H174594   1.235   4.908   4.342
24784WAT     H274595   1.115   4.936   4.448
24785WAT      O74596   2.642   8.198   3.705
24785WAT     H174597   2.698   8.247   3.638
24785WAT     H274598   2.618   8.259   3.780
24786WAT      O74599   4.304   0.231   9.259
24786WAT     H174600   4.337   0.307   9.316
24786WAT     H274601   4.266   0.268   9.174
24787WAT      O74602   8.634   3.532   0.102
24787WAT     H174603   8.569   3.573   0.166
24787WAT     H274604   8.728   3.556   0.130
24788WAT      O74605   6.718   4.719   9.724
24788WAT     H174606   6.696   4.629   9.760
24788WAT     H274607   6.660   4.739   9.644
24789WAT      O74608   7.826   9.363   4.562
24789WAT     H174609   7.921   9.392   4.577
24789WAT     H274610   7.825   9.283   4.503
24790WAT      O74611   4.127   8.926   7.811
24790WAT     H174612   4.203   8.950   7.751
24790WAT     H274613   4.158   8.928   7.906
24791WAT      O74614   6.610   1.996   6.852
24791WAT     H174615   6.585   1.919   6.911
24791WAT     H274616   6.673   2.056   6.901
24792WAT      O74617   2.539   8.090   5.598
24792WAT     H174618   2.461   8.055   5.649
24792WAT     H274619   2.609   8.019   5.591
24793WAT      O74620   7.423   1.821   0.608
24793WAT     H174621   7.428   1.868   0.696
24793WAT     H274622   7.471   1.874   0.539
24794WAT      O74623   9.531   7.913   8.752
24794WAT     H174624   9.508   7.836   8.692
24794WAT     H274625   9.588   7.978   8.702
24795WAT      O74626   9.663   4.964   9.306
24795WAT     H174627   9.577   5.011   9.323
24795WAT     H274628   9.691   4.977   9.211
24796WAT      O74629   4.097   0.748   5.787
24796WAT     H174630   4.133   0.833   5.823
24796WAT     H274631   4.170   0.695   5.744
24797WAT      O74632   9.246   8.930   3.166
24797WAT     H174633   9.236   9.016   3.216
24797WAT     H274634   9.309   8.942   3.090
24798WAT      O74635   1.453   7.517   7.946
24798WAT     H174636   1.436   7.551   8.039
24798WAT     H274637   1.367   7.484   7.907
24799WAT      O74638   1.661   8.523   7.659
24799WAT     H174639   1.585   8.527   7.593
24799WAT     H274640   1.744   8.558   7.616
24800WAT      O74641   4.128   4.731   0.813
24800WAT     H174642   4.078   4.770   0.736
24800WAT     H274643   4.079   4.651   0.848
24801WAT      O74644   1.692   0.020   6.562
24801WAT     H174645   1.770  -0.037   6.536
24801WAT     H274646   1.631   0.032   6.483
24802WAT      O74647   9.887   2.258   7.161
24802WAT     H174648   9.961   2.234   7.224
24802WAT     H274649   9.846   2.174   7.126
24803WAT      O74650   0.348   6.700   0.711
24803WAT     H174651   0.338   6.647   0.795
24803WAT     H274652   0.401   6.783   0.730
24804WAT      O74653   2.899   1.639   8.450
24804WAT     H174654   2.857   1.704   8.513
24804WAT     H274655   2.828   1.594   8.396
24805WAT      O74656   9.762   7.583   7.671
24805WAT     H174657   9.680   7.531   7.694
24805WAT     H274658   9.792   7.635   7.751
24806WAT      O74659   4.578   9.147   8.363
24806WAT     H174660   4.581   9.110   8.270
24806WAT     H274661   4.513   9.095   8.418
24807WAT      O74662   0.330   7.925   4.286
24807WAT     H174663   0.294   7.985   4.358
24807WAT     H274664   0.258   7.907   4.219
24808WAT      O74665   0.473   3.969   5.668
24808WAT     H174666   0.433   3.880   5.690
24808WAT     H274667   0.558   3.956   5.616
24809WAT      O74668   7.619   2.480   1.256
24809WAT     H174669   7.644   2.384   1.243
24809WAT     H274670   7.546   2.504   1.193
24810WAT      O74671   9.180   4.370   8.922
24810WAT     H174672   9.203   4.380   9.018
24810WAT     H274673   9.102   4.308   8.912
24811WAT      O74674   3.678   9.367   3.564
24811WAT     H174675   3.679   9.403   3.471
24811WAT     H274676   3.593   9.396   3.610
24812WAT      O74677   2.876   7.859   7.000
24812WAT     H174678   2.812   7.783   6.987
24812WAT     H274679   2.951   7.829   7.059
24813WAT      O74680   8.778   1.997   0.179
24813WAT     H174681   8.867   2.031   0.208
24813WAT     H274682   8.744   1.931   0.245
24814WAT      O74683   7.477   0.076   8.417
24814WAT     H174684   7.380   0.080   8.441
24814WAT     H274685   7.524   0.155   8.458
24815WAT      O74686   0.915   0.978   6.618
24815WAT     H174687   0.821   1.003   6.643
24815WAT     H274688   0.979   1.022   6.682
24816WAT      O74689   1.309   8.390   2.070
24816WAT     H174690   1.237   8.440   2.022
24816WAT     H274691   1.306   8.294   2.043
24817WAT      O74692   8.661   6.193   6.079
24817WAT     H174693   8.594   6.263   6.055
24817WAT     H274694   8.666   6.185   6.179
24818WAT      O74695   4.174   0.640   0.306
24818WAT     H174696   4.269   0.648   0.337
24818WAT     H274697   4.168   0.568   0.237
24819WAT      O74698   9.641   0.449   8.625
24819WAT     H174699   9.553   0.495   8.630
24819WAT     H274700   9.708   0.499   8.680
24820WAT      O74701   2.494   3.180   9.307
24820WAT     H174702   2.541   3.183   9.396
24820WAT     H274703   2.514   3.263   9.256
24821WAT      O74704   0.778   9.009   1.532
24821WAT     H174705   0.847   8.939   1.518
24821WAT     H274706   0.761   9.058   1.447
24822WAT      O74707   5.882   3.876   1.871
24822WAT     H174708   5.928   3.821   1.802
24822WAT     H274709   5.834   3.815   1.935
24823WAT      O74710   6.037   9.793   0.074
24823WAT     H174711   6.085   9.865   0.024
24823WAT     H274712   6.046   9.808   0.172
24824WAT      O74713   9.668   2.951   1.976
24824WAT     H174714   9.677   2.944   2.075
24824WAT     H274715   9.708   3.037   1.945
24825WAT      O74716   6.974   8.335   3.202
24825WAT     H174717   6.943   8.345   3.107
24825WAT     H274718   6.905   8.374   3.263
24826WAT      O74719   8.976   1.586   0.321
24826WAT     H174720   8.904   1.575   0.390
24826WAT     H274721   8.988   1.684   0.302
24827WAT      O74722   7.329   5.137   5.788
24827WAT     H174723   7.267   5.059   5.789
24827WAT     H274724   7.277   5.222   5.792
24828WAT      O74725   1.529   5.557   2.790
24828WAT     H174726   1.609   5.582   2.845
24828WAT     H274727   1.460   5.629   2.796
24829WAT      O74728   8.536   5.911   5.448
24829WAT     H174729   8.537   6.004   5.411
24829WAT     H274730   8.585   5.910   5.536
24830WAT      O74731   9.812   2.021   6.802
24830WAT     H174732   9.886   2.089   6.807
24830WAT     H274733   9.822   1.967   6.719
24831WAT      O74734   8.166   5.963   5.131
24831WAT     H174735   8.168   5.864   5.143
24831WAT     H274736   8.187   6.008   5.218
24832WAT      O74737   3.536   3.998   0.556
24832WAT     H174738   3.609   3.984   0.489
24832WAT     H274739   3.558   3.950   0.640
24833WAT      O74740   6.030   5.112   3.661
24833WAT     H174741   6.073   5.156   3.583
24833WAT     H274742   6.100   5.073   3.721
24834WAT      O74743   1.773   3.912   4.475
24834WAT     H174744   1.831   3.992   4.486
24834WAT     H274745   1.716   3.900   4.555
24835WAT      O74746   9.711   3.969   1.511
24835WAT     H174747   9.622   4.013   1.497
24835WAT     H274748   9.750   4.001   1.598
24836WAT      O74749   6.769   0.744   5.403
24836WAT     H174750   6.678   0.743   5.445
24836WAT     H274751   6.792   0.652   5.371
24837WAT      O74752   7.113   0.871   7.837
24837WAT     H174753   7.083   0.802   7.771
24837WAT     H274754   7.046   0.879   7.911
24838WAT      O74755   6.922   4.676   1.447
24838WAT     H174756   6.855   4.712   1.382
24838WAT     H274757   6.877   4.612   1.509
24839WAT      O74758   6.168   3.329   1.467
24839WAT     H174759   6.071   3.333   1.442
24839WAT     H274760   6.195   3.234   1.481
24840WAT      O74761   1.365   3.880   6.818
24840WAT     H174762   1.316   3.962   6.847
24840WAT     H274763   1.307   3.800   6.829
24841WAT      O74764   9.047   5.572   8.092
24841WAT     H174765   9.020   5.668   8.098
24841WAT     H274766   9.146   5.566   8.080
24842WAT      O74767   4.340   5.064   1.480
24842WAT     H174768   4.336   4.991   1.411
24842WAT     H274769   4.408   5.040   1.549
24843WAT      O74770   8.667   1.116   7.765
24843WAT     H174771   8.594   1.171   7.725
24843WAT     H274772   8.741   1.104   7.698
24844WAT      O74773   3.296   5.993   2.635
24844WAT     H174774   3.307   5.985   2.536
24844WAT     H274775   3.199   5.989   2.658
24845WAT      O74776   4.051   0.871   0.256
24845WAT     H174777   4.086   0.782   0.283
24845WAT     H274778   4.024   0.868   0.160
24846WAT      O74779   3.289   1.493   2.908
24846WAT     H174780   3.230   1.498   2.828
24846WAT     H274781   3.384   1.478   2.879
24847WAT      O74782   5.658   3.517   1.793
24847WAT     H174783   5.588   3.584   1.818
24847WAT     H274784   5.736   3.526   1.855
24848WAT      O74785   0.138   3.742   4.061
24848WAT     H174786   0.128   3.653   4.016
24848WAT     H274787   0.228   3.781   4.040
24849WAT      O74788   7.333   2.953   3.535
24849WAT     H174789   7.266   2.883   3.562
24849WAT     H274790   7.287   3.024   3.483
24850WAT      O74791   3.604   4.829   4.469
24850WAT     H174792   3.575   4.851   4.563
24850WAT     H274793   3.560   4.744   4.440
24851WAT      O74794   5.592   2.753   3.712
24851WAT     H174795   5.606   2.743   3.810
24851WAT     H274796   5.513   2.812   3.695
24852WAT      O74797   8.202   4.468   1.604
24852WAT     H174798   8.266   4.403   1.564
24852WAT     H274799   8.195   4.452   1.703
24853WAT      O74800   1.819   9.446   8.552
24853WAT     H174801   1.904   9.484   8.589
24853WAT     H274802   1.839   9.403   8.464
24854WAT      O74803   8.611   2.904   3.032
24854WAT     H174804   8.674   2.855   3.093
24854WAT     H274805   8.613   2.862   2.942
24855WAT      O74806   7.442   0.231   0.370
24855WAT     H174807   7.471   0.315   0.323
24855WAT     H274808   7.383   0.177   0.309
24856WAT      O74809   7.631   2.642   0.456
24856WAT     H174810   7.642   2.545   0.478
24856WAT     H274811   7.621   2.695   0.540
24857WAT      O74812   2.102   2.355   9.494
24857WAT     H174813   2.124   2.427   9.428
24857WAT     H274814   2.085   2.269   9.446
24858WAT      O74815   3.253   9.159   9.806
24858WAT     H174816   3.296   9.086   9.754
24858WAT     H274817   3.156   9.139   9.817
24859WAT      O74818   8.279   6.793   9.792
24859WAT     H174819   8.246   6.877   9.748
24859WAT     H274820   8.213   6.720   9.778
24860WAT      O74821   8.750   6.150   5.656
24860WAT     H174822   8.810   6.186   5.727
24860WAT     H274823   8.768   6.053   5.643
24861WAT      O74824   3.762   2.240   1.011
24861WAT     H174825   3.713   2.154   1.023
24861WAT     H274826   3.824   2.232   0.933
24862WAT      O74827   4.298   8.095   7.439
24862WAT     H174828   4.362   8.020   7.421
24862WAT     H274829   4.314   8.170   7.375
24863WAT      O74830   8.236   7.881   4.648
24863WAT     H174831   8.177   7.819   4.701
24863WAT     H274832   8.270   7.833   4.567
24864WAT      O74833   9.326   4.116   2.540
24864WAT     H174834   9.396   4.060   2.496
24864WAT     H274835   9.309   4.082   2.632
24865WAT      O74836   5.113   1.027   7.773
24865WAT     H174837   5.129   1.113   7.725
24865WAT     H274838   5.020   0.996   7.755
24866WAT      O74839   1.879   9.642   3.290
24866WAT     H174840   1.940   9.576   3.334
24866WAT     H274841   1.813   9.677   3.358
24867WAT      O74842   6.926   1.489   2.959
24867WAT     H174843   6.963   1.510   2.869
24867WAT     H274844   6.828   1.510   2.960
24868WAT      O74845   4.766   8.011   2.073
24868WAT     H174846   4.724   7.931   2.030
24868WAT     H274847   4.699   8.084   2.080
24869WAT      O74848   9.590   5.720   6.403
24869WAT     H174849   9.612   5.631   6.444
24869WAT     H274850   9.617   5.793   6.466
24870WAT      O74851   6.322   6.861   0.289
24870WAT     H174852   6.376   6.792   0.242
24870WAT     H274853   6.262   6.908   0.224
24871WAT      O74854   9.335   3.523   3.005
24871WAT     H174855   9.370   3.492   2.916
24871WAT     H274856   9.373   3.465   3.077
24872WAT      O74857   9.569   3.491   6.128
24872WAT     H174858   9.520   3.521   6.046
24872WAT     H274859   9.594   3.394   6.117
24873WAT      O74860   4.192   8.225   4.334
24873WAT     H174861   4.274   8.255   4.384
24873WAT     H274862   4.143   8.306   4.300
24874WAT      O74863   3.782   7.628   5.878
24874WAT     H174864   3.868   7.644   5.925
24874WAT     H274865   3.784   7.538   5.835
24875WAT      O74866   9.416   2.716   0.519
24875WAT     H174867   9.347   2.703   0.448
24875WAT     H274868   9.503   2.679   0.488
24876WAT      O74869   1.754   3.455   9.863
24876WAT     H174870   1.788   3.549   9.866
24876WAT     H274871   1.824   3.396   9.822
24877WAT      O74872   7.219   8.722   1.389
24877WAT     H174873   7.156   8.682   1.322
24877WAT     H274874   7.311   8.725   1.350
24878WAT      O74875   0.465   6.485   2.958
24878WAT     H174876   0.556   6.504   2.996
24878WAT     H274877   0.463   6.393   2.920
24879WAT      O74878   1.641   7.346   3.237
24879WAT     H174879   1.708   7.335   3.164
24879WAT     H274880   1.644   7.441   3.270
24880WAT      O74881   2.659   3.806   2.379
24880WAT     H174882   2.593   3.758   2.437
24880WAT     H274883   2.657   3.904   2.401
24881WAT      O74884   8.731   8.980   5.471
24881WAT     H174885   8.678   9.060   5.443
24881WAT     H274886   8.680   8.897   5.449
24882WAT      O74887   1.736   3.669   6.816
24882WAT     H174888   1.712   3.576   6.787
24882WAT     H274889   1.686   3.735   6.760
24883WAT      O74890   4.828   4.780   2.948
24883WAT     H174891   4.777   4.806   2.865
24883WAT     H274892   4.771   4.721   3.005
24884WAT      O74893   0.072   2.011   9.597
24884WAT     H174894   0.058   2.109   9.581
24884WAT     H274895   0.038   1.959   9.518
24885WAT      O74896   4.012   6.305   7.411
24885WAT     H174897   4.110   6.312   7.429
24885WAT     H274898   3.980   6.391   7.369
24886WAT      O74899   6.290   7.132   2.400
24886WAT     H174900   6.254   7.223   2.379
24886WAT     H274901   6.256   7.066   2.332
24887WAT      O74902   4.458   7.907   2.304
24887WAT     H174903   4.408   7.939   2.223
24887WAT     H274904   4.464   7.808   2.302
24888WAT      O74905   2.939   6.843   7.320
24888WAT     H174906   2.842   6.820   7.313
24888WAT     H274907   2.950   6.920   7.383
24889WAT      O74908   5.436   0.261   6.934
24889WAT     H174909   5.351   0.241   6.887
24889WAT     H274910   5.427   0.348   6.983
24890WAT      O74911   3.677   9.611   7.645
24890WAT     H174912   3.664   9.687   7.581
24890WAT     H274913   3.681   9.647   7.738
24891WAT      O74914   7.927   4.926   2.430
24891WAT     H174915   7.848   4.949   2.372
24891WAT     H274916   7.950   5.004   2.487
24892WAT      O74917   9.264   1.038   2.173
24892WAT     H174918   9.249   0.961   2.234
24892WAT     H274919   9.176   1.079   2.149
24893WAT      O74920   4.778   8.125   1.101
24893WAT     H174921   4.760   8.179   1.019
24893WAT     H274922   4.849   8.170   1.155
24894WAT      O74923   6.621   3.438   6.333
24894WAT     H174924   6.611   3.438   6.433
24894WAT     H274925   6.646   3.346   6.302
24895WAT      O74926   3.804   9.267   9.106
24895WAT     H174927   3.844   9.352   9.141
24895WAT     H274928   3.722   9.245   9.159
24896WAT      O74929   2.288   7.901   2.917
24896WAT     H174930   2.195   7.913   2.882
24896WAT     H274931   2.354   7.936   2.850
24897WAT      O74932   6.375   6.504   1.321
24897WAT     H174933   6.474   6.516   1.329
24897WAT     H274934   6.355   6.434   1.251
24898WAT      O74935   7.326   1.833   2.736
24898WAT     H174936   7.250   1.826   2.671
24898WAT     H274937   7.412   1.840   2.687
24899WAT      O74938   1.008   2.003   7.655
24899WAT     H174939   0.911   1.989   7.675
24899WAT     H274940   1.017   2.065   7.577
24900WAT      O74941   2.503   5.117   8.962
24900WAT     H174942   2.569   5.113   9.037
24900WAT     H274943   2.509   5.206   8.918
24901WAT      O74944   2.255   1.882   0.103
24901WAT     H174945   2.339   1.928   0.077
24901WAT     H274946   2.271   1.783   0.110
24902WAT      O74947   1.624   4.159   5.946
24902WAT     H174948   1.547   4.121   5.895
24902WAT     H274949   1.590   4.219   6.019
24903WAT      O74950   0.948   0.712   2.517
24903WAT     H174951   0.968   0.800   2.475
24903WAT     H274952   0.985   0.638   2.460
24904WAT      O74953   2.594   6.587   9.181
24904WAT     H174954   2.528   6.512   9.169
24904WAT     H274955   2.621   6.621   9.091
24905WAT      O74956   0.171   5.833   6.543
24905WAT     H174957   0.263   5.793   6.544
24905WAT     H274958   0.133   5.833   6.635
24906WAT      O74959   7.494   4.793   0.293
24906WAT     H174960   7.411   4.752   0.254
24906WAT     H274961   7.544   4.842   0.222
24907WAT      O74962   4.362   2.716   9.493
24907WAT     H174963   4.272   2.756   9.510
24907WAT     H274964   4.399   2.752   9.407
24908WAT      O74965   4.605   1.319   3.380
24908WAT     H174966   4.625   1.411   3.413
24908WAT     H274967   4.615   1.254   3.455
24909WAT      O74968   8.246   9.789   1.079
24909WAT     H174969   8.335   9.832   1.091
24909WAT     H274970   8.205   9.821   0.993
24910WAT      O74971   1.390   5.126   5.293
24910WAT     H174972   1.476   5.076   5.292
24910WAT     H274973   1.317   5.068   5.257
24911WAT      O74974   4.871   1.414   6.719
24911WAT     H174975   4.821   1.392   6.803
24911WAT     H274976   4.957   1.363   6.717
24912WAT      O74977   3.976   5.378   8.401
24912WAT     H174978   4.013   5.341   8.487
24912WAT     H274979   3.990   5.311   8.328
24913WAT      O74980   9.242   1.089   1.741
24913WAT     H174981   9.336   1.065   1.717
24913WAT     H274982   9.180   1.054   1.672
24914WAT      O74983   8.245   8.761   4.790
24914WAT     H174984   8.156   8.793   4.758
24914WAT     H274985   8.234   8.705   4.872
24915WAT      O74986   6.045   1.011   0.374
24915WAT     H174987   6.096   1.046   0.452
24915WAT     H274988   6.021   1.087   0.313
24916WAT      O74989   5.125   8.538   4.985
24916WAT     H174990   5.054   8.594   5.028
24916WAT     H274991   5.214   8.582   4.997
24917WAT      O74992   7.365   4.821   7.948
24917WAT     H174993   7.405   4.825   7.857
24917WAT     H274994   7.274   4.779   7.943
24918WAT      O74995   4.633   4.561   0.050
24918WAT     H174996   4.655   4.464   0.050
24918WAT     H274997   4.534   4.573   0.059
24919WAT      O74998   9.461   4.462   1.034
24919WAT     H174999   9.485   4.543   1.088
24919WAT     H275000   9.363   4.462   1.015
24920WAT      O75001   6.612   3.625   5.956
24920WAT     H175002   6.657   3.539   5.935
24920WAT     H275003   6.551   3.651   5.881
24921WAT      O75004   7.095   1.383   0.620
24921WAT     H175005   7.158   1.457   0.642
24921WAT     H275006   7.121   1.300   0.668
24922WAT      O75007   8.838   8.409   5.571
24922WAT     H175008   8.861   8.505   5.558
24922WAT     H275009   8.851   8.360   5.485
24923WAT      O75010   5.697   8.993   8.777
24923WAT     H175011   5.614   8.937   8.770
24923WAT     H275012   5.731   8.991   8.871
24924WAT      O75013   1.577   9.723   2.137
24924WAT     H175014   1.611   9.755   2.225
24924WAT     H275015   1.621   9.636   2.113
24925WAT      O75016   5.527   2.767   6.594
24925WAT     H175017   5.430   2.786   6.577
24925WAT     H275018   5.583   2.821   6.531
24926WAT      O75019   8.820   1.373   5.856
24926WAT     H175020   8.831   1.274   5.848
24926WAT     H275021   8.770   1.408   5.776
24927WAT      O75022   1.574   2.871   6.366
24927WAT     H175023   1.578   2.921   6.452
24927WAT     H275024   1.659   2.819   6.354
24928WAT      O75025   8.445   1.950   3.422
24928WAT     H175026   8.537   1.914   3.436
24928WAT     H275027   8.448   2.031   3.365
24929WAT      O75028   7.295   9.520   4.329
24929WAT     H175029   7.252   9.443   4.283
24929WAT     H275030   7.315   9.495   4.424
24930WAT      O75031   8.844   3.410   6.457
24930WAT     H175032   8.860   3.455   6.369
24930WAT     H275033   8.853   3.311   6.446
24931WAT      O75034   3.112   8.290   8.236
24931WAT     H175035   3.022   8.278   8.278
24931WAT     H275036   3.148   8.201   8.208
24932WAT      O75037   0.106   2.880   2.571
24932WAT     H175038   0.077   2.824   2.648
24932WAT     H275039   0.140   2.968   2.605
24933WAT      O75040   9.660   8.056   6.303
24933WAT     H175041   9.681   8.091   6.211
24933WAT     H275042   9.607   7.972   6.295
24934WAT      O75043   0.404   8.379   1.279
24934WAT     H175044   0.306   8.386   1.262
24934WAT     H275045   0.445   8.470   1.274
24935WAT      O75046   0.564   8.154   3.084
24935WAT     H175047   0.504   8.081   3.117
24935WAT     H275048   0.522   8.198   3.004
24936WAT      O75049   4.799   3.408   8.319
24936WAT     H175050   4.702   3.430   8.303
24936WAT     H275051   4.823   3.429   8.413
24937WAT      O75052   6.948   0.677   4.543
24937WAT     H175053   6.924   0.658   4.447
24937WAT     H275054   7.030   0.626   4.567
24938WAT      O75055   5.546   2.763   1.856
24938WAT     H175056   5.540   2.860   1.833
24938WAT     H275057   5.456   2.721   1.849
24939WAT      O75058   9.803   4.636   3.771
24939WAT     H175059   9.797   4.679   3.681
24939WAT     H275060   9.835   4.542   3.761
24940WAT      O75061   9.508   1.804   8.776
24940WAT     H175062   9.562   1.780   8.857
24940WAT     H275063   9.473   1.720   8.734
24941WAT      O75064   1.148   5.378   2.867
24941WAT     H175065   1.173   5.359   2.773
24941WAT     H275066   1.097   5.301   2.905
24942WAT      O75067   8.744   3.148   2.999
24942WAT     H175068   8.716   3.209   3.074
24942WAT     H275069   8.692   3.064   3.003
24943WAT      O75070   1.030   5.032   2.640
24943WAT     H175071   1.087   4.953   2.620
24943WAT     H275072   1.086   5.114   2.645
24944WAT      O75073   9.182   4.203   3.142
24944WAT     H175074   9.125   4.121   3.133
24944WAT     H275075   9.155   4.271   3.074
24945WAT      O75076   5.251   7.263   9.050
24945WAT     H175077   5.163   7.230   9.083
24945WAT     H275078   5.246   7.362   9.036
24946WAT      O75079   9.514   7.654   5.357
24946WAT     H175080   9.544   7.603   5.276
24946WAT     H275081   9.589   7.711   5.390
24947WAT      O75082   9.815   4.152   1.264
24947WAT     H175083   9.761   4.099   1.329
24947WAT     H275084   9.910   4.121   1.266
24948WAT      O75085   3.010   8.288   2.719
24948WAT     H175086   3.072   8.279   2.797
24948WAT     H275087   2.932   8.227   2.730
24949WAT      O75088   5.555   9.422   7.213
24949WAT     H175089   5.651   9.395   7.216
24949WAT     H275090   5.547   9.518   7.240
24950WAT      O75091   6.956   6.446   9.018
24950WAT     H175092   6.976   6.348   9.027
24950WAT     H275093   6.862   6.464   9.046
24951WAT      O75094   7.346   3.328   4.617
24951WAT     H175095   7.356   3.364   4.524
24951WAT     H275096   7.389   3.237   4.622
24952WAT      O75097   2.712   4.742   7.428
24952WAT     H175098   2.673   4.801   7.358
24952WAT     H275099   2.639   4.708   7.488
24953WAT      O75100   7.139   0.322   8.502
24953WAT     H175101   7.103   0.334   8.595
24953WAT     H275102   7.167   0.227   8.489
24954WAT      O75103   5.821   0.412   2.499
24954WAT     H175104   5.769   0.492   2.471
24954WAT     H275105   5.870   0.375   2.420
24955WAT      O75106   9.143   8.969   8.099
24955WAT     H175107   9.073   8.910   8.060
24955WAT     H275108   9.167   8.937   8.191
24956WAT      O75109   8.665   4.314   3.526
24956WAT     H175110   8.629   4.242   3.466
24956WAT     H275111   8.604   4.393   3.524
24957WAT      O75112   8.925   3.907   1.903
24957WAT     H175113   8.972   3.849   1.969
24957WAT     H275114   8.916   3.859   1.816
24958WAT      O75115   6.825   5.598   1.625
24958WAT     H175116   6.877   5.676   1.658
24958WAT     H275117   6.884   5.518   1.619
24959WAT      O75118   0.444   7.468   5.309
24959WAT     H175119   0.544   7.475   5.304
24959WAT     H275120   0.407   7.554   5.346
24960WAT      O75121   5.441   9.369   1.542
24960WAT     H175122   5.448   9.416   1.454
24960WAT     H275123   5.444   9.436   1.616
24961WAT      O75124   2.015   7.515   7.161
24961WAT     H175125   1.915   7.514   7.153
24961WAT     H275126   2.050   7.601   7.126
24962WAT      O75127   8.342   2.144   5.048
24962WAT     H175128   8.271   2.087   5.007
24962WAT     H275129   8.429   2.128   5.002
24963WAT      O75130   9.230   0.389   3.818
24963WAT     H175131   9.303   0.436   3.770
24963WAT     H275132   9.142   0.418   3.780
24964WAT      O75133   8.041   0.530   4.272
24964WAT     H175134   8.101   0.610   4.272
24964WAT     H275135   8.095   0.449   4.294
24965WAT      O75136   3.297   9.713   7.394
24965WAT     H175137   3.332   9.779   7.460
24965WAT     H275138   3.229   9.758   7.335
24966WAT      O75139   3.029   3.207   9.290
24966WAT     H175140   3.078   3.202   9.377
24966WAT     H275141   2.965   3.131   9.283
24967WAT      O75142   2.020   8.480   8.312
24967WAT     H175143   2.093   8.412   8.325
24967WAT     H275144   2.045   8.541   8.236
24968WAT      O75145   9.760   2.271   5.642
24968WAT     H175146   9.726   2.342   5.580
24968WAT     H275147   9.715   2.280   5.731
24969WAT      O75148   9.074   0.672   1.852
24969WAT     H175149   9.075   0.769   1.876
24969WAT     H275150   8.982   0.634   1.868
24970WAT      O75151   1.531   7.714   2.062
24970WAT     H175152   1.502   7.634   2.010
24970WAT     H275153   1.558   7.686   2.154
24971WAT      O75154   1.155   8.390   9.364
24971WAT     H175155   1.178   8.466   9.424
24971WAT     H275156   1.073   8.344   9.398
24972WAT      O75157   5.973   7.689   7.092
24972WAT     H175158   5.909   7.614   7.111
24972WAT     H275159   5.932   7.775   7.120
24973WAT      O75160   1.599   2.080   4.030
24973WAT     H175161   1.614   1.984   4.008
24973WAT     H275162   1.512   2.091   4.078
24974WAT      O75163   6.253   2.007   9.319
24974WAT     H175164   6.241   2.100   9.285
24974WAT     H275165   6.179   1.985   9.382
24975WAT      O75166   6.002   0.198   6.668
24975WAT     H175167   6.023   0.137   6.744
24975WAT     H275168   6.076   0.264   6.656
24976WAT      O75169   0.751   0.543   5.921
24976WAT     H175170   0.761   0.445   5.936
24976WAT     H275171   0.664   0.574   5.957
24977WAT      O75172   5.391   9.026   2.984
24977WAT     H175173   5.380   8.980   2.896
24977WAT     H275174   5.307   9.015   3.038
24978WAT      O75175   0.769   3.412   0.109
24978WAT     H175176   0.672   3.398   0.130
24978WAT     H275177   0.813   3.459   0.186
24979WAT      O75178   3.908   9.122   7.768
24979WAT     H175179   3.977   9.050   7.770
24979WAT     H275180   3.855   9.120   7.852
24980WAT      O75181   6.723   4.920   3.448
24980WAT     H175182   6.669   4.953   3.525
24980WAT     H275183   6.732   4.993   3.380
24981WAT      O75184   9.638   4.780   3.545
24981WAT     H175185   9.627   4.694   3.494
24981WAT     H275186   9.561   4.790   3.609
24982WAT      O75187   3.131   1.631   2.298
24982WAT     H175188   3.137   1.614   2.200
24982WAT     H275189   3.149   1.728   2.317
24983WAT      O75190   8.124   6.020   2.075
24983WAT     H175191   8.130   6.030   1.975
24983WAT     H275192   8.071   5.938   2.097
24984WAT      O75193   3.441   8.428   4.005
24984WAT     H175194   3.526   8.469   3.972
24984WAT     H275195   3.460   8.367   4.081
24985WAT      O75196   4.121   4.131   6.799
24985WAT     H175197   4.161   4.109   6.710
24985WAT     H275198   4.059   4.209   6.789
24986WAT      O75199   2.902   1.633   8.939
24986WAT     H175200   2.815   1.584   8.942
24986WAT     H275201   2.967   1.582   8.883
24987WAT      O75202   0.183   1.331   2.849
24987WAT     H175203   0.092   1.291   2.838
24987WAT     H275204   0.173   1.427   2.875
24988WAT      O75205   0.930   7.827   0.869
24988WAT     H175206   0.999   7.817   0.942
24988WAT     H275207   0.903   7.923   0.861
24989WAT      O75208   0.085   2.000   2.190
24989WAT     H175209   0.157   1.958   2.134
24989WAT     H275210   0.007   1.938   2.196
24990WAT      O75211   2.812   4.610   4.736
24990WAT     H175212   2.759   4.629   4.653
24990WAT     H275213   2.835   4.513   4.740
24991WAT      O75214   7.039   5.775   8.022
24991WAT     H175215   7.065   5.869   7.998
24991WAT     H275216   7.113   5.712   7.995
24992WAT      O75217   0.568   3.924   9.584
24992WAT     H175218   0.517   4.007   9.560
24992WAT     H275219   0.663   3.949   9.604
24993WAT      O75220   6.789   8.717   5.624
24993WAT     H175221   6.696   8.714   5.589
24993WAT     H275222   6.808   8.633   5.676
24994WAT      O75223   0.896   2.452   4.232
24994WAT     H175224   0.986   2.483   4.202
24994WAT     H275225   0.827   2.482   4.166
24995WAT      O75226   0.987   8.822   4.018
24995WAT     H175227   0.896   8.783   4.004
24995WAT     H275228   1.053   8.749   4.033
24996WAT      O75229   2.871   1.803   5.372
24996WAT     H175230   2.841   1.710   5.394
24996WAT     H275231   2.909   1.846   5.453
24997WAT      O75232   2.200   8.349   1.756
24997WAT     H175233   2.236   8.438   1.728
24997WAT     H275234   2.101   8.348   1.748
24998WAT      O75235   4.247   8.253   1.507
24998WAT     H175236   4.319   8.184   1.515
24998WAT     H275237   4.269   8.331   1.566
24999WAT      O75238   3.892   2.112   3.517
24999WAT     H175239   3.934   2.129   3.606
24999WAT     H275240   3.957   2.066   3.457
25000WAT      O75241   9.316   7.012   8.356
25000WAT     H175242   9.408   7.021   8.394
25000WAT     H275243   9.319   6.955   8.275
25001WAT      O75244   3.934   9.088   8.940
25001WAT     H175245   3.894   9.149   9.008
25001WAT     H275246   4.005   9.032   8.984
25002WAT      O75247   3.652   0.540   8.189
25002WAT     H175248   3.639   0.635   8.216
25002WAT     H275249   3.573   0.486   8.219
25003WAT      O75250   7.307   8.235   5.789
25003WAT     H175251   7.261   8.303   5.846
25003WAT     H275252   7.385   8.277   5.743
25004WAT      O75253   8.970   4.688   5.593
25004WAT     H175254   8.959   4.627   5.671
25004WAT     H275255   8.886   4.691   5.540
25005WAT      O75256   5.592   5.929   3.335
25005WAT     H175257   5.635   5.839   3.330
25005WAT     H275258   5.550   5.941   3.425
25006WAT      O75259   0.781   8.832   2.678
25006WAT     H175260   0.725   8.915   2.675
25006WAT     H275261   0.728   8.758   2.720
25007WAT      O75262   0.438   8.111   9.498
25007WAT     H175263   0.374   8.095   9.423
25007WAT     H275264   0.518   8.053   9.486
25008WAT      O75265   4.891   1.720   3.844
25008WAT     H175266   4.880   1.620   3.840
25008WAT     H275267   4.862   1.760   3.757
25009WAT      O75268   2.994   3.874   4.845
25009WAT     H175269   2.975   3.970   4.821
25009WAT     H275270   3.007   3.821   4.761
25010WAT      O75271   4.780   6.638   4.254
25010WAT     H175272   4.866   6.616   4.208
25010WAT     H275273   4.799   6.670   4.347
25011WAT      O75274   4.638   9.784   2.113
25011WAT     H175275   4.652   9.687   2.093
25011WAT     H275276   4.617   9.794   2.210
25012WAT      O75277   3.406   4.666   0.331
25012WAT     H175278   3.394   4.649   0.429
25012WAT     H275279   3.487   4.723   0.317
25013WAT      O75280   8.700   2.298   0.608
25013WAT     H175281   8.625   2.286   0.543
25013WAT     H275282   8.721   2.396   0.617
25014WAT      O75283   6.793   4.155   2.640
25014WAT     H175284   6.889   4.151   2.611
25014WAT     H275285   6.739   4.197   2.567
25015WAT      O75286   5.138   2.901   3.365
25015WAT     H175287   5.218   2.841   3.373
25015WAT     H275288   5.131   2.936   3.272
25016WAT      O75289   5.856   4.529   0.354
25016WAT     H175290   5.765   4.561   0.382
25016WAT     H275291   5.917   4.532   0.433
25017WAT      O75292   2.502   6.241   8.371
25017WAT     H175293   2.550   6.231   8.458
25017WAT     H275294   2.524   6.164   8.311
25018WAT      O75295   0.785   2.619   3.708
25018WAT     H175296   0.688   2.639   3.698
25018WAT     H275297   0.797   2.526   3.742
25019WAT      O75298   5.961   1.244   4.900
25019WAT     H175299   6.045   1.193   4.920
25019WAT     H275300   5.942   1.239   4.801
25020WAT      O75301   1.970   5.709   5.936
25020WAT     H175302   1.947   5.803   5.958
25020WAT     H275303   1.970   5.697   5.837
25021WAT      O75304   3.745   7.488   8.574
25021WAT     H175305   3.728   7.417   8.643
25021WAT     H275306   3.760   7.445   8.485
25022WAT      O75307   4.944   4.032   0.241
25022WAT     H175308   4.856   3.983   0.246
25022WAT     H275309   5.015   3.969   0.209
25023WAT      O75310   3.995   6.477   2.738
25023WAT     H175311   3.910   6.442   2.778
25023WAT     H275312   3.975   6.521   2.650
25024WAT      O75313   5.078   2.079   5.257
25024WAT     H175314   5.027   1.993   5.269
25024WAT     H275315   5.047   2.125   5.174
25025WAT      O75316   3.271   5.291   4.701
25025WAT     H175317   3.302   5.354   4.772
25025WAT     H275318   3.313   5.316   4.614
25026WAT      O75319   3.549   4.225   1.331
25026WAT     H175320   3.547   4.138   1.283
25026WAT     H275321   3.618   4.222   1.403
25027WAT      O75322   5.902   4.446   8.139
25027WAT     H175323   5.828   4.380   8.150
25027WAT     H275324   5.920   4.491   8.227
25028WAT      O75325   1.379   5.266   5.536
25028WAT     H175326   1.425   5.193   5.586
25028WAT     H275327   1.348   5.232   5.448
25029WAT      O75328   9.779   6.301   9.705
25029WAT     H175329   9.846   6.261   9.768
25029WAT     H275330   9.726   6.371   9.753
25030WAT      O75331   1.655   4.048   1.645
25030WAT     H175332   1.630   3.954   1.623
25030WAT     H275333   1.575   4.107   1.634
25031WAT      O75334   6.073   4.284   0.556
25031WAT     H175335   6.104   4.235   0.638
25031WAT     H275336   6.038   4.374   0.582
25032WAT      O75337   5.490   0.439   3.541
25032WAT     H175338   5.428   0.470   3.469
25032WAT     H275339   5.497   0.339   3.538
25033WAT      O75340   6.529   3.031   6.283
25033WAT     H175341   6.447   3.004   6.232
25033WAT     H275342   6.564   2.951   6.333
25034WAT      O75343   5.760   3.519   4.251
25034WAT     H175344   5.787   3.447   4.187
25034WAT     H275345   5.684   3.487   4.308
25035WAT      O75346   2.802   9.050   2.948
25035WAT     H175347   2.820   8.956   2.919
25035WAT     H275348   2.836   9.062   3.041
25036WAT      O75349   1.731   0.348   1.989
25036WAT     H175350   1.800   0.420   1.987
25036WAT     H275351   1.711   0.318   1.895
25037WAT      O75352   9.667   2.208   4.644
25037WAT     H175353   9.696   2.286   4.698
25037WAT     H275354   9.708   2.213   4.553
25038WAT      O75355   2.063   4.642   0.076
25038WAT     H175356   2.123   4.573   0.116
25038WAT     H275357   2.036   4.615  -0.016
25039WAT      O75358   1.526   8.147   2.892
25039WAT     H175359   1.428   8.149   2.874
25039WAT     H275360   1.566   8.237   2.871
25040WAT      O75361   8.819   9.633   0.935
25040WAT     H175362   8.918   9.618   0.938
25040WAT     H275363   8.774   9.572   1.000
25041WAT      O75364   8.570   2.845   8.554
25041WAT     H175365   8.639   2.874   8.489
25041WAT     H275366   8.582   2.748   8.575
25042WAT      O75367   7.281   4.222   9.017
25042WAT     H175368   7.207   4.287   9.001
25042WAT     H275369   7.264   4.139   8.964
25043WAT      O75370   0.372   6.732   8.962
25043WAT     H175371   0.386   6.786   8.879
25043WAT     H275372   0.453   6.675   8.979
25044WAT      O75373   7.853   4.441   2.050
25044WAT     H175374   7.892   4.367   2.105
25044WAT     H275375   7.815   4.403   1.966
25045WAT      O75376   5.190   7.827   0.544
25045WAT     H175377   5.150   7.832   0.452
25045WAT     H275378   5.290   7.837   0.536
25046WAT      O75379   6.376   5.060   5.842
25046WAT     H175380   6.355   5.055   5.744
25046WAT     H275381   6.409   5.152   5.864
25047WAT      O75382   3.869   1.076   7.936
25047WAT     H175383   3.788   1.134   7.928
25047WAT     H275384   3.868   1.007   7.864
25048WAT      O75385   5.678   1.136   7.862
25048WAT     H175386   5.773   1.166   7.860
25048WAT     H275387   5.661   1.074   7.786
25049WAT      O75388   1.027   1.928   2.386
25049WAT     H175389   1.021   2.027   2.398
25049WAT     H275390   1.001   1.903   2.293
25050WAT      O75391   8.535   6.875   4.724
25050WAT     H175392   8.585   6.794   4.755
25050WAT     H275393   8.543   6.884   4.625
25051WAT      O75394   1.861   5.129   4.691
25051WAT     H175395   1.845   5.041   4.736
25051WAT     H275396   1.923   5.115   4.613
25052WAT      O75397   2.176   0.757   7.030
25052WAT     H175398   2.229   0.834   7.067
25052WAT     H275399   2.164   0.769   6.932
25053WAT      O75400   1.633   2.865   7.782
25053WAT     H175401   1.597   2.922   7.708
25053WAT     H275402   1.560   2.848   7.849
25054WAT      O75403   3.985   2.606   8.143
25054WAT     H175404   3.911   2.553   8.101
25054WAT     H275405   3.971   2.611   8.242
25055WAT      O75406   1.316   5.101   8.391
25055WAT     H175407   1.306   5.192   8.351
25055WAT     H275408   1.402   5.096   8.442
25056WAT      O75409   8.047   8.982   0.931
25056WAT     H175410   8.127   8.980   0.872
25056WAT     H275411   8.069   9.032   1.015
25057WAT      O75412   8.558   0.596   0.107
25057WAT     H175413   8.642   0.561   0.148
25057WAT     H275414   8.550   0.563   0.013
25058WAT      O75415   7.217   4.787   0.646
25058WAT     H175416   7.310   4.792   0.610
25058WAT     H275417   7.167   4.870   0.621
25059WAT      O75418   4.933   0.023   6.945
25059WAT     H175419   4.868  -0.031   6.892
25059WAT     H275420   4.889   0.107   6.977
25060WAT      O75421   4.365   5.286   9.879
25060WAT     H175422   4.430   5.350   9.838
25060WAT     H275423   4.279   5.290   9.829
25061WAT      O75424   7.718   5.058   2.091
25061WAT     H175425   7.677   5.148   2.075
25061WAT     H275426   7.668   4.989   2.039
25062WAT      O75427   0.991   0.195   2.250
25062WAT     H175428   1.082   0.177   2.213
25062WAT     H275429   0.982   0.151   2.339
25063WAT      O75430   4.906   5.566   8.030
25063WAT     H175431   4.810   5.547   8.051
25063WAT     H275432   4.911   5.622   7.947
25064WAT      O75433   7.136   7.267   6.834
25064WAT     H175434   7.042   7.278   6.800
25064WAT     H275435   7.134   7.239   6.930
25065WAT      O75436   7.586   1.217   5.776
25065WAT     H175437   7.624   1.237   5.866
25065WAT     H275438   7.571   1.303   5.726
25066WAT      O75439   7.214   3.416   7.977
25066WAT     H175440   7.272   3.407   7.896
25066WAT     H275441   7.187   3.325   8.009
25067WAT      O75442   0.390   3.667   7.723
25067WAT     H175443   0.407   3.719   7.807
25067WAT     H275444   0.454   3.590   7.718
25068WAT      O75445   6.734   5.468   4.489
25068WAT     H175446   6.699   5.381   4.454
25068WAT     H275447   6.777   5.452   4.578
25069WAT      O75448   3.235   9.145   6.538
25069WAT     H175449   3.161   9.209   6.519
25069WAT     H275450   3.320   9.196   6.553
25070WAT      O75451   1.232   8.457   5.078
25070WAT     H175452   1.232   8.446   5.177
25070WAT     H275453   1.253   8.369   5.035
25071WAT      O75454   1.106   8.308   7.244
25071WAT     H175455   1.138   8.340   7.155
25071WAT     H275456   1.006   8.305   7.245
25072WAT      O75457   5.503   2.804   2.536
25072WAT     H175458   5.600   2.781   2.530
25072WAT     H275459   5.450   2.722   2.554
25073WAT      O75460   7.646   1.775   1.258
25073WAT     H175461   7.631   1.678   1.277
25073WAT     H275462   7.711   1.785   1.182
25074WAT      O75463   0.922   7.655   4.669
25074WAT     H175464   0.889   7.618   4.755
25074WAT     H275465   0.845   7.695   4.618
25075WAT      O75466   9.526   6.740   2.206
25075WAT     H175467   9.442   6.687   2.216
25075WAT     H275468   9.558   6.734   2.111
25076WAT      O75469   0.794   1.418   6.040
25076WAT     H175470   0.867   1.460   5.986
25076WAT     H275471   0.792   1.320   6.022
25077WAT      O75472   0.893   4.257   4.140
25077WAT     H175473   0.794   4.242   4.135
25077WAT     H275474   0.938   4.168   4.150
25078WAT      O75475   0.008   8.969   3.567
25078WAT     H175476  -0.034   8.946   3.655
25078WAT     H275477   0.007   9.069   3.555
25079WAT      O75478   8.028   3.513   5.236
25079WAT     H175479   8.026   3.611   5.218
25079WAT     H275480   8.008   3.496   5.333
25080WAT      O75481   7.281   4.387   3.460
25080WAT     H175482   7.308   4.359   3.552
25080WAT     H275483   7.185   4.416   3.460
25081WAT      O75484   1.599   2.797   7.446
25081WAT     H175485   1.565   2.715   7.494
25081WAT     H275486   1.590   2.876   7.507
25082WAT      O75487   5.858   5.589   5.553
25082WAT     H175488   5.779   5.549   5.600
25082WAT     H275489   5.942   5.556   5.595
25083WAT      O75490   5.364   1.624   3.456
25083WAT     H175491   5.456   1.610   3.492
25083WAT     H275492   5.302   1.556   3.496
25084WAT      O75493   7.580   2.938   4.194
25084WAT     H175494   7.640   2.909   4.119
25084WAT     H275495   7.600   3.033   4.217
25085WAT      O75496   7.507   0.059   4.088
25085WAT     H175497   7.487  -0.039   4.078
25085WAT     H275498   7.526   0.099   3.999
25086WAT      O75499   7.090   8.958   8.097
25086WAT     H175500   7.174   8.910   8.074
25086WAT     H275501   7.097   9.053   8.070
25087WAT      O75502   5.660   9.345   8.190
25087WAT     H175503   5.649   9.281   8.266
25087WAT     H275504   5.620   9.306   8.107
25088WAT      O75505   9.177   7.930   8.773
25088WAT     H175506   9.154   7.885   8.859
25088WAT     H275507   9.095   7.936   8.716
25089WAT      O75508   0.690   8.976   9.590
25089WAT     H175509   0.601   8.962   9.633
25089WAT     H275510   0.680   8.970   9.490
25090WAT      O75511   7.827   0.384   0.129
25090WAT     H175512   7.830   0.469   0.181
25090WAT     H275513   7.774   0.398   0.045
25091WAT      O75514   0.106   1.923   7.616
25091WAT     H175515   0.111   1.829   7.648
25091WAT     H275516   0.147   1.983   7.685
25092WAT      O75517   3.021   5.195   0.620
25092WAT     H175518   3.030   5.295   0.616
25092WAT     H275519   3.007   5.160   0.527
25093WAT      O75520   7.238   9.772   3.903
25093WAT     H175521   7.300   9.707   3.946
25093WAT     H275522   7.220   9.848   3.966
25094WAT      O75523   6.238   7.454   9.258
25094WAT     H175524   6.275   7.524   9.197
25094WAT     H275525   6.289   7.454   9.344
25095WAT      O75526   3.743   0.480   4.660
25095WAT     H175527   3.840   0.486   4.638
25095WAT     H275528   3.710   0.569   4.690
25096WAT      O75529   4.696   4.901   6.157
25096WAT     H175530   4.647   4.874   6.075
25096WAT     H275531   4.710   5.000   6.156
25097WAT      O75532   2.774   6.569   5.046
25097WAT     H175533   2.793   6.635   4.974
25097WAT     H275534   2.817   6.482   5.023
25098WAT      O75535   2.853   3.112   0.569
25098WAT     H175536   2.789   3.151   0.502
25098WAT     H275537   2.801   3.076   0.647
25099WAT      O75538   1.518   0.855   1.808
25099WAT     H175539   1.529   0.771   1.861
25099WAT     H275540   1.581   0.924   1.841
25100WAT      O75541   0.297   1.649   5.379
25100WAT     H175542   0.383   1.606   5.353
25100WAT     H275543   0.223   1.615   5.321
25101WAT      O75544   6.223   8.271   0.238
25101WAT     H175545   6.314   8.232   0.221
25101WAT     H275546   6.209   8.351   0.180
25102WAT      O75547   3.017   0.542   1.897
25102WAT     H175548   3.089   0.591   1.946
25102WAT     H275549   3.056   0.461   1.853
25103WAT      O75550   4.789   6.459   2.829
25103WAT     H175551   4.749   6.452   2.738
25103WAT     H275552   4.779   6.372   2.876
25104WAT      O75553   0.205   8.685   8.311
25104WAT     H175554   0.298   8.719   8.300
25104WAT     H275555   0.208   8.586   8.324
25105WAT      O75556   2.296   4.421   9.257
25105WAT     H175557   2.338   4.331   9.268
25105WAT     H275558   2.363   4.492   9.278
25106WAT      O75559   4.144   2.998   6.914
25106WAT     H175560   4.074   3.049   6.863
25106WAT     H275561   4.101   2.919   6.958
25107WAT      O75562   5.217   3.926   5.672
25107WAT     H175563   5.248   3.970   5.756
25107WAT     H275564   5.203   3.828   5.690
25108WAT      O75565   6.742   0.134   8.301
25108WAT     H175566   6.650   0.170   8.280
25108WAT     H275567   6.741   0.088   8.390
25109WAT      O75568   9.440   0.144   0.571
25109WAT     H175569   9.532   0.146   0.611
25109WAT     H275570   9.423   0.229   0.522
25110WAT      O75571   3.630   4.355   9.309
25110WAT     H175572   3.726   4.358   9.280
25110WAT     H275573   3.581   4.287   9.255
25111WAT      O75574   4.891   5.898   4.242
25111WAT     H175575   4.793   5.907   4.227
25111WAT     H275576   4.926   5.822   4.187
25112WAT      O75577   0.754   7.017   4.538
25112WAT     H175578   0.671   6.987   4.492
25112WAT     H275579   0.741   7.012   4.637
25113WAT      O75580   8.117   9.202   7.311
25113WAT     H175581   8.208   9.182   7.275
25113WAT     H275582   8.121   9.200   7.411
25114WAT      O75583   9.841   9.319   4.275
25114WAT     H175584   9.917   9.357   4.223
25114WAT     H275585   9.819   9.227   4.240
25115WAT      O75586   6.008   6.429   3.861
25115WAT     H175587   6.018   6.529   3.853
25115WAT     H275588   6.059   6.397   3.941
25116WAT      O75589   4.338   6.486   4.294
25116WAT     H175590   4.426   6.473   4.341
25116WAT     H275591   4.302   6.577   4.314
25117WAT      O75592   7.787   9.479   6.012
25117WAT     H175593   7.833   9.421   5.944
25117WAT     H275594   7.825   9.460   6.102
25118WAT      O75595   6.819   7.672   5.329
25118WAT     H175596   6.784   7.747   5.385
25118WAT     H275597   6.915   7.688   5.308
25119WAT      O75598   7.448   7.072   0.677
25119WAT     H175599   7.534   7.099   0.634
25119WAT     H275600   7.445   7.105   0.771
25120WAT      O75601   4.172   0.997   5.855
25120WAT     H175602   4.080   1.034   5.868
25120WAT     H275603   4.234   1.071   5.828
25121WAT      O75604   9.330   1.131   8.450
25121WAT     H175605   9.303   1.223   8.420
25121WAT     H275606   9.248   1.075   8.463
25122WAT      O75607   1.398   8.868   1.190
25122WAT     H175608   1.403   8.772   1.164
25122WAT     H275609   1.335   8.879   1.267
25123WAT      O75610   7.370   1.602   5.277
25123WAT     H175611   7.414   1.529   5.225
25123WAT     H275612   7.330   1.669   5.214
25124WAT      O75613   2.488   8.348   8.089
25124WAT     H175614   2.449   8.335   8.181
25124WAT     H275615   2.419   8.328   8.020
25125WAT      O75616   8.772   1.980   4.987
25125WAT     H175617   8.783   2.002   5.084
25125WAT     H275618   8.860   1.990   4.940
25126WAT      O75619   3.684   3.552   3.818
25126WAT     H175620   3.739   3.474   3.848
25126WAT     H275621   3.742   3.633   3.814
25127WAT      O75622   9.537   5.716   4.499
25127WAT     H175623   9.626   5.739   4.461
25127WAT     H275624   9.533   5.617   4.518
25128WAT      O75625   6.637   3.475   6.838
25128WAT     H175626   6.554   3.522   6.806
25128WAT     H275627   6.636   3.380   6.807
25129WAT      O75628   5.841   4.937   8.168
25129WAT     H175629   5.901   4.951   8.089
25129WAT     H275630   5.896   4.938   8.252
25130WAT      O75631   5.029   5.821   2.431
25130WAT     H175632   4.984   5.891   2.485
25130WAT     H275633   5.099   5.776   2.487
25131WAT      O75634   3.681   4.583   9.048
25131WAT     H175635   3.607   4.556   9.110
25131WAT     H275636   3.657   4.670   9.005
25132WAT      O75637   9.833   2.873   8.576
25132WAT     H175638   9.777   2.860   8.495
25132WAT     H275639   9.925   2.838   8.559
25133WAT      O75640   5.449   7.372   9.496
25133WAT     H175641   5.500   7.365   9.582
25133WAT     H275642   5.471   7.458   9.451
25134WAT      O75643   3.780   3.890   8.612
25134WAT     H175644   3.751   3.972   8.563
25134WAT     H275645   3.752   3.809   8.562
25135WAT      O75646   6.890   5.154   4.911
25135WAT     H175647   6.808   5.184   4.863
25135WAT     H275648   6.965   5.218   4.892
25136WAT      O75649   5.499   3.334   8.211
25136WAT     H175650   5.552   3.414   8.182
25136WAT     H275651   5.443   3.358   8.290
25137WAT      O75652   2.049   9.178   3.508
25137WAT     H175653   1.989   9.098   3.517
25137WAT     H275654   2.145   9.149   3.512
25138WAT      O75655   5.942   7.800   4.924
25138WAT     H175656   5.972   7.756   4.839
25138WAT     H275657   6.022   7.818   4.982
25139WAT      O75658   3.629   4.819   9.336
25139WAT     H175659   3.712   4.875   9.337
25139WAT     H275660   3.631   4.757   9.414
25140WAT      O75661   8.595   8.953   6.074
25140WAT     H175662   8.687   8.971   6.111
25140WAT     H275663   8.602   8.892   5.996
25141WAT      O75664   7.844   7.414   0.321
25141WAT     H175665   7.868   7.319   0.300
25141WAT     H275666   7.745   7.425   0.314
25142WAT      O75667   7.453   6.581   9.615
25142WAT     H175668   7.512   6.589   9.535
25142WAT     H275669   7.370   6.634   9.602
25143WAT      O75670   4.108   8.016   5.986
25143WAT     H175671   4.189   8.033   5.930
25143WAT     H275672   4.122   8.055   6.077
25144WAT      O75673   9.767   0.795   2.640
25144WAT     H175674   9.827   0.716   2.653
25144WAT     H275675   9.819   0.869   2.598
25145WAT      O75676   9.084   7.420   1.533
25145WAT     H175677   9.012   7.473   1.489
25145WAT     H275678   9.166   7.476   1.542
25146WAT      O75679   3.330   8.696   4.303
25146WAT     H175680   3.407   8.635   4.319
25146WAT     H275681   3.331   8.770   4.371
25147WAT      O75682   4.201   8.793   6.195
25147WAT     H175683   4.262   8.770   6.270
25147WAT     H275684   4.159   8.710   6.159
25148WAT      O75685   9.836   0.270   9.534
25148WAT     H175686   9.804   0.198   9.596
25148WAT     H275687   9.788   0.355   9.554
25149WAT      O75688   4.885   8.218   0.421
25149WAT     H175689   4.902   8.273   0.339
25149WAT     H275690   4.882   8.121   0.396
25150WAT      O75691   1.387   1.341   2.343
25150WAT     H175692   1.478   1.326   2.303
25150WAT     H275693   1.317   1.306   2.280
25151WAT      O75694   3.424   4.015   9.567
25151WAT     H175695   3.356   3.942   9.558
25151WAT     H275696   3.496   4.003   9.498
25152WAT      O75697   3.389   0.225   6.831
25152WAT     H175698   3.449   0.265   6.763
25152WAT     H275699   3.430   0.142   6.868
25153WAT      O75700   7.717   0.103   0.965
25153WAT     H175701   7.768   0.018   0.980
25153WAT     H275702   7.720   0.158   1.048
25154WAT      O75703   4.905   5.476   2.949
25154WAT     H175704   4.940   5.528   2.871
25154WAT     H275705   4.845   5.534   3.004
25155WAT      O75706   6.742   3.000   5.991
25155WAT     H175707   6.673   2.930   5.972
25155WAT     H275708   6.833   2.959   5.993
25156WAT      O75709   8.605   6.924   6.273
25156WAT     H175710   8.666   6.918   6.351
25156WAT     H275711   8.533   6.855   6.280
25157WAT      O75712   5.832   1.503   5.709
25157WAT     H175713   5.806   1.485   5.804
25157WAT     H275714   5.812   1.422   5.654
25158WAT      O75715   9.063   5.285   0.463
25158WAT     H175716   9.025   5.283   0.556
25158WAT     H275717   9.161   5.305   0.468
25159WAT      O75718   0.251   2.382   0.365
25159WAT     H175719   0.347   2.389   0.339
25159WAT     H275720   0.240   2.404   0.462
25160WAT      O75721   8.052   3.089   3.378
25160WAT     H175722   8.018   3.121   3.466
25160WAT     H275723   7.981   3.035   3.333
25161WAT      O75724   3.341   8.113   7.167
25161WAT     H175725   3.263   8.171   7.141
25161WAT     H275726   3.309   8.040   7.227
25162WAT      O75727   8.554   5.674   5.305
25162WAT     H175728   8.553   5.763   5.351
25162WAT     H275729   8.649   5.642   5.298
25163WAT      O75730   7.143   6.859   9.202
25163WAT     H175731   7.182   6.852   9.110
25163WAT     H275732   7.071   6.791   9.213
25164WAT      O75733   1.400   3.075   2.437
25164WAT     H175734   1.487   3.057   2.483
25164WAT     H275735   1.386   3.007   2.365
25165WAT      O75736   1.897   5.817   2.340
25165WAT     H175737   1.894   5.855   2.248
25165WAT     H275738   1.907   5.892   2.406
25166WAT      O75739   3.438   4.634   4.380
25166WAT     H175740   3.476   4.545   4.353
25166WAT     H275741   3.347   4.621   4.420
25167WAT      O75742   9.468   6.720   9.142
25167WAT     H175743   9.451   6.705   9.045
25167WAT     H275744   9.387   6.762   9.184
25168WAT      O75745   9.405   2.380   4.129
25168WAT     H175746   9.363   2.463   4.167
25168WAT     H275747   9.333   2.321   4.091
25169WAT      O75748   9.711   5.134   5.949
25169WAT     H175749   9.689   5.037   5.935
25169WAT     H275750   9.638   5.190   5.908
25170WAT      O75751   7.071   4.352   0.036
25170WAT     H175752   7.077   4.432  -0.024
25170WAT     H275753   7.135   4.363   0.112
25171WAT      O75754   5.091   4.410   1.046
25171WAT     H175755   5.171   4.372   1.092
25171WAT     H275756   5.011   4.400   1.104
25172WAT      O75757   6.441   7.336   1.208
25172WAT     H175758   6.480   7.247   1.231
25172WAT     H275759   6.512   7.396   1.172
25173WAT      O75760   2.310   7.587   4.648
25173WAT     H175761   2.404   7.584   4.615
25173WAT     H275762   2.250   7.620   4.575
25174WAT      O75763   5.453   8.691   7.378
25174WAT     H175764   5.448   8.775   7.325
25174WAT     H275765   5.457   8.613   7.315
25175WAT      O75766   6.335   0.823   8.314
25175WAT     H175767   6.316   0.807   8.217
25175WAT     H275768   6.271   0.771   8.369
25176WAT      O75769   7.512   1.572   0.353
25176WAT     H175770   7.457   1.651   0.323
25176WAT     H275771   7.500   1.559   0.451
25177WAT      O75772   8.552   1.634   8.161
25177WAT     H175773   8.531   1.726   8.191
25177WAT     H275774   8.531   1.569   8.234
25178WAT      O75775   7.216   2.806   1.944
25178WAT     H175776   7.174   2.830   1.857
25178WAT     H275777   7.217   2.706   1.954
25179WAT      O75778   2.837   3.018   5.623
25179WAT     H175779   2.874   3.104   5.589
25179WAT     H275780   2.763   3.036   5.688
25180WAT      O75781   0.318   5.277   8.689
25180WAT     H175782   0.352   5.219   8.763
25180WAT     H275783   0.380   5.355   8.677
25181WAT      O75784   4.746   3.151   8.225
25181WAT     H175785   4.820   3.113   8.170
25181WAT     H275786   4.764   3.248   8.243
25182WAT      O75787   0.450   2.509   6.064
25182WAT     H175788   0.443   2.597   6.111
25182WAT     H275789   0.359   2.471   6.048
25183WAT      O75790   8.218   0.411   3.011
25183WAT     H175791   8.283   0.338   3.028
25183WAT     H275792   8.128   0.372   2.989
25184WAT      O75793   3.026   5.273   7.041
25184WAT     H175794   2.928   5.290   7.038
25184WAT     H275795   3.055   5.257   7.136
25185WAT      O75796   3.715   3.694   2.572
25185WAT     H175797   3.758   3.612   2.611
25185WAT     H275798   3.726   3.694   2.473
25186WAT      O75799   1.693   5.115   1.278
25186WAT     H175800   1.755   5.194   1.277
25186WAT     H275801   1.630   5.124   1.355
25187WAT      O75802   1.449   1.370   6.793
25187WAT     H175803   1.452   1.438   6.720
25187WAT     H275804   1.470   1.280   6.756
25188WAT      O75805   7.949   0.516   3.311
25188WAT     H175806   7.851   0.498   3.319
25188WAT     H275807   7.964   0.596   3.253
25189WAT      O75808   9.388   8.766   1.044
25189WAT     H175809   9.477   8.729   1.071
25189WAT     H275810   9.402   8.840   0.978
25190WAT      O75811   4.672   4.932   8.461
25190WAT     H175812   4.759   4.887   8.479
25190WAT     H275813   4.638   4.973   8.546
25191WAT      O75814   4.998   8.389   5.731
25191WAT     H175815   4.987   8.321   5.658
25191WAT     H275816   4.988   8.481   5.693
25192WAT      O75817   8.456   4.541   7.379
25192WAT     H175818   8.523   4.598   7.331
25192WAT     H275819   8.503   4.471   7.431
25193WAT      O75820   2.610   1.955   1.089
25193WAT     H175821   2.689   1.904   1.054
25193WAT     H275822   2.638   2.010   1.167
25194WAT      O75823   4.711   8.099   3.479
25194WAT     H175824   4.681   8.115   3.573
25194WAT     H275825   4.702   8.184   3.427
25195WAT      O75826   4.019   0.329   4.276
25195WAT     H175827   3.966   0.261   4.225
25195WAT     H275828   4.007   0.314   4.374
25196WAT      O75829   5.600   6.560   8.174
25196WAT     H175830   5.580   6.654   8.200
25196WAT     H275831   5.514   6.512   8.153
25197WAT      O75832   7.656   8.805   6.644
25197WAT     H175833   7.614   8.767   6.562
25197WAT     H275834   7.585   8.842   6.704
25198WAT      O75835   0.267   2.675   5.661
25198WAT     H175836   0.191   2.734   5.632
25198WAT     H275837   0.312   2.716   5.740
25199WAT      O75838   6.962   6.155   7.641
25199WAT     H175839   6.918   6.106   7.716
25199WAT     H275840   6.991   6.246   7.673
25200WAT      O75841   4.641   8.709   2.055
25200WAT     H175842   4.675   8.781   1.994
25200WAT     H275843   4.701   8.703   2.135
25201WAT      O75844   9.013   7.361   8.769
25201WAT     H175845   9.048   7.274   8.804
25201WAT     H275846   8.937   7.344   8.706
25202WAT      O75847   5.892   2.549   9.789
25202WAT     H175848   5.885   2.463   9.739
25202WAT     H275849   5.987   2.566   9.814
25203WAT      O75850   4.584   1.298   9.657
25203WAT     H175851   4.582   1.286   9.557
25203WAT     H275852   4.635   1.381   9.680
25204WAT      O75853   1.237   0.224   4.830
25204WAT     H175854   1.172   0.153   4.802
25204WAT     H275855   1.281   0.262   4.749
25205WAT      O75856   1.979   9.314   2.933
25205WAT     H175857   1.922   9.360   2.865
25205WAT     H275858   2.036   9.381   2.981
25206WAT      O75859   1.637   1.409   4.311
25206WAT     H175860   1.602   1.377   4.223
25206WAT     H275861   1.560   1.436   4.370
25207WAT      O75862   6.418   9.143   0.569
25207WAT     H175863   6.507   9.185   0.557
25207WAT     H275864   6.348   9.197   0.521
25208WAT      O75865   8.521   3.619   2.521
25208WAT     H175866   8.506   3.712   2.487
25208WAT     H275867   8.532   3.556   2.443
25209WAT      O75868   9.321   4.831   9.639
25209WAT     H175869   9.292   4.922   9.609
25209WAT     H275870   9.257   4.796   9.707
25210WAT      O75871   9.245   9.592   5.528
25210WAT     H175872   9.221   9.495   5.533
25210WAT     H275873   9.250   9.619   5.432
25211WAT      O75874   9.105   9.643   1.996
25211WAT     H175875   9.167   9.615   1.922
25211WAT     H275876   9.153   9.635   2.084
25212WAT      O75877   7.399   6.807   7.777
25212WAT     H175878   7.478   6.750   7.755
25212WAT     H275879   7.389   6.812   7.876
25213WAT      O75880   0.190   5.825   5.294
25213WAT     H175881   0.161   5.738   5.253
25213WAT     H275882   0.165   5.825   5.391
25214WAT      O75883   8.436   7.459   9.164
25214WAT     H175884   8.459   7.556   9.170
25214WAT     H275885   8.368   7.445   9.091
25215WAT      O75886   7.684   1.650   5.881
25215WAT     H175887   7.663   1.630   5.976
25215WAT     H275888   7.757   1.718   5.877
25216WAT      O75889   0.267   2.751   1.643
25216WAT     H175890   0.324   2.830   1.665
25216WAT     H275891   0.233   2.710   1.728
25217WAT      O75892   7.468   1.348   3.394
25217WAT     H175893   7.459   1.289   3.474
25217WAT     H275894   7.456   1.444   3.422
25218WAT      O75895   5.656   0.451   7.151
25218WAT     H175896   5.723   0.439   7.078
25218WAT     H275897   5.573   0.492   7.114
25219WAT      O75898   4.084   1.403   9.188
25219WAT     H175899   4.106   1.497   9.215
25219WAT     H275900   4.147   1.374   9.116
25220WAT      O75901   8.500   5.585   7.082
25220WAT     H175902   8.435   5.656   7.056
25220WAT     H275903   8.518   5.592   7.180
25221WAT      O75904   2.850   5.459   4.728
25221WAT     H175905   2.798   5.492   4.807
25221WAT     H275906   2.832   5.518   4.649
25222WAT      O75907   2.232   6.638   8.077
25222WAT     H175908   2.330   6.629   8.094
25222WAT     H275909   2.199   6.557   8.029
25223WAT      O75910   4.036   3.348   8.663
25223WAT     H175911   4.121   3.328   8.613
25223WAT     H275912   4.032   3.446   8.684
25224WAT      O75913   4.775   2.182   3.773
25224WAT     H175914   4.810   2.273   3.791
25224WAT     H275915   4.841   2.132   3.716
25225WAT      O75916   1.477   1.678   6.305
25225WAT     H175917   1.414   1.666   6.228
25225WAT     H275918   1.571   1.683   6.271
25226WAT      O75919   3.074   9.304   3.891
25226WAT     H175920   3.145   9.308   3.821
25226WAT     H275921   2.985   9.294   3.847
25227WAT      O75922   5.371   4.702   7.361
25227WAT     H175923   5.309   4.624   7.371
25227WAT     H275924   5.322   4.786   7.384
25228WAT      O75925   9.101   0.291   0.608
25228WAT     H175926   9.166   0.290   0.684
25228WAT     H275927   9.060   0.382   0.601
25229WAT      O75928   8.575   9.340   0.759
25229WAT     H175929   8.533   9.427   0.736
25229WAT     H275930   8.570   9.279   0.679
25230WAT      O75931   7.985   9.520   1.017
25230WAT     H175932   8.080   9.515   0.984
25230WAT     H275933   7.972   9.453   1.091
25231WAT      O75934   8.329   5.405   8.975
25231WAT     H175935   8.268   5.483   8.988
25231WAT     H275936   8.331   5.350   9.058
25232WAT      O75937   7.597   5.745   6.422
25232WAT     H175938   7.681   5.726   6.472
25232WAT     H275939   7.567   5.662   6.374
25233WAT      O75940   4.665   2.775   3.571
25233WAT     H175941   4.674   2.697   3.633
25233WAT     H275942   4.584   2.764   3.514
25234WAT      O75943   7.435   1.665   6.354
25234WAT     H175944   7.464   1.716   6.436
25234WAT     H275945   7.338   1.684   6.336
25235WAT      O75946   6.032   4.950   8.358
25235WAT     H175947   5.993   5.008   8.429
25235WAT     H275948   6.063   4.864   8.399
25236WAT      O75949   8.012   8.275   8.094
25236WAT     H175950   8.029   8.299   8.190
25236WAT     H275951   8.100   8.269   8.046
25237WAT      O75952   1.255   0.212   5.492
25237WAT     H175953   1.198   0.145   5.540
25237WAT     H275954   1.199   0.261   5.425
25238WAT      O75955   6.543   8.622   8.724
25238WAT     H175956   6.482   8.701   8.718
25238WAT     H275957   6.608   8.624   8.648
25239WAT      O75958   6.501   0.537   8.668
25239WAT     H175959   6.473   0.625   8.707
25239WAT     H275960   6.458   0.525   8.579
25240WAT      O75961   2.198   0.591   4.690
25240WAT     H175962   2.168   0.534   4.613
25240WAT     H275963   2.212   0.685   4.659
25241WAT      O75964   3.747   5.533   5.658
25241WAT     H175965   3.786   5.497   5.744
25241WAT     H275966   3.821   5.550   5.593
25242WAT      O75967   4.774   6.782   6.468
25242WAT     H175968   4.808   6.809   6.377
25242WAT     H275969   4.691   6.834   6.489
25243WAT      O75970   7.786   9.528   2.165
25243WAT     H175971   7.827   9.483   2.244
25243WAT     H275972   7.691   9.552   2.186
25244WAT      O75973   5.835   6.365   2.788
25244WAT     H175974   5.916   6.343   2.843
25244WAT     H275975   5.754   6.364   2.846
25245WAT      O75976   8.679   9.025   0.265
25245WAT     H175977   8.601   9.078   0.296
25245WAT     H275978   8.750   9.087   0.231
25246WAT      O75979   0.848   2.838   5.797
25246WAT     H175980   0.832   2.761   5.736
25246WAT     H275981   0.779   2.838   5.869
25247WAT      O75982   6.396   1.550   1.536
25247WAT     H175983   6.415   1.605   1.617
25247WAT     H275984   6.297   1.534   1.530
25248WAT      O75985   2.231   5.178   4.720
25248WAT     H175986   2.330   5.170   4.714
25248WAT     H275987   2.200   5.251   4.658
25249WAT      O75988   3.267   0.480   4.700
25249WAT     H175989   3.345   0.485   4.764
25249WAT     H275990   3.261   0.388   4.663
25250WAT      O75991   5.880   7.906   1.393
25250WAT     H175992   5.931   7.883   1.476
25250WAT     H275993   5.942   7.908   1.315
25251WAT      O75994   5.118   3.045   5.793
25251WAT     H175995   5.060   2.966   5.814
25251WAT     H275996   5.145   3.089   5.879
25252WAT      O75997   8.932   7.580   7.725
25252WAT     H175998   8.901   7.674   7.739
25252WAT     H275999   8.880   7.518   7.784
25253WAT      O76000   5.858   5.439   1.887
25253WAT     H176001   5.859   5.537   1.868
25253WAT     H276002   5.793   5.393   1.826
25254WAT      O76003   7.086   7.839   7.431
25254WAT     H176004   7.086   7.804   7.525
25254WAT     H276005   6.996   7.878   7.410
25255WAT      O76006   0.879   9.261   8.382
25255WAT     H176007   0.876   9.356   8.411
25255WAT     H276008   0.788   9.232   8.352
25256WAT      O76009   9.845   0.097   0.082
25256WAT     H176010   9.752   0.106   0.117
25256WAT     H276011   9.871   0.182   0.035
25257WAT      O76012   3.890   1.541   7.998
25257WAT     H176013   3.945   1.621   7.975
25257WAT     H276014   3.793   1.565   7.993
25258WAT      O76015   4.082   7.966   4.733
25258WAT     H176016   4.091   7.906   4.812
25258WAT     H276017   3.995   8.016   4.738
25259WAT      O76018   6.347   8.524   9.611
25259WAT     H176019   6.430   8.468   9.605
25259WAT     H276020   6.368   8.616   9.577
25260WAT      O76021   9.152   7.128   0.725
25260WAT     H176022   9.229   7.122   0.663
25260WAT     H276023   9.070   7.153   0.674
25261WAT      O76024   7.829   9.549   5.603
25261WAT     H176025   7.780   9.550   5.516
25261WAT     H276026   7.822   9.639   5.646
25262WAT      O76027   9.286   1.360   2.949
25262WAT     H176028   9.203   1.413   2.936
25262WAT     H276029   9.264   1.263   2.956
25263WAT      O76030   5.007   8.780   7.854
25263WAT     H176031   5.007   8.806   7.758
25263WAT     H276032   4.933   8.828   7.902
25264WAT      O76033   4.244   2.238   7.625
25264WAT     H176034   4.242   2.176   7.547
25264WAT     H276035   4.163   2.222   7.681
25265WAT      O76036   1.605   8.892   6.119
25265WAT     H176037   1.614   8.953   6.041
25265WAT     H276038   1.694   8.850   6.139
25266WAT      O76039   0.755   9.113   7.185
25266WAT     H176040   0.811   9.188   7.217
25266WAT     H276041   0.813   9.036   7.159
25267WAT      O76042   2.187   3.825   9.521
25267WAT     H176043   2.256   3.854   9.587
25267WAT     H276044   2.229   3.811   9.432
25268WAT      O76045   7.093   5.853   7.061
25268WAT     H176046   7.146   5.770   7.045
25268WAT     H276047   7.129   5.901   7.141
25269WAT      O76048   7.468   5.977   8.813
25269WAT     H176049   7.558   5.938   8.830
25269WAT     H276050   7.455   6.057   8.871
25270WAT      O76051   5.891   8.055   5.308
25270WAT     H176052   5.905   8.092   5.216
25270WAT     H276053   5.900   7.955   5.305
25271WAT      O76054   1.047   2.114   2.648
25271WAT     H176055   1.044   2.092   2.551
25271WAT     H276056   1.137   2.092   2.684
25272WAT      O76057   7.489   5.783   5.854
25272WAT     H176058   7.540   5.734   5.783
25272WAT     H276059   7.525   5.756   5.944
25273WAT      O76060   6.735   7.868   1.025
25273WAT     H176061   6.800   7.859   0.949
25273WAT     H276062   6.650   7.909   0.992
25274WAT      O76063   2.131   2.893   4.670
25274WAT     H176064   2.211   2.945   4.639
25274WAT     H276065   2.148   2.856   4.761
25275WAT      O76066   4.012   3.328   6.960
25275WAT     H176067   4.017   3.241   6.912
25275WAT     H276068   4.098   3.345   7.007
25276WAT      O76069   7.449   0.995   3.054
25276WAT     H176070   7.481   0.961   3.142
25276WAT     H276071   7.512   1.065   3.020
25277WAT      O76072   3.430   2.096   6.630
25277WAT     H176073   3.517   2.142   6.646
25277WAT     H276074   3.429   2.009   6.679
25278WAT      O76075   9.816   5.874   9.237
25278WAT     H176076   9.827   5.860   9.139
25278WAT     H276077   9.864   5.958   9.263
25279WAT      O76078   9.106   4.688   3.964
25279WAT     H176079   9.128   4.603   4.012
25279WAT     H276080   9.031   4.672   3.901
25280WAT      O76081   4.520   2.103   3.029
25280WAT     H176082   4.498   2.079   2.935
25280WAT     H276083   4.544   2.021   3.080
25281WAT      O76084   6.857   1.488   5.374
25281WAT     H176085   6.802   1.570   5.360
25281WAT     H276086   6.811   1.429   5.440
25282WAT      O76087   6.005   4.791   4.314
25282WAT     H176088   5.920   4.823   4.357
25282WAT     H276089   5.983   4.721   4.246
25283WAT      O76090   5.487   1.230   7.464
25283WAT     H176091   5.437   1.144   7.467
25283WAT     H276092   5.539   1.236   7.379
25284WAT      O76093   3.716   2.592   3.381
25284WAT     H176094   3.647   2.521   3.369
25284WAT     H276095   3.781   2.564   3.452
25285WAT      O76096   0.884   6.708   1.820
25285WAT     H176097   0.834   6.678   1.739
25285WAT     H276098   0.939   6.632   1.855
25286WAT      O76099   7.171   6.363   4.502
25286WAT     H176100   7.210   6.384   4.412
25286WAT     H276101   7.085   6.412   4.513
25287WAT      O76102   3.013   9.725   1.356
25287WAT     H176103   3.095   9.674   1.381
25287WAT     H276104   2.997   9.797   1.423
25288WAT      O76105   8.312   1.132   2.933
25288WAT     H176106   8.226   1.105   2.977
25288WAT     H276107   8.355   1.206   2.985
25289WAT      O76108   1.483   3.153   1.403
25289WAT     H176109   1.399   3.113   1.366
25289WAT     H276110   1.562   3.105   1.366
25290WAT      O76111   6.192   1.923   8.287
25290WAT     H176112   6.274   1.950   8.235
25290WAT     H276113   6.113   1.919   8.225
25291WAT      O76114   5.065   5.184   3.066
25291WAT     H176115   4.971   5.166   3.038
25291WAT     H276116   5.128   5.148   2.997
25292WAT      O76117   8.275   3.165   3.707
25292WAT     H176118   8.207   3.230   3.742
25292WAT     H276119   8.283   3.176   3.607
25293WAT      O76120   2.182   8.652   9.012
25293WAT     H176121   2.195   8.748   9.035
25293WAT     H276122   2.085   8.633   9.001
25294WAT      O76123   3.888   3.121   0.624
25294WAT     H176124   3.949   3.195   0.597
25294WAT     H276125   3.860   3.069   0.543
25295WAT      O76126   3.610   6.485   4.310
25295WAT     H176127   3.548   6.483   4.389
25295WAT     H276128   3.591   6.566   4.255
25296WAT      O76129   4.868   8.104   6.331
25296WAT     H176130   4.884   8.151   6.244
25296WAT     H276131   4.770   8.089   6.343
25297WAT      O76132   5.831   0.477   5.550
25297WAT     H176133   5.851   0.412   5.623
25297WAT     H276134   5.899   0.550   5.551
25298WAT      O76135   4.486   1.842   8.275
25298WAT     H176136   4.449   1.926   8.234
25298WAT     H276137   4.411   1.777   8.290
25299WAT      O76138   5.855   2.101   2.234
25299WAT     H176139   5.847   2.201   2.231
25299WAT     H276140   5.800   2.065   2.309
25300WAT      O76141   1.410   6.485   0.030
25300WAT     H176142   1.465   6.556  -0.013
25300WAT     H276143   1.462   6.443   0.104
25301WAT      O76144   1.779   9.488   6.811
25301WAT     H176145   1.817   9.494   6.719
25301WAT     H276146   1.793   9.575   6.859
25302WAT      O76147   6.447   4.895   0.211
25302WAT     H176148   6.394   4.857   0.135
25302WAT     H276149   6.429   4.843   0.294
25303WAT      O76150   3.199   3.520   2.471
25303WAT     H176151   3.291   3.482   2.464
25303WAT     H276152   3.198   3.612   2.433
25304WAT      O76153   0.990   2.999   4.572
25304WAT     H176154   1.036   2.970   4.489
25304WAT     H276155   1.001   3.098   4.584
25305WAT      O76156   6.510   3.388   9.445
25305WAT     H176157   6.482   3.371   9.350
25305WAT     H276158   6.598   3.437   9.445
25306WAT      O76159   0.861   7.299   3.484
25306WAT     H176160   0.871   7.397   3.499
25306WAT     H276161   0.951   7.255   3.493
25307WAT      O76162   5.485   0.170   4.750
25307WAT     H176163   5.500   0.080   4.708
25307WAT     H276164   5.561   0.231   4.725
25308WAT      O76165   6.561   0.331   1.058
25308WAT     H176166   6.483   0.370   1.009
25308WAT     H276167   6.586   0.391   1.134
25309WAT      O76168   4.981   9.524   6.100
25309WAT     H176169   5.073   9.531   6.060
25309WAT     H276170   4.925   9.600   6.069
25310WAT      O76171   5.795   8.418   1.384
25310WAT     H176172   5.852   8.458   1.312
25310WAT     H276173   5.834   8.441   1.474
25311WAT      O76174   9.526   5.522   9.452
25311WAT     H176175   9.562   5.430   9.468
25311WAT     H276176   9.598   5.578   9.410
25312WAT      O76177   3.461   1.836   6.788
25312WAT     H176178   3.526   1.775   6.833
25312WAT     H276179   3.368   1.802   6.803
25313WAT      O76180   4.467   9.697   8.042
25313WAT     H176181   4.418   9.628   8.096
25313WAT     H276182   4.493   9.773   8.102
25314WAT      O76183   1.439   2.774   7.968
25314WAT     H176184   1.339   2.780   7.973
25314WAT     H276185   1.467   2.678   7.977
25315WAT      O76186   3.949   8.513   7.708
25315WAT     H176187   3.865   8.560   7.735
25315WAT     H276188   3.927   8.434   7.651
25316WAT      O76189   6.343   6.605   3.907
25316WAT     H176190   6.419   6.663   3.934
25316WAT     H276191   6.319   6.623   3.811
25317WAT      O76192   3.463   3.677   0.525
25317WAT     H176193   3.461   3.631   0.614
25317WAT     H276194   3.557   3.679   0.490
25318WAT      O76195   2.124   6.603   8.334
25318WAT     H176196   2.095   6.695   8.360
25318WAT     H276197   2.180   6.608   8.251
25319WAT      O76198   2.994   5.483   2.956
25319WAT     H176199   3.023   5.570   2.915
25319WAT     H276200   3.018   5.408   2.894
25320WAT      O76201   4.322   9.172   0.664
25320WAT     H176202   4.274   9.245   0.614
25320WAT     H276203   4.369   9.113   0.598
25321WAT      O76204   6.200   6.204   8.021
25321WAT     H176205   6.223   6.112   8.055
25321WAT     H276206   6.103   6.207   7.997
25322WAT      O76207   7.896   5.226   5.006
25322WAT     H176208   7.846   5.168   4.942
25322WAT     H276209   7.840   5.244   5.087
25323WAT      O76210   3.298   6.893   6.545
25323WAT     H176211   3.268   6.799   6.526
25323WAT     H276212   3.269   6.953   6.470
25324WAT      O76213   6.858   8.373   7.839
25324WAT     H176214   6.897   8.316   7.912
25324WAT     H276215   6.759   8.370   7.845
25325WAT      O76216   7.238   7.160   7.567
25325WAT     H176217   7.229   7.061   7.556
25325WAT     H276218   7.323   7.181   7.615
25326WAT      O76219   6.894   6.012   9.706
25326WAT     H176220   6.846   6.096   9.682
25326WAT     H276221   6.956   5.986   9.631
25327WAT      O76222   4.051   0.796   9.415
25327WAT     H176223   4.105   0.752   9.487
25327WAT     H276224   3.995   0.868   9.456
25328WAT      O76225   7.749   6.839   6.953
25328WAT     H176226   7.701   6.835   6.865
25328WAT     H276227   7.701   6.782   7.019
25329WAT      O76228   1.957   7.072   9.556
25329WAT     H176229   1.956   6.978   9.591
25329WAT     H276230   1.905   7.077   9.471
25330WAT      O76231   0.099   6.101   4.576
25330WAT     H176232   0.054   6.116   4.664
25330WAT     H276233   0.178   6.162   4.568
25331WAT      O76234   8.462   1.609   4.052
25331WAT     H176235   8.554   1.610   4.014
25331WAT     H276236   8.426   1.516   4.049
25332WAT      O76237   3.918   7.320   4.272
25332WAT     H176238   3.833   7.286   4.313
25332WAT     H276239   3.955   7.251   4.210
25333WAT      O76240   6.096   8.997   8.866
25333WAT     H176241   6.171   9.022   8.927
25333WAT     H276242   6.071   9.076   8.810
25334WAT      O76243   5.507   6.030   2.659
25334WAT     H176244   5.429   6.087   2.684
25334WAT     H276245   5.477   5.936   2.647
25335WAT      O76246   6.798   5.615   9.742
25335WAT     H176247   6.734   5.682   9.780
25335WAT     H276248   6.891   5.636   9.772
25336WAT      O76249   8.306   6.607   0.820
25336WAT     H176250   8.221   6.661   0.824
25336WAT     H276251   8.351   6.621   0.733
25337WAT      O76252   0.880   8.830   0.789
25337WAT     H176253   0.887   8.749   0.732
25337WAT     H276254   0.802   8.820   0.852
25338WAT      O76255   7.285   9.203   8.802
25338WAT     H176256   7.254   9.175   8.892
25338WAT     H276257   7.212   9.187   8.735
25339WAT      O76258   0.046   5.251   4.258
25339WAT     H176259  -0.040   5.225   4.302
25339WAT     H276260   0.052   5.208   4.168
25340WAT      O76261   5.310   2.743   2.994
25340WAT     H176262   5.214   2.734   3.021
25340WAT     H276263   5.322   2.709   2.901
25341WAT      O76264   3.202   2.979   8.835
25341WAT     H176265   3.145   2.920   8.778
25341WAT     H276266   3.155   3.065   8.853
25342WAT      O76267   9.288   4.815   7.643
25342WAT     H176268   9.282   4.915   7.645
25342WAT     H276269   9.205   4.777   7.603
25343WAT      O76270   2.704   6.422   7.056
25343WAT     H176271   2.769   6.346   7.065
25343WAT     H276272   2.734   6.484   6.984
25344WAT      O76273   9.777   1.309   8.427
25344WAT     H176274   9.707   1.261   8.375
25344WAT     H276275   9.865   1.262   8.418
25345WAT      O76276   0.609   4.045   6.157
25345WAT     H176277   0.571   3.953   6.166
25345WAT     H276278   0.571   4.104   6.228
25346WAT      O76279   3.463   5.824   1.016
25346WAT     H176280   3.527   5.837   0.940
25346WAT     H276281   3.507   5.768   1.087
25347WAT      O76282   9.619   3.213   6.942
25347WAT     H176283   9.622   3.251   7.035
25347WAT     H276284   9.609   3.288   6.876
25348WAT      O76285   8.776   3.629   6.631
25348WAT     H176286   8.849   3.577   6.586
25348WAT     H276287   8.815   3.703   6.685
25349WAT      O76288   4.151   1.589   1.346
25349WAT     H176289   4.217   1.664   1.351
25349WAT     H276290   4.170   1.533   1.266
25350WAT      O76291   6.489   3.980   0.865
25350WAT     H176292   6.447   4.010   0.779
25350WAT     H276293   6.456   3.889   0.888
25351WAT      O76294   4.670   5.944   6.679
25351WAT     H176295   4.596   6.001   6.717
25351WAT     H276296   4.757   5.993   6.688
25352WAT      O76297   9.067   0.928   9.422
25352WAT     H176298   9.005   0.948   9.498
25352WAT     H276299   9.118   1.011   9.398
25353WAT      O76300   7.145   7.075   3.625
25353WAT     H176301   7.190   7.127   3.553
25353WAT     H276302   7.202   6.997   3.651
25354WAT      O76303   5.807   8.527   7.165
25354WAT     H176304   5.870   8.518   7.088
25354WAT     H276305   5.713   8.532   7.131
25355WAT      O76306   8.632   1.446   9.546
25355WAT     H176307   8.678   1.409   9.465
25355WAT     H276308   8.631   1.376   9.618
25356WAT      O76309   8.054   8.337   4.695
25356WAT     H176310   7.978   8.362   4.636
25356WAT     H276311   8.108   8.265   4.651
25357WAT      O76312   2.340   1.508   7.988
25357WAT     H176313   2.322   1.410   7.994
25357WAT     H276314   2.435   1.523   7.960
25358WAT      O76315   6.745   2.245   4.124
25358WAT     H176316   6.833   2.283   4.094
25358WAT     H276317   6.731   2.156   4.081
25359WAT      O76318   7.701   4.553   5.236
25359WAT     H176319   7.626   4.515   5.182
25359WAT     H276320   7.775   4.485   5.242
25360WAT      O76321   4.883   0.695   9.179
25360WAT     H176322   4.783   0.691   9.188
25360WAT     H276323   4.922   0.729   9.264
25361WAT      O76324   8.349   2.072   0.353
25361WAT     H176325   8.303   2.077   0.264
25361WAT     H276326   8.378   1.978   0.370
25362WAT      O76327   3.084   2.808   5.830
25362WAT     H176328   3.116   2.726   5.877
25362WAT     H276329   3.014   2.783   5.763
25363WAT      O76330   7.684   7.411   1.515
25363WAT     H176331   7.724   7.471   1.446
25363WAT     H276332   7.685   7.457   1.604
25364WAT      O76333   1.141   3.594   5.918
25364WAT     H176334   1.234   3.557   5.913
25364WAT     H276335   1.130   3.645   6.004
25365WAT      O76336   3.707   7.224   4.917
25365WAT     H176337   3.726   7.137   4.871
25365WAT     H276338   3.766   7.295   4.879
25366WAT      O76339   7.647   4.639   8.644
25366WAT     H176340   7.575   4.708   8.657
25366WAT     H276341   7.682   4.611   8.733
25367WAT      O76342   1.219   4.408   3.497
25367WAT     H176343   1.304   4.459   3.488
25367WAT     H276344   1.143   4.461   3.459
25368WAT      O76345   6.004   1.010   2.399
25368WAT     H176346   6.073   0.950   2.357
25368WAT     H276347   5.915   0.993   2.355
25369WAT      O76348   2.013   5.686   6.206
25369WAT     H176349   1.978   5.684   6.112
25369WAT     H276350   1.942   5.652   6.268
25370WAT      O76351   2.330   5.456   3.803
25370WAT     H176352   2.291   5.442   3.713
25370WAT     H276353   2.419   5.410   3.809
25371WAT      O76354   2.426   0.126   2.470
25371WAT     H176355   2.466   0.170   2.550
25371WAT     H276356   2.491   0.062   2.430
25372WAT      O76357   1.459   7.419   5.652
25372WAT     H176358   1.424   7.449   5.741
25372WAT     H276359   1.552   7.453   5.639
25373WAT      O76360   0.843   6.290   6.408
25373WAT     H176361   0.812   6.218   6.469
25373WAT     H276362   0.778   6.301   6.333
25374WAT      O76363   1.989   1.736   3.279
25374WAT     H176364   2.040   1.787   3.210
25374WAT     H276365   1.984   1.789   3.363
25375WAT      O76366   3.825   7.012   4.514
25375WAT     H176367   3.879   6.985   4.434
25375WAT     H276368   3.741   7.056   4.484
25376WAT      O76369   6.253   5.954   6.081
25376WAT     H176370   6.249   5.915   6.173
25376WAT     H276371   6.243   6.053   6.086
25377WAT      O76372   8.818   6.809   8.129
25377WAT     H176373   8.728   6.767   8.115
25377WAT     H276374   8.886   6.761   8.072
25378WAT      O76375   2.422   7.141   1.940
25378WAT     H176376   2.345   7.192   1.901
25378WAT     H276377   2.413   7.044   1.918
25379WAT      O76378   5.135   1.548   9.265
25379WAT     H176379   5.175   1.624   9.317
25379WAT     H276380   5.196   1.470   9.267
25380WAT      O76381   8.286   6.432   3.838
25380WAT     H176382   8.312   6.436   3.741
25380WAT     H276383   8.203   6.378   3.848
25381WAT      O76384   7.834   8.086   2.968
25381WAT     H176385   7.760   8.075   3.035
25381WAT     H276386   7.893   8.162   2.995
25382WAT      O76387   6.721   7.413   9.677
25382WAT     H176388   6.727   7.345   9.603
25382WAT     H276389   6.679   7.497   9.642
25383WAT      O76390   8.308   4.675   2.725
25383WAT     H176391   8.270   4.587   2.752
25383WAT     H276392   8.319   4.677   2.625
25384WAT      O76393   6.593   3.908   8.067
25384WAT     H176394   6.606   3.931   7.971
25384WAT     H276395   6.614   3.988   8.124
25385WAT      O76396   4.512   9.537   4.165
25385WAT     H176397   4.581   9.466   4.153
25385WAT     H276398   4.551   9.612   4.219
25386WAT      O76399   9.476   1.145   2.313
25386WAT     H176400   9.517   1.069   2.362
25386WAT     H276401   9.396   1.113   2.262
25387WAT      O76402   8.469   9.554   2.760
25387WAT     H176403   8.426   9.595   2.841
25387WAT     H276404   8.552   9.507   2.787
25388WAT      O76405   5.857   0.359   2.928
25388WAT     H176406   5.886   0.402   3.013
25388WAT     H276407   5.903   0.402   2.850
25389WAT      O76408   3.013   8.804   1.934
25389WAT     H176409   2.949   8.729   1.945
25389WAT     H276410   2.981   8.884   1.986
25390WAT      O76411   0.491   0.205   9.568
25390WAT     H176412   0.554   0.278   9.541
25390WAT     H276413   0.403   0.245   9.593
25391WAT      O76414   0.201   5.910   0.410
25391WAT     H176415   0.266   5.851   0.457
25391WAT     H276416   0.113   5.906   0.456
25392WAT      O76417   0.868   8.403   9.092
25392WAT     H176418   0.824   8.329   9.040
25392WAT     H276419   0.888   8.371   9.185
25393WAT      O76420   6.238   0.641   4.598
25393WAT     H176421   6.273   0.581   4.525
25393WAT     H276422   6.142   0.662   4.580
25394WAT      O76423   7.680   4.712   4.411
25394WAT     H176424   7.629   4.745   4.491
25394WAT     H276425   7.646   4.758   4.328
25395WAT      O76426   5.565   3.983   2.895
25395WAT     H176427   5.467   3.997   2.881
25395WAT     H276428   5.580   3.889   2.927
25396WAT      O76429   7.321   3.270   7.121
25396WAT     H176430   7.369   3.254   7.207
25396WAT     H276431   7.384   3.256   7.044
25397WAT      O76432   3.482   4.297   4.003
25397WAT     H176433   3.400   4.261   3.960
25397WAT     H276434   3.538   4.344   3.935
25398WAT      O76435   5.811   4.844   8.532
25398WAT     H176436   5.735   4.784   8.507
25398WAT     H276437   5.776   4.937   8.549
25399WAT      O76438   0.531   7.660   6.066
25399WAT     H176439   0.488   7.750   6.055
25399WAT     H276440   0.567   7.651   6.158
25400WAT      O76441   3.483   4.279   5.930
25400WAT     H176442   3.574   4.239   5.924
25400WAT     H276443   3.422   4.234   5.865
25401WAT      O76444   1.221   9.767   6.813
25401WAT     H176445   1.233   9.728   6.904
25401WAT     H276446   1.310   9.793   6.776
25402WAT      O76447   9.092   7.740   4.793
25402WAT     H176448   9.042   7.826   4.786
25402WAT     H276449   9.066   7.680   4.717
25403WAT      O76450   1.252   0.697   0.884
25403WAT     H176451   1.284   0.697   0.789
25403WAT     H276452   1.259   0.789   0.922
25404WAT      O76453   1.028   1.751   0.425
25404WAT     H176454   0.951   1.816   0.426
25404WAT     H276455   1.098   1.782   0.489
25405WAT      O76456   2.146   2.250   8.737
25405WAT     H176457   2.167   2.152   8.749
25405WAT     H276458   2.197   2.285   8.659
25406WAT      O76459   7.994   2.845   0.386
25406WAT     H176460   7.993   2.774   0.456
25406WAT     H276461   8.041   2.811   0.304
25407WAT      O76462   7.600   7.437   5.726
25407WAT     H176463   7.616   7.461   5.822
25407WAT     H276464   7.635   7.345   5.709
25408WAT      O76465   4.761   1.475   1.939
25408WAT     H176466   4.664   1.454   1.941
25408WAT     H276467   4.813   1.391   1.957
25409WAT      O76468   4.413   8.552   7.845
25409WAT     H176469   4.354   8.573   7.923
25409WAT     H276470   4.452   8.636   7.808
25410WAT      O76471   0.508   0.250   1.368
25410WAT     H176472   0.421   0.298   1.383
25410WAT     H276473   0.545   0.276   1.279
25411WAT      O76474   8.105   5.715   5.242
25411WAT     H176475   8.144   5.637   5.193
25411WAT     H276476   8.148   5.724   5.331
25412WAT      O76477   2.095   3.263   0.009
25412WAT     H176478   2.161   3.337   0.023
25412WAT     H276479   2.061   3.231   0.098
25413WAT      O76480   7.814   9.082   9.427
25413WAT     H176481   7.732   9.041   9.469
25413WAT     H276482   7.894   9.028   9.451
25414WAT      O76483   4.154   1.771   0.433
25414WAT     H176484   4.160   1.800   0.338
25414WAT     H276485   4.074   1.814   0.476
25415WAT      O76486   9.573   8.000   0.344
25415WAT     H176487   9.640   8.034   0.411
25415WAT     H276488   9.495   7.960   0.393
25416WAT      O76489   2.624   7.451   0.373
25416WAT     H176490   2.558   7.376   0.383
25416WAT     H276491   2.681   7.455   0.455
25417WAT      O76492   6.199   6.829   8.177
25417WAT     H176493   6.245   6.768   8.113
25417WAT     H276494   6.137   6.776   8.235
25418WAT      O76495   7.795   2.258   0.330
25418WAT     H176496   7.812   2.344   0.281
25418WAT     H276497   7.748   2.194   0.268
25419WAT      O76498   6.195   6.184   5.031
25419WAT     H176499   6.200   6.282   5.013
25419WAT     H276500   6.275   6.139   4.990
25420WAT      O76501   4.239   0.948   5.555
25420WAT     H176502   4.224   0.963   5.653
25420WAT     H276503   4.295   0.866   5.542
25421WAT      O76504   2.628   2.210   1.537
25421WAT     H176505   2.553   2.149   1.564
25421WAT     H276506   2.609   2.303   1.569
25422WAT      O76507   6.899   6.473   7.498
25422WAT     H176508   6.941   6.418   7.571
25422WAT     H276509   6.964   6.541   7.466
25423WAT      O76510   4.723   1.914   2.801
25423WAT     H176511   4.761   1.907   2.893
25423WAT     H276512   4.632   1.956   2.806
25424WAT      O76513   9.227   6.371   7.144
25424WAT     H176514   9.279   6.293   7.111
25424WAT     H276515   9.129   6.353   7.134
25425WAT      O76516   0.436   6.491   5.343
25425WAT     H176517   0.423   6.442   5.429
25425WAT     H276518   0.419   6.588   5.357
25426WAT      O76519   9.159   0.096   3.739
25426WAT     H176520   9.184   0.189   3.766
25426WAT     H276521   9.086   0.099   3.670
25427WAT      O76522   4.503   1.426   8.992
25427WAT     H176523   4.578   1.387   8.938
25427WAT     H276524   4.521   1.522   9.011
25428WAT      O76525   1.673   0.706   3.492
25428WAT     H176526   1.726   0.785   3.524
25428WAT     H276527   1.577   0.734   3.481
25429WAT      O76528   9.768   0.779   6.176
25429WAT     H176529   9.742   0.683   6.180
25429WAT     H276530   9.750   0.822   6.264
25430WAT      O76531   1.915   6.990   9.059
25430WAT     H176532   1.900   6.944   9.146
25430WAT     H276533   1.838   6.974   8.998
25431WAT      O76534   7.785   4.523   4.923
25431WAT     H176535   7.806   4.429   4.896
25431WAT     H276536   7.865   4.562   4.969
25432WAT      O76537   8.533   4.026   5.210
25432WAT     H176538   8.604   3.960   5.185
25432WAT     H276539   8.462   3.979   5.263
25433WAT      O76540   5.144   5.557   0.440
25433WAT     H176541   5.130   5.633   0.504
25433WAT     H276542   5.066   5.495   0.444
25434WAT      O76543   3.065   3.321   3.819
25434WAT     H176544   3.067   3.354   3.913
25434WAT     H276545   3.042   3.397   3.758
25435WAT      O76546   8.220   9.626   9.054
25435WAT     H176547   8.151   9.554   9.048
25435WAT     H276548   8.272   9.616   9.139
25436WAT      O76549   3.484   3.906   2.955
25436WAT     H176550   3.440   3.977   2.900
25436WAT     H276551   3.453   3.816   2.926
25437WAT      O76552   1.556   5.372   9.532
25437WAT     H176553   1.518   5.388   9.440
25437WAT     H276554   1.539   5.278   9.559
25438WAT      O76555   5.615   4.780   8.919
25438WAT     H176556   5.532   4.818   8.958
25438WAT     H276557   5.685   4.851   8.912
25439WAT      O76558   6.456   8.256   3.809
25439WAT     H176559   6.477   8.168   3.851
25439WAT     H276560   6.498   8.261   3.718
25440WAT      O76561   5.123   6.904   5.517
25440WAT     H176562   5.125   6.806   5.538
25440WAT     H276563   5.188   6.923   5.443
25441WAT      O76564   3.265   6.433   2.054
25441WAT     H176565   3.280   6.352   1.998
25441WAT     H276566   3.290   6.515   2.003
25442WAT      O76567   5.581   8.669   8.600
25442WAT     H176568   5.584   8.622   8.688
25442WAT     H276569   5.534   8.756   8.611
25443WAT      O76570   4.268   2.399   9.566
25443WAT     H176571   4.291   2.304   9.587
25443WAT     H276572   4.283   2.455   9.646
25444WAT      O76573   4.947   4.659   7.370
25444WAT     H176574   5.003   4.612   7.302
25444WAT     H276575   4.920   4.748   7.335
25445WAT      O76576   7.842   4.816   0.586
25445WAT     H176577   7.861   4.718   0.599
25445WAT     H276578   7.759   4.840   0.636
25446WAT      O76579   4.594   3.692   8.711
25446WAT     H176580   4.690   3.711   8.733
25446WAT     H276581   4.551   3.775   8.676
25447WAT      O76582   5.971   0.995   3.943
25447WAT     H176583   5.875   0.970   3.927
25447WAT     H276584   6.020   0.916   3.981
25448WAT      O76585   1.231   9.821   6.484
25448WAT     H176586   1.285   9.751   6.531
25448WAT     H276587   1.153   9.778   6.439
25449WAT      O76588   8.849   6.234   9.704
25449WAT     H176589   8.839   6.196   9.796
25449WAT     H276590   8.792   6.316   9.696
25450WAT      O76591   5.977   1.586   3.260
25450WAT     H176592   5.884   1.584   3.222
25450WAT     H276593   5.973   1.617   3.355
25451WAT      O76594   4.275   8.223   2.217
25451WAT     H176595   4.178   8.244   2.230
25451WAT     H276596   4.312   8.180   2.300
25452WAT      O76597   9.215   7.372   9.735
25452WAT     H176598   9.132   7.424   9.714
25452WAT     H276599   9.292   7.436   9.745
25453WAT      O76600   2.212   1.730   3.557
25453WAT     H176601   2.181   1.800   3.620
25453WAT     H276602   2.158   1.647   3.569
25454WAT      O76603   7.199   4.231   8.616
25454WAT     H176604   7.260   4.309   8.628
25454WAT     H276605   7.236   4.168   8.548
25455WAT      O76606   1.848   5.952   5.251
25455WAT     H176607   1.749   5.956   5.238
25455WAT     H276608   1.893   5.950   5.162
25456WAT      O76609   2.454   0.079   4.986
25456WAT     H176610   2.510   0.162   4.985
25456WAT     H276611   2.388   0.085   5.061
25457WAT      O76612   3.710   7.687   6.751
25457WAT     H176613   3.710   7.750   6.828
25457WAT     H276614   3.618   7.681   6.712
25458WAT      O76615   1.539   7.833   5.423
25458WAT     H176616   1.493   7.843   5.512
25458WAT     H276617   1.476   7.788   5.359
25459WAT      O76618   6.509   4.079   5.609
25459WAT     H176619   6.507   4.046   5.514
25459WAT     H276620   6.574   4.154   5.617
25460WAT      O76621   7.874   1.282   3.900
25460WAT     H176622   7.923   1.282   3.813
25460WAT     H276623   7.789   1.230   3.890
25461WAT      O76624   3.382   9.568   3.460
25461WAT     H176625   3.408   9.514   3.541
25461WAT     H276626   3.348   9.657   3.489
25462WAT      O76627   8.070   8.258   3.449
25462WAT     H176628   8.136   8.199   3.402
25462WAT     H276629   8.009   8.299   3.381
25463WAT      O76630   4.765   1.281   7.686
25463WAT     H176631   4.781   1.294   7.588
25463WAT     H276632   4.794   1.362   7.736
25464WAT      O76633   1.499   7.997   8.147
25464WAT     H176634   1.587   8.043   8.138
25464WAT     H276635   1.497   7.946   8.233
25465WAT      O76636   3.700   2.356   3.044
25465WAT     H176637   3.774   2.354   3.112
25465WAT     H276638   3.721   2.291   2.970
25466WAT      O76639   4.135   7.214   8.201
25466WAT     H176640   4.079   7.200   8.120
25466WAT     H276641   4.230   7.230   8.173
25467WAT      O76642   3.022   3.164   8.603
25467WAT     H176643   3.077   3.209   8.532
25467WAT     H276644   3.042   3.205   8.692
25468WAT      O76645   9.347   7.248   0.429
25468WAT     H176646   9.402   7.166   0.440
25468WAT     H276647   9.268   7.229   0.371
25469WAT      O76648   9.533   6.184   0.695
25469WAT     H176649   9.477   6.178   0.778
25469WAT     H276650   9.556   6.280   0.678
25470WAT      O76651   0.890   8.960   6.678
25470WAT     H176652   0.892   9.053   6.642
25470WAT     H276653   0.819   8.952   6.748
25471WAT      O76654   8.809   9.383   4.896
25471WAT     H176655   8.768   9.355   4.809
25471WAT     H276656   8.737   9.400   4.963
25472WAT      O76657   0.210   1.607   2.993
25472WAT     H176658   0.203   1.705   3.014
25472WAT     H276659   0.130   1.560   3.029
25473WAT      O76660   6.979   4.021   5.649
25473WAT     H176661   7.060   3.968   5.623
25473WAT     H276662   6.919   3.964   5.705
25474WAT      O76663   7.372   4.319   3.707
25474WAT     H176664   7.309   4.256   3.752
25474WAT     H276665   7.400   4.390   3.771
25475WAT      O76666   0.923   9.079   4.168
25475WAT     H176667   0.853   9.053   4.234
25475WAT     H276668   0.964   8.997   4.128
25476WAT      O76669   1.537   5.487   1.324
25476WAT     H176670   1.549   5.582   1.295
25476WAT     H276671   1.523   5.485   1.423
25477WAT      O76672   8.740   6.089   0.038
25477WAT     H176673   8.701   6.134   0.119
25477WAT     H276674   8.672   6.027  -0.001
25478WAT      O76675   1.224   6.872   5.899
25478WAT     H176676   1.144   6.815   5.915
25478WAT     H276677   1.204   6.966   5.927
25479WAT      O76678   2.984   1.818   3.684
25479WAT     H176679   2.959   1.745   3.620
25479WAT     H276680   2.909   1.832   3.749
25480WAT      O76681   4.697   7.866   7.469
25480WAT     H176682   4.760   7.790   7.452
25480WAT     H276683   4.617   7.833   7.518
25481WAT      O76684   8.317   5.309   8.721
25481WAT     H176685   8.394   5.324   8.659
25481WAT     H276686   8.344   5.329   8.815
25482WAT      O76687   8.728   1.342   8.775
25482WAT     H176688   8.762   1.381   8.861
25482WAT     H276689   8.665   1.407   8.732
25483WAT      O76690   7.504   7.174   2.427
25483WAT     H176691   7.598   7.173   2.461
25483WAT     H276692   7.455   7.252   2.466
25484WAT      O76693   9.250   8.929   2.850
25484WAT     H176694   9.339   8.910   2.891
25484WAT     H276695   9.254   8.907   2.752
25485WAT      O76696   2.704   4.231   1.066
25485WAT     H176697   2.798   4.203   1.050
25485WAT     H276698   2.702   4.321   1.109
25486WAT      O76699   1.221   6.699   4.198
25486WAT     H176700   1.261   6.630   4.259
25486WAT     H276701   1.130   6.725   4.231
25487WAT      O76702   3.039   5.471   8.866
25487WAT     H176703   3.025   5.470   8.767
25487WAT     H276704   3.128   5.510   8.887
25488WAT      O76705   7.001   0.899   4.228
25488WAT     H176706   7.051   0.941   4.152
25488WAT     H276707   7.018   0.800   4.228
25489WAT      O76708   6.442   1.453   2.893
25489WAT     H176709   6.525   1.506   2.909
25489WAT     H276710   6.381   1.462   2.972
25490WAT      O76711   8.819   2.767   8.331
25490WAT     H176712   8.887   2.806   8.269
25490WAT     H276713   8.857   2.762   8.424
25491WAT      O76714   8.136   7.557   8.459
25491WAT     H176715   8.204   7.631   8.462
25491WAT     H276716   8.115   7.527   8.552
25492WAT      O76717   3.490   7.175   2.961
25492WAT     H176718   3.480   7.234   2.881
25492WAT     H276719   3.543   7.094   2.935
25493WAT      O76720   2.998   4.113   9.353
25493WAT     H176721   3.041   4.099   9.442
25493WAT     H276722   3.007   4.209   9.326
25494WAT      O76723   0.613   5.211   1.919
25494WAT     H176724   0.700   5.234   1.876
25494WAT     H276725   0.628   5.144   1.992
25495WAT      O76726   8.255   0.203   6.042
25495WAT     H176727   8.344   0.173   6.076
25495WAT     H276728   8.268   0.268   5.967
25496WAT      O76729   1.606   4.089   8.730
25496WAT     H176730   1.532   4.021   8.728
25496WAT     H276731   1.674   4.061   8.798
25497WAT      O76732   9.472   2.117   0.854
25497WAT     H176733   9.486   2.213   0.878
25497WAT     H276734   9.530   2.060   0.911
25498WAT      O76735   3.039   0.493   9.751
25498WAT     H176736   2.999   0.585   9.743
25498WAT     H276737   3.129   0.500   9.793
25499WAT      O76738   9.072   2.060   7.525
25499WAT     H176739   9.130   2.118   7.467
25499WAT     H276740   9.075   2.095   7.619
25500WAT      O76741   6.267   5.870   2.974
25500WAT     H176742   6.284   5.961   2.937
25500WAT     H276743   6.306   5.865   3.067
25501WAT      O76744   9.434   2.018   3.712
25501WAT     H176745   9.414   2.065   3.625
25501WAT     H276746   9.462   2.085   3.780
25502WAT      O76747   9.174   6.840   7.681
25502WAT     H176748   9.090   6.800   7.716
25502WAT     H276749   9.189   6.929   7.724
25503WAT      O76750   7.168   4.097   3.181
25503WAT     H176751   7.117   4.096   3.096
25503WAT     H276752   7.106   4.084   3.258
25504WAT      O76753   5.383   9.085   0.490
25504WAT     H176754   5.318   9.099   0.416
25504WAT     H276755   5.369   9.155   0.560
25505WAT      O76756   6.201   7.454   1.190
25505WAT     H176757   6.293   7.415   1.189
25505WAT     H276758   6.205   7.550   1.218
25506WAT      O76759   4.788   5.102   3.085
25506WAT     H176760   4.722   5.176   3.074
25506WAT     H276761   4.766   5.028   3.023
25507WAT      O76762   4.424   2.146   4.869
25507WAT     H176763   4.469   2.063   4.902
25507WAT     H276764   4.329   2.126   4.844
25508WAT      O76765   4.475   0.667   4.185
25508WAT     H176766   4.441   0.641   4.095
25508WAT     H276767   4.460   0.765   4.200
25509WAT      O76768   1.811   6.921   1.733
25509WAT     H176769   1.812   6.966   1.644
25509WAT     H276770   1.797   6.988   1.805
25510WAT      O76771   6.138   3.654   6.449
25510WAT     H176772   6.095   3.660   6.539
25510WAT     H276773   6.085   3.592   6.391
25511WAT      O76774   4.213   5.710   1.577
25511WAT     H176775   4.165   5.656   1.508
25511WAT     H276776   4.245   5.650   1.650
25512WAT      O76777   3.249   4.249   2.376
25512WAT     H176778   3.338   4.268   2.417
25512WAT     H276779   3.214   4.163   2.414
25513WAT      O76780   7.397   2.691   2.571
25513WAT     H176781   7.367   2.700   2.476
25513WAT     H276782   7.495   2.668   2.573
25514WAT      O76783   0.661   1.085   1.149
25514WAT     H176784   0.620   1.041   1.229
25514WAT     H276785   0.733   1.026   1.113
25515WAT      O76786   3.724   0.408   4.036
25515WAT     H176787   3.744   0.500   4.004
25515WAT     H276788   3.651   0.411   4.104
25516WAT      O76789   0.201   3.123   0.985
25516WAT     H176790   0.270   3.052   0.971
25516WAT     H276791   0.149   3.137   0.901
25517WAT      O76792   9.192   5.590   1.169
25517WAT     H176793   9.185   5.688   1.150
25517WAT     H276794   9.159   5.539   1.090
25518WAT      O76795   3.524   0.528   1.634
25518WAT     H176796   3.474   0.470   1.569
25518WAT     H276797   3.586   0.471   1.688
25519WAT      O76798   9.442   9.534   6.652
25519WAT     H176799   9.372   9.481   6.603
25519WAT     H276800   9.531   9.493   6.636
25520WAT      O76801   6.041   4.081   1.964
25520WAT     H176802   6.108   4.119   1.901
25520WAT     H276803   6.000   3.999   1.924
25521WAT      O76804   9.100   6.439   5.263
25521WAT     H176805   9.158   6.504   5.311
25521WAT     H276806   9.074   6.364   5.325
25522WAT      O76807   8.525   8.214   0.136
25522WAT     H176808   8.532   8.283   0.064
25522WAT     H276809   8.451   8.150   0.114
25523WAT      O76810   8.969   7.817   8.507
25523WAT     H176811   9.068   7.806   8.509
25523WAT     H276812   8.932   7.774   8.425
25524WAT      O76813   2.811   6.501   5.613
25524WAT     H176814   2.903   6.541   5.621
25524WAT     H276815   2.748   6.568   5.574
25525WAT      O76816   4.884   3.791   9.618
25525WAT     H176817   4.949   3.833   9.682
25525WAT     H276818   4.804   3.760   9.669
25526WAT      O76819   9.869   1.649   5.950
25526WAT     H176820   9.863   1.586   5.872
25526WAT     H276821   9.951   1.706   5.941
25527WAT      O76822   4.959   3.780   9.099
25527WAT     H176823   4.933   3.733   9.183
25527WAT     H276824   5.058   3.790   9.095
25528WAT      O76825   7.319   2.799   5.336
25528WAT     H176826   7.284   2.821   5.245
25528WAT     H276827   7.408   2.754   5.327
25529WAT      O76828   3.937   0.525   7.605
25529WAT     H176829   3.848   0.569   7.595
25529WAT     H276830   3.985   0.527   7.517
25530WAT      O76831   7.800   1.627   7.136
25530WAT     H176832   7.822   1.714   7.181
25530WAT     H276833   7.846   1.623   7.047
25531WAT      O76834   6.892   2.620   9.856
25531WAT     H176835   6.938   2.536   9.826
25531WAT     H276836   6.798   2.600   9.882
25532WAT      O76837   9.733   2.614   8.416
25532WAT     H176838   9.733   2.519   8.386
25532WAT     H276839   9.752   2.618   8.514
25533WAT      O76840   2.681   4.720   1.446
25533WAT     H176841   2.674   4.739   1.544
25533WAT     H276842   2.609   4.655   1.420
25534WAT      O76843   0.558   7.903   8.885
25534WAT     H176844   0.567   7.940   8.978
25534WAT     H276845   0.573   7.976   8.819
25535WAT      O76846   8.694   7.707   7.286
25535WAT     H176847   8.602   7.731   7.314
25535WAT     H276848   8.693   7.619   7.238
25536WAT      O76849   3.448   2.329   2.034
25536WAT     H176850   3.524   2.345   2.097
25536WAT     H276851   3.428   2.413   1.984
25537WAT      O76852   4.357   8.023   2.001
25537WAT     H176853   4.349   8.039   1.903
25537WAT     H276854   4.340   8.108   2.051
25538WAT      O76855   7.678   9.570   4.457
25538WAT     H176856   7.607   9.603   4.519
25538WAT     H276857   7.718   9.486   4.494
25539WAT      O76858   3.954   7.641   9.665
25539WAT     H176859   4.032   7.613   9.607
25539WAT     H276860   3.899   7.560   9.687
25540WAT      O76861   7.571   4.145   2.432
25540WAT     H176862   7.561   4.244   2.440
25540WAT     H276863   7.492   4.099   2.473
25541WAT      O76864   3.215   9.058   3.732
25541WAT     H176865   3.177   9.104   3.651
25541WAT     H276866   3.221   8.960   3.715
25542WAT      O76867   3.981   7.955   0.570
25542WAT     H176868   4.012   8.043   0.606
25542WAT     H276869   4.030   7.882   0.617
25543WAT      O76870   6.379   7.088   0.414
25543WAT     H176871   6.329   7.085   0.501
25543WAT     H276872   6.365   7.001   0.365
25544WAT      O76873   6.817   6.106   0.050
25544WAT     H176874   6.869   6.045  -0.010
25544WAT     H276875   6.721   6.108   0.021
25545WAT      O76876   2.844   9.656   9.556
25545WAT     H176877   2.934   9.688   9.525
25545WAT     H276878   2.809   9.588   9.491
25546WAT      O76879   9.768   8.255   3.081
25546WAT     H176880   9.848   8.276   3.025
25546WAT     H276881   9.794   8.194   3.155
25547WAT      O76882   1.135   1.468   3.828
25547WAT     H176883   1.149   1.561   3.862
25547WAT     H276884   1.110   1.472   3.731
25548WAT      O76885   1.356   8.179   6.251
25548WAT     H176886   1.432   8.231   6.212
25548WAT     H276887   1.383   8.083   6.263
25549WAT      O76888   3.830   4.499   4.269
25549WAT     H176889   3.896   4.540   4.332
25549WAT     H276890   3.874   4.482   4.180
25550WAT      O76891   0.451   3.433   5.840
25550WAT     H176892   0.371   3.412   5.897
25550WAT     H276893   0.425   3.501   5.771
25551WAT      O76894   3.130   7.991   6.063
25551WAT     H176895   3.036   8.023   6.071
25551WAT     H276896   3.174   8.034   5.984
25552WAT      O76897   8.705   0.342   1.801
25552WAT     H176898   8.718   0.288   1.884
25552WAT     H276899   8.697   0.439   1.825
25553WAT      O76900   3.393   5.124   9.331
25553WAT     H176901   3.323   5.059   9.361
25553WAT     H276902   3.468   5.124   9.397
25554WAT      O76903   3.102   3.771   2.054
25554WAT     H176904   3.018   3.750   2.104
25554WAT     H276905   3.082   3.785   1.958
25555WAT      O76906   0.277   8.651   4.086
25555WAT     H176907   0.180   8.636   4.108
25555WAT     H276908   0.291   8.747   4.063
25556WAT      O76909   9.779   6.647   3.643
25556WAT     H176910   9.814   6.553   3.652
25556WAT     H276911   9.680   6.647   3.660
25557WAT      O76912   9.381   7.265   6.908
25557WAT     H176913   9.400   7.255   6.811
25557WAT     H276914   9.286   7.239   6.926
25558WAT      O76915   9.394   0.819   8.726
25558WAT     H176916   9.429   0.788   8.814
25558WAT     H276917   9.467   0.863   8.675
25559WAT      O76918   5.667   5.212   6.098
25559WAT     H176919   5.724   5.281   6.054
25559WAT     H276920   5.719   5.167   6.171
25560WAT      O76921   5.479   1.572   1.801
25560WAT     H176922   5.442   1.624   1.725
25560WAT     H276923   5.437   1.481   1.804
25561WAT      O76924   3.493   7.278   7.812
25561WAT     H176925   3.456   7.347   7.875
25561WAT     H276926   3.478   7.187   7.851
25562WAT      O76927   3.330   6.979   8.347
25562WAT     H176928   3.299   6.927   8.426
25562WAT     H276929   3.429   6.994   8.353
25563WAT      O76930   3.205   8.348   3.423
25563WAT     H176931   3.141   8.278   3.392
25563WAT     H276932   3.214   8.343   3.523
25564WAT      O76933   4.260   6.991   0.923
25564WAT     H176934   4.256   7.028   0.830
25564WAT     H276935   4.183   7.026   0.976
25565WAT      O76936   6.779   1.414   9.212
25565WAT     H176937   6.793   1.320   9.183
25565WAT     H276938   6.796   1.475   9.134
25566WAT      O76939   0.901   3.614   4.127
25566WAT     H176940   0.955   3.607   4.044
25566WAT     H276941   0.945   3.561   4.200
25567WAT      O76942   3.828   4.693   1.708
25567WAT     H176943   3.832   4.637   1.791
25567WAT     H276944   3.788   4.639   1.634
25568WAT      O76945   6.748   1.091   8.674
25568WAT     H176946   6.721   1.095   8.578
25568WAT     H276947   6.693   1.155   8.727
25569WAT      O76948   2.307   1.058   3.740
25569WAT     H176949   2.374   1.016   3.678
25569WAT     H276950   2.237   0.990   3.764
25570WAT      O76951   7.330   7.282   2.831
25570WAT     H176952   7.294   7.224   2.758
25570WAT     H276953   7.322   7.234   2.918
25571WAT      O76954   0.577   4.974   8.074
25571WAT     H176955   0.612   5.054   8.123
25571WAT     H276956   0.513   4.924   8.133
25572WAT      O76957   7.380   0.180   9.174
25572WAT     H176958   7.466   0.196   9.222
25572WAT     H276959   7.312   0.247   9.205
25573WAT      O76960   5.492   3.956   1.438
25573WAT     H176961   5.419   3.906   1.484
25573WAT     H276962   5.581   3.918   1.465
25574WAT      O76963   5.085   8.542   4.048
25574WAT     H176964   5.033   8.588   3.976
25574WAT     H276965   5.169   8.593   4.065
25575WAT      O76966   6.853   8.428   0.523
25575WAT     H176967   6.829   8.369   0.600
25575WAT     H276968   6.818   8.521   0.540
25576WAT      O76969   1.344   8.494   4.451
25576WAT     H176970   1.287   8.559   4.401
25576WAT     H276971   1.289   8.414   4.477
25577WAT      O76972   5.328   8.978   9.170
25577WAT     H176973   5.247   8.935   9.132
25577WAT     H276974   5.308   9.009   9.263
25578WAT      O76975   8.471   4.179   4.117
25578WAT     H176976   8.510   4.182   4.209
25578WAT     H276977   8.389   4.236   4.113
25579WAT      O76978   7.992   7.741   3.163
25579WAT     H176979   8.055   7.664   3.158
25579WAT     H276980   8.030   7.812   3.222
25580WAT      O76981   5.434   1.512   4.283
25580WAT     H176982   5.413   1.503   4.381
25580WAT     H276983   5.434   1.608   4.257
25581WAT      O76984   4.774   8.182   6.043
25581WAT     H176985   4.756   8.102   5.985
25581WAT     H276986   4.783   8.263   5.985
25582WAT      O76987   0.384   9.005   7.018
25582WAT     H176988   0.362   9.100   6.996
25582WAT     H276989   0.447   9.003   7.096
25583WAT      O76990   3.055   6.223   8.954
25583WAT     H176991   3.080   6.296   9.017
25583WAT     H276992   3.136   6.172   8.927
25584WAT      O76993   2.290   9.272   1.989
25584WAT     H176994   2.390   9.269   1.985
25584WAT     H276995   2.256   9.196   2.045
25585WAT      O76996   9.469   3.872   2.933
25585WAT     H176997   9.407   3.805   2.893
25585WAT     H276998   9.550   3.880   2.875
25586WAT      O76999   2.860   1.229   0.543
25586WAT     H177000   2.938   1.231   0.481
25586WAT     H277001   2.892   1.216   0.637
25587WAT      O77002   6.266   9.521   2.323
25587WAT     H177003   6.194   9.583   2.292
25587WAT     H277004   6.326   9.569   2.387
25588WAT      O77005   8.720   2.631   5.301
25588WAT     H177006   8.814   2.599   5.307
25588WAT     H277007   8.658   2.556   5.325
25589WAT      O77008   1.117   9.343   9.726
25589WAT     H177009   1.216   9.352   9.736
25589WAT     H277010   1.096   9.303   9.637
25590WAT      O77011   7.241   9.303   3.640
25590WAT     H177012   7.272   9.383   3.588
25590WAT     H277013   7.168   9.331   3.703
25591WAT      O77014   8.571   4.431   0.262
25591WAT     H177015   8.505   4.358   0.252
25591WAT     H277016   8.556   4.500   0.190
25592WAT      O77017   5.164   7.741   3.786
25592WAT     H177018   5.078   7.787   3.766
25592WAT     H277019   5.237   7.783   3.733
25593WAT      O77020   0.429   4.405   7.471
25593WAT     H177021   0.351   4.466   7.486
25593WAT     H277022   0.424   4.367   7.379
25594WAT      O77023   9.619   1.550   4.384
25594WAT     H177024   9.560   1.486   4.335
25594WAT     H277025   9.679   1.596   4.319
25595WAT      O77026   6.046   2.430   9.530
25595WAT     H177027   5.984   2.372   9.584
25595WAT     H277028   6.140   2.399   9.543
25596WAT      O77029   4.599   5.477   9.833
25596WAT     H177030   4.663   5.418   9.882
25596WAT     H277031   4.608   5.571   9.866
25597WAT      O77032   4.826   4.391   2.089
25597WAT     H177033   4.785   4.322   2.029
25597WAT     H277034   4.887   4.345   2.154
25598WAT      O77035   9.146   0.202   6.141
25598WAT     H177036   9.233   0.188   6.093
25598WAT     H277037   9.149   0.154   6.229
25599WAT      O77038   3.368   1.091   0.053
25599WAT     H177039   3.334   1.174   0.008
25599WAT     H277040   3.366   1.104   0.152
25600WAT      O77041   1.036   2.472   9.062
25600WAT     H177042   1.033   2.373   9.071
25600WAT     H277043   1.020   2.514   9.151
25601WAT      O77044   3.027   6.921   5.207
25601WAT     H177045   3.121   6.937   5.237
25601WAT     H277046   2.997   6.831   5.238
25602WAT      O77047   3.701   8.235   6.331
25602WAT     H177048   3.749   8.232   6.419
25602WAT     H277049   3.753   8.292   6.267
25603WAT      O77050   0.383   3.760   7.030
25603WAT     H177051   0.322   3.681   7.024
25603WAT     H277052   0.413   3.786   6.938
25604WAT      O77053   7.869   3.412   7.394
25604WAT     H177054   7.874   3.488   7.329
25604WAT     H277055   7.792   3.353   7.370
25605WAT      O77056   6.661   2.442   6.961
25605WAT     H177057   6.696   2.532   6.988
25605WAT     H277058   6.563   2.437   6.980
25606WAT      O77059   4.233   6.875   2.203
25606WAT     H177060   4.262   6.951   2.260
25606WAT     H277061   4.202   6.909   2.114
25607WAT      O77062   3.186   4.820   2.858
25607WAT     H177063   3.188   4.734   2.807
25607WAT     H277064   3.253   4.817   2.932
25608WAT      O77065   1.327   2.964   6.946
25608WAT     H177066   1.272   2.941   7.027
25608WAT     H277067   1.283   2.927   6.864
25609WAT      O77068   1.880   4.918   2.123
25609WAT     H177069   1.858   4.953   2.214
25609WAT     H277070   1.836   4.829   2.109
25610WAT      O77071   2.466   4.703   3.924
25610WAT     H177072   2.520   4.640   3.868
25610WAT     H277073   2.386   4.655   3.960
25611WAT      O77074   9.297   5.361   1.285
25611WAT     H177075   9.273   5.448   1.241
25611WAT     H277076   9.378   5.323   1.241
25612WAT      O77077   8.616   0.715   8.995
25612WAT     H177078   8.675   0.721   9.076
25612WAT     H277079   8.584   0.807   8.970
25613WAT      O77080   3.360   2.827   0.282
25613WAT     H177081   3.416   2.902   0.246
25613WAT     H277082   3.266   2.836   0.249
25614WAT      O77083   7.066   7.357   8.554
25614WAT     H177084   6.996   7.295   8.589
25614WAT     H277085   7.033   7.451   8.557
25615WAT      O77086   2.150   2.665   5.728
25615WAT     H177087   2.232   2.635   5.777
25615WAT     H277088   2.118   2.752   5.765
25616WAT      O77089   7.289   8.689   7.149
25616WAT     H177090   7.284   8.590   7.142
25616WAT     H277091   7.377   8.717   7.187
25617WAT      O77092   3.844   0.132   1.605
25617WAT     H177093   3.920   0.090   1.655
25617WAT     H277094   3.768   0.067   1.599
25618WAT      O77095   6.737   1.985   4.098
25618WAT     H177096   6.758   1.945   4.187
25618WAT     H277097   6.638   1.982   4.083
25619WAT      O77098   7.886   6.699   2.676
25619WAT     H177099   7.873   6.652   2.589
25619WAT     H277100   7.927   6.635   2.742
25620WAT      O77101   3.935   0.906   0.869
25620WAT     H177102   3.885   0.862   0.944
25620WAT     H277103   3.886   0.894   0.783
25621WAT      O77104   1.441   9.031   6.350
25621WAT     H177105   1.525   9.015   6.402
25621WAT     H277106   1.405   8.944   6.317
25622WAT      O77107   6.250   2.639   8.254
25622WAT     H177108   6.349   2.655   8.256
25622WAT     H277109   6.214   2.640   8.348
25623WAT      O77110   4.808   1.503   7.861
25623WAT     H177111   4.782   1.555   7.780
25623WAT     H277112   4.830   1.565   7.936
25624WAT      O77113   0.393   3.027   1.607
25624WAT     H177114   0.478   3.060   1.649
25624WAT     H277115   0.315   3.068   1.654
25625WAT      O77116   0.226   9.079   9.794
25625WAT     H177117   0.155   9.069   9.864
25625WAT     H277118   0.270   9.168   9.804
25626WAT      O77119   7.370   3.622   5.901
25626WAT     H177120   7.453   3.643   5.848
25626WAT     H277121   7.382   3.657   5.994
25627WAT      O77122   3.581   8.253   5.270
25627WAT     H177123   3.605   8.193   5.346
25627WAT     H277124   3.576   8.347   5.303
25628WAT      O77125   5.211   9.032   0.222
25628WAT     H177126   5.151   9.046   0.144
25628WAT     H277127   5.172   9.077   0.303
25629WAT      O77128   4.761   5.406   6.418
25629WAT     H177129   4.691   5.477   6.408
25629WAT     H277130   4.820   5.406   6.338
25630WAT      O77131   5.601   4.694   7.568
25630WAT     H177132   5.626   4.782   7.607
25630WAT     H277133   5.604   4.699   7.468
25631WAT      O77134   0.932   7.399   2.032
25631WAT     H177135   0.933   7.352   1.943
25631WAT     H277136   1.026   7.416   2.061
25632WAT      O77137   6.387   6.385   1.067
25632WAT     H177138   6.384   6.484   1.053
25632WAT     H277139   6.468   6.347   1.022
25633WAT      O77140   4.468   6.215   2.333
25633WAT     H177141   4.547   6.257   2.289
25633WAT     H277142   4.493   6.186   2.426
25634WAT      O77143   4.046   4.342   8.373
25634WAT     H177144   4.078   4.287   8.450
25634WAT     H277145   4.091   4.313   8.289
25635WAT      O77146   4.936   7.061   8.975
25635WAT     H177147   4.842   7.095   8.974
25635WAT     H277148   4.936   6.962   8.968
25636WAT      O77149   0.679   0.330   9.358
25636WAT     H177150   0.675   0.388   9.439
25636WAT     H277151   0.697   0.386   9.277
25637WAT      O77152   6.329   6.910   2.943
25637WAT     H177153   6.343   6.913   3.042
25637WAT     H277154   6.363   6.995   2.902
25638WAT      O77155   7.538   1.602   7.082
25638WAT     H177156   7.572   1.613   6.989
25638WAT     H277157   7.612   1.620   7.147
25639WAT      O77158   7.903   6.849   9.095
25639WAT     H177159   7.946   6.772   9.141
25639WAT     H277160   7.823   6.879   9.148
25640WAT      O77161   5.888   5.681   9.315
25640WAT     H177162   5.869   5.622   9.236
25640WAT     H277163   5.979   5.660   9.350
25641WAT      O77164   8.208   2.903   0.821
25641WAT     H177165   8.151   2.983   0.803
25641WAT     H277166   8.291   2.931   0.869
25642WAT      O77167   3.070   9.306   0.272
25642WAT     H177168   3.130   9.278   0.347
25642WAT     H277169   3.035   9.225   0.225
25643WAT      O77170   5.911   5.592   7.503
25643WAT     H177171   5.857   5.533   7.562
25643WAT     H277172   5.991   5.542   7.470
25644WAT      O77173   9.110   4.341   4.410
25644WAT     H177174   9.203   4.306   4.399
25644WAT     H277175   9.112   4.441   4.405
25645WAT      O77176   2.435   2.371   2.066
25645WAT     H177177   2.477   2.462   2.065
25645WAT     H277178   2.363   2.367   1.997
25646WAT      O77179   8.732   5.686   6.757
25646WAT     H177180   8.711   5.745   6.835
25646WAT     H277181   8.806   5.726   6.704
25647WAT      O77182   9.277   0.826   0.019
25647WAT     H177183   9.301   0.911   0.066
25647WAT     H277184   9.212   0.774   0.074
25648WAT      O77185   1.367   4.875   6.589
25648WAT     H177186   1.336   4.820   6.512
25648WAT     H277187   1.370   4.818   6.672
25649WAT      O77188   7.063   7.122   9.244
25649WAT     H177189   7.059   7.163   9.336
25649WAT     H277190   7.104   7.031   9.251
25650WAT      O77191   9.425   2.451   7.877
25650WAT     H177192   9.501   2.511   7.852
25650WAT     H277193   9.424   2.438   7.976
25651WAT      O77194   9.408   9.595   5.961
25651WAT     H177195   9.399   9.616   5.864
25651WAT     H277196   9.469   9.517   5.973
25652WAT      O77197   5.611   4.632   7.283
25652WAT     H177198   5.524   4.667   7.318
25652WAT     H277199   5.647   4.696   7.214
25653WAT      O77200   9.583   7.864   4.356
25653WAT     H177201   9.682   7.856   4.357
25653WAT     H277202   9.548   7.839   4.266
25654WAT      O77203   2.860   8.745   9.402
25654WAT     H177204   2.828   8.659   9.364
25654WAT     H277205   2.808   8.766   9.486
25655WAT      O77206   7.238   2.696   4.023
25655WAT     H177207   7.253   2.757   4.101
25655WAT     H277208   7.243   2.749   3.938
25656WAT      O77209   1.254   6.967   3.399
25656WAT     H177210   1.336   6.950   3.452
25656WAT     H277211   1.260   6.919   3.311
25657WAT      O77212   4.369   8.933   0.456
25657WAT     H177213   4.359   8.873   0.535
25657WAT     H277214   4.316   8.896   0.380
25658WAT      O77215   6.309   4.464   3.474
25658WAT     H177216   6.234   4.528   3.488
25658WAT     H277217   6.328   4.454   3.377
25659WAT      O77218   4.888   4.700   2.515
25659WAT     H177219   4.890   4.719   2.417
25659WAT     H277220   4.828   4.621   2.532
25660WAT      O77221   1.666   2.970   3.195
25660WAT     H177222   1.649   2.880   3.235
25660WAT     H277223   1.759   2.999   3.217
25661WAT      O77224   5.542   8.570   6.290
25661WAT     H177225   5.461   8.514   6.276
25661WAT     H277226   5.533   8.655   6.239
25662WAT      O77227   6.549   6.764   3.977
25662WAT     H177228   6.612   6.764   4.055
25662WAT     H277229   6.591   6.812   3.900
25663WAT      O77230   5.262   7.015   2.935
25663WAT     H177231   5.180   6.976   2.977
25663WAT     H277232   5.307   7.075   3.001
25664WAT      O77233   6.507   3.816   0.394
25664WAT     H177234   6.409   3.836   0.400
25664WAT     H277235   6.535   3.763   0.474
25665WAT      O77236   5.477   7.269   8.158
25665WAT     H177237   5.423   7.354   8.160
25665WAT     H277238   5.487   7.238   8.063
25666WAT      O77239   1.606   4.895   3.256
25666WAT     H177240   1.666   4.937   3.187
25666WAT     H277241   1.634   4.926   3.347
25667WAT      O77242   4.404   4.707   3.533
25667WAT     H177243   4.459   4.623   3.533
25667WAT     H277244   4.419   4.756   3.620
25668WAT      O77245   5.949   0.715   1.484
25668WAT     H177246   5.935   0.667   1.571
25668WAT     H277247   6.043   0.747   1.479
25669WAT      O77248   0.648   1.886   9.838
25669WAT     H177249   0.641   1.927   9.747
25669WAT     H277250   0.573   1.920   9.895
25670WAT      O77251   9.741   0.257   0.960
25670WAT     H177252   9.833   0.258   0.920
25670WAT     H277253   9.724   0.168   1.001
25671WAT      O77254   4.118   6.448   6.457
25671WAT     H177255   4.095   6.378   6.389
25671WAT     H277256   4.177   6.409   6.526
25672WAT      O77257   5.071   5.677   0.947
25672WAT     H177258   5.030   5.688   1.037
25672WAT     H277259   5.105   5.765   0.915
25673WAT      O77260   3.682   1.956   4.203
25673WAT     H177261   3.706   1.964   4.106
25673WAT     H277262   3.756   1.910   4.252
25674WAT      O77263   3.160   2.226   8.189
25674WAT     H177264   3.062   2.236   8.206
25674WAT     H277265   3.189   2.295   8.122
25675WAT      O77266   5.742   2.854   9.441
25675WAT     H177267   5.718   2.899   9.354
25675WAT     H277268   5.812   2.785   9.424
25676WAT      O77269   3.473   5.257   3.875
25676WAT     H177270   3.545   5.312   3.833
25676WAT     H277271   3.404   5.318   3.916
25677WAT      O77272   8.545   9.755   1.872
25677WAT     H177273   8.574   9.808   1.792
25677WAT     H277274   8.459   9.791   1.907
25678WAT      O77275   8.555   5.661   3.753
25678WAT     H177276   8.636   5.718   3.741
25678WAT     H277277   8.506   5.690   3.836
25679WAT      O77278   8.160   7.572   5.945
25679WAT     H177279   8.255   7.570   5.976
25679WAT     H277280   8.103   7.614   6.015
25680WAT      O77281   9.157   4.487   6.663
25680WAT     H177282   9.220   4.508   6.588
25680WAT     H277283   9.200   4.422   6.726
25681WAT      O77284   2.390   1.313   1.166
25681WAT     H177285   2.429   1.362   1.088
25681WAT     H277286   2.290   1.315   1.159
25682WAT      O77287   2.211   5.885   5.856
25682WAT     H177288   2.258   5.859   5.940
25682WAT     H277289   2.189   5.983   5.859
25683WAT      O77290   3.630   1.709   0.270
25683WAT     H177291   3.531   1.695   0.265
25683WAT     H277292   3.663   1.744   0.182
25684WAT      O77293   1.644   3.435   4.516
25684WAT     H177294   1.625   3.395   4.605
25684WAT     H277295   1.715   3.505   4.525
25685WAT      O77296   7.291   3.717   3.425
25685WAT     H177297   7.317   3.783   3.354
25685WAT     H277298   7.198   3.735   3.455
25686WAT      O77299   4.294   6.247   3.232
25686WAT     H177300   4.317   6.269   3.327
25686WAT     H277301   4.357   6.177   3.198
25687WAT      O77302   1.723   2.692   3.175
25687WAT     H177303   1.690   2.612   3.224
25687WAT     H277304   1.665   2.708   3.095
25688WAT      O77305   6.204   9.127   0.168
25688WAT     H177306   6.240   9.143   0.076
25688WAT     H277307   6.277   9.141   0.235
25689WAT      O77308   1.600   1.276   0.069
25689WAT     H177309   1.696   1.248   0.059
25689WAT     H277310   1.596   1.370   0.103
25690WAT      O77311   0.948   3.206   0.087
25690WAT     H177312   1.017   3.239   0.022
25690WAT     H277313   0.869   3.267   0.086
25691WAT      O77314   0.448   8.358   8.272
25691WAT     H177315   0.430   8.296   8.196
25691WAT     H277316   0.538   8.400   8.261
25692WAT      O77317   9.452   2.627   2.130
25692WAT     H177318   9.428   2.535   2.101
25692WAT     H277319   9.425   2.693   2.059
25693WAT      O77320   6.030   4.526   0.115
25693WAT     H177321   5.974   4.535   0.197
25693WAT     H277322   6.089   4.606   0.105
25694WAT      O77323   2.619   6.372   2.331
25694WAT     H177324   2.605   6.330   2.242
25694WAT     H277325   2.695   6.327   2.377
25695WAT      O77326   3.319   9.821   1.883
25695WAT     H177327   3.415   9.795   1.897
25695WAT     H277328   3.262   9.773   1.949
25696WAT      O77329   2.130   9.686   5.231
25696WAT     H177330   2.068   9.703   5.308
25696WAT     H277331   2.162   9.773   5.195
25697WAT      O77332   3.590   1.701   9.576
25697WAT     H177333   3.608   1.789   9.533
25697WAT     H277334   3.501   1.705   9.622
25698WAT      O77335   9.408   2.466   3.598
25698WAT     H177336   9.351   2.524   3.540
25698WAT     H277337   9.360   2.446   3.683
25699WAT      O77338   9.529   5.402   7.331
25699WAT     H177339   9.482   5.405   7.243
25699WAT     H277340   9.526   5.309   7.367
25700WAT      O77341   7.853   2.848   1.810
25700WAT     H177342   7.941   2.843   1.763
25700WAT     H277343   7.856   2.793   1.893
25701WAT      O77344   6.319   5.203   0.997
25701WAT     H177345   6.268   5.143   1.059
25701WAT     H277346   6.350   5.284   1.047
25702WAT      O77347   4.379   8.925   9.714
25702WAT     H177348   4.348   9.016   9.687
25702WAT     H277349   4.391   8.868   9.633
25703WAT      O77350   7.120   3.612   9.235
25703WAT     H177351   7.130   3.709   9.258
25703WAT     H277352   7.030   3.580   9.265
25704WAT      O77353   8.665   0.679   8.485
25704WAT     H177354   8.756   0.652   8.515
25704WAT     H277355   8.638   0.623   8.406
25705WAT      O77356   1.428   5.804   6.145
25705WAT     H177357   1.376   5.835   6.225
25705WAT     H277358   1.377   5.826   6.062
25706WAT      O77359   0.557   0.635   1.788
25706WAT     H177360   0.549   0.695   1.867
25706WAT     H277361   0.653   0.615   1.770
25707WAT      O77362   6.964   2.878   7.943
25707WAT     H177363   6.937   2.910   8.033
25707WAT     H277364   7.057   2.910   7.923
25708WAT      O77365   5.022   7.581   8.727
25708WAT     H177366   4.930   7.583   8.765
25708WAT     H277367   5.030   7.652   8.656
25709WAT      O77368   0.641   6.223   5.905
25709WAT     H177369   0.686   6.135   5.891
25709WAT     H277370   0.542   6.211   5.899
25710WAT      O77371   6.012   2.710   4.486
25710WAT     H177372   6.048   2.752   4.403
25710WAT     H277373   6.083   2.656   4.530
25711WAT      O77374   4.620   8.762   1.763
25711WAT     H177375   4.683   8.697   1.720
25711WAT     H277376   4.532   8.717   1.779
25712WAT      O77377   5.317   8.233   0.295
25712WAT     H177378   5.288   8.253   0.388
25712WAT     H277379   5.247   8.178   0.249
25713WAT      O77380   5.453   4.166   9.857
25713WAT     H177381   5.426   4.229   9.929
25713WAT     H277382   5.412   4.194   9.770
25714WAT      O77383   1.726   7.231   5.202
25714WAT     H177384   1.775   7.212   5.117
25714WAT     H277385   1.757   7.168   5.273
25715WAT      O77386   1.469   4.632   4.887
25715WAT     H177387   1.533   4.565   4.851
25715WAT     H277388   1.399   4.652   4.818
25716WAT      O77389   9.136   0.387   3.068
25716WAT     H177390   9.228   0.353   3.046
25716WAT     H277391   9.099   0.436   2.989
25717WAT      O77392   2.295   5.312   1.674
25717WAT     H177393   2.360   5.246   1.713
25717WAT     H277394   2.321   5.331   1.579
25718WAT      O77395   4.224   4.309   1.987
25718WAT     H177396   4.277   4.308   2.071
25718WAT     H277397   4.262   4.243   1.923
25719WAT      O77398   5.962   1.824   1.337
25719WAT     H177399   5.894   1.772   1.286
25719WAT     H277400   6.045   1.834   1.282
25720WAT      O77401   3.099   6.210   9.358
25720WAT     H177402   3.009   6.244   9.385
25720WAT     H277403   3.139   6.271   9.289
25721WAT      O77404   0.824   4.001   9.533
25721WAT     H177405   0.904   4.047   9.571
25721WAT     H277406   0.774   4.065   9.474
25722WAT      O77407   4.287   0.972   4.770
25722WAT     H177408   4.274   0.934   4.679
25722WAT     H277409   4.244   0.911   4.838
25723WAT      O77410   0.596   5.851   8.428
25723WAT     H177411   0.539   5.806   8.358
25723WAT     H277412   0.579   5.949   8.426
25724WAT      O77413   3.623   3.197   4.292
25724WAT     H177414   3.628   3.286   4.247
25724WAT     H277415   3.612   3.125   4.223
25725WAT      O77416   3.015   4.632   2.151
25725WAT     H177417   2.937   4.584   2.110
25725WAT     H277418   3.081   4.565   2.184
25726WAT      O77419   7.329   9.250   4.693
25726WAT     H177420   7.391   9.185   4.650
25726WAT     H277421   7.238   9.209   4.702
25727WAT      O77422   7.535   2.584   3.890
25727WAT     H177423   7.509   2.679   3.903
25727WAT     H277424   7.464   2.535   3.839
25728WAT      O77425   1.557   6.530   1.252
25728WAT     H177426   1.657   6.529   1.259
25728WAT     H277427   1.529   6.601   1.187
25729WAT      O77428   4.738   6.244   0.642
25729WAT     H177429   4.809   6.303   0.680
25729WAT     H277430   4.685   6.203   0.716
25730WAT      O77431   0.791   9.493   1.537
25730WAT     H177432   0.769   9.587   1.509
25730WAT     H277433   0.719   9.459   1.597
25731WAT      O77434   9.134   1.546   3.622
25731WAT     H177435   9.159   1.570   3.716
25731WAT     H277436   9.119   1.629   3.569
25732WAT      O77437   9.367   0.323   8.029
25732WAT     H177438   9.425   0.331   8.109
25732WAT     H277439   9.418   0.277   7.956
25733WAT      O77440   5.778   6.564   5.743
25733WAT     H177441   5.865   6.519   5.762
25733WAT     H277442   5.741   6.604   5.827
25734WAT      O77443   6.189   1.727   3.178
25734WAT     H177444   6.267   1.669   3.155
25734WAT     H277445   6.110   1.668   3.199
25735WAT      O77446   6.318   3.258   2.036
25735WAT     H177447   6.324   3.333   2.102
25735WAT     H277448   6.235   3.206   2.053
25736WAT      O77449   7.390   8.942   4.689
25736WAT     H177450   7.457   9.006   4.726
25736WAT     H277451   7.436   8.859   4.659
25737WAT      O77452   5.401   1.073   1.690
25737WAT     H177453   5.339   1.009   1.646
25737WAT     H277454   5.388   1.069   1.789
25738WAT      O77455   2.098   8.604   2.487
25738WAT     H177456   2.108   8.557   2.399
25738WAT     H277457   2.004   8.593   2.520
25739WAT      O77458   6.749   0.393   6.432
25739WAT     H177459   6.765   0.422   6.338
25739WAT     H277460   6.683   0.454   6.475
25740WAT      O77461   8.888   6.372   3.936
25740WAT     H177462   8.943   6.372   3.852
25740WAT     H277463   8.935   6.320   4.007
25741WAT      O77464   2.514   5.854   4.405
25741WAT     H177465   2.560   5.891   4.486
25741WAT     H277466   2.415   5.852   4.420
25742WAT      O77467   1.534   0.721   2.464
25742WAT     H177468   1.623   0.714   2.417
25742WAT     H277469   1.471   0.655   2.425
25743WAT      O77470   4.570   0.739   3.799
25743WAT     H177471   4.570   0.800   3.720
25743WAT     H277472   4.656   0.748   3.848
25744WAT      O77473   0.561   0.179   7.795
25744WAT     H177474   0.534   0.084   7.813
25744WAT     H277475   0.564   0.230   7.881
25745WAT      O77476   9.543   0.385   7.486
25745WAT     H177477   9.445   0.398   7.498
25745WAT     H277478   9.584   0.469   7.452
25746WAT      O77479   6.332   0.748   1.192
25746WAT     H177480   6.374   0.705   1.271
25746WAT     H277481   6.401   0.797   1.139
25747WAT      O77482   1.165   2.580   8.850
25747WAT     H177483   1.263   2.571   8.871
25747WAT     H277484   1.112   2.569   8.933
25748WAT      O77485   5.990   5.696   1.752
25748WAT     H177486   6.065   5.752   1.785
25748WAT     H277487   6.025   5.609   1.718
25749WAT      O77488   8.448   2.489   6.152
25749WAT     H177489   8.467   2.400   6.193
25749WAT     H277490   8.427   2.555   6.224
25750WAT      O77491   7.011   8.449   5.667
25750WAT     H177492   7.061   8.518   5.720
25750WAT     H277493   7.000   8.366   5.720
25751WAT      O77494   1.595   4.289   7.396
25751WAT     H177495   1.581   4.219   7.326
25751WAT     H277496   1.523   4.281   7.466
25752WAT      O77497   8.046   2.012   0.191
25752WAT     H177498   8.090   2.101   0.204
25752WAT     H277499   8.102   1.955   0.131
25753WAT      O77500   7.062   8.235   0.450
25753WAT     H177501   7.030   8.146   0.481
25753WAT     H277502   6.995   8.305   0.473
25754WAT      O77503   1.384   3.137   6.198
25754WAT     H177504   1.445   3.080   6.253
25754WAT     H277505   1.303   3.085   6.172
25755WAT      O77506   7.649   5.200   6.601
25755WAT     H177507   7.695   5.256   6.532
25755WAT     H277508   7.612   5.118   6.558
25756WAT      O77509   2.603   2.175   2.171
25756WAT     H177510   2.533   2.246   2.160
25756WAT     H277511   2.623   2.135   2.082
25757WAT      O77512   5.296   4.534   9.776
25757WAT     H177513   5.239   4.453   9.794
25757WAT     H277514   5.268   4.575   9.690
25758WAT      O77515   1.665   5.898   5.804
25758WAT     H177516   1.650   5.946   5.891
25758WAT     H277517   1.747   5.934   5.760
25759WAT      O77518   8.372   7.282   4.886
25759WAT     H177519   8.301   7.214   4.904
25759WAT     H277520   8.438   7.246   4.821
25760WAT      O77521   4.670   8.852   0.228
25760WAT     H177522   4.623   8.845   0.316
25760WAT     H277523   4.729   8.933   0.227
25761WAT      O77524   4.776   3.775   3.771
25761WAT     H177525   4.763   3.813   3.679
25761WAT     H277526   4.772   3.675   3.767
25762WAT      O77527   4.972   0.893   4.683
25762WAT     H177528   5.005   0.923   4.594
25762WAT     H277529   4.937   0.971   4.734
25763WAT      O77530   0.378   4.840   3.738
25763WAT     H177531   0.300   4.805   3.791
25763WAT     H277532   0.433   4.764   3.705
25764WAT      O77533   7.537   6.700   3.660
25764WAT     H177534   7.455   6.686   3.605
25764WAT     H277535   7.594   6.618   3.657
25765WAT      O77536   1.987   8.760   4.626
25765WAT     H177537   2.056   8.695   4.659
25765WAT     H277538   1.980   8.837   4.689
25766WAT      O77539   8.913   5.021   5.586
25766WAT     H177540   8.939   4.934   5.545
25766WAT     H277541   8.981   5.091   5.562
25767WAT      O77542   5.555   2.727   6.885
25767WAT     H177543   5.534   2.717   6.788
25767WAT     H277544   5.470   2.728   6.938
25768WAT      O77545   5.553   3.173   6.820
25768WAT     H177546   5.653   3.178   6.816
25768WAT     H277547   5.516   3.266   6.824
25769WAT      O77548   4.903   0.326   3.018
25769WAT     H177549   4.944   0.300   3.105
25769WAT     H277550   4.805   0.339   3.030
25770WAT      O77551   6.605   9.115   3.736
25770WAT     H177552   6.585   9.061   3.654
25770WAT     H277553   6.688   9.080   3.779
25771WAT      O77554   2.098   3.817   6.177
25771WAT     H177555   2.084   3.722   6.203
25771WAT     H277556   2.058   3.833   6.087
25772WAT      O77557   9.317   1.437   0.085
25772WAT     H177558   9.227   1.473   0.059
25772WAT     H277559   9.388   1.503   0.059
25773WAT      O77560   2.200   4.271   0.477
25773WAT     H177561   2.127   4.207   0.500
25773WAT     H277562   2.289   4.230   0.497
25774WAT      O77563   3.173   7.870   5.714
25774WAT     H177564   3.134   7.811   5.644
25774WAT     H277565   3.233   7.817   5.774
25775WAT      O77566   9.809   0.938   8.456
25775WAT     H177567   9.902   0.960   8.485
25775WAT     H277568   9.805   0.936   8.356
25776WAT      O77569   1.978   1.973   0.778
25776WAT     H177570   2.011   2.066   0.762
25776WAT     H277571   1.980   1.922   0.692
25777WAT      O77572   3.461   6.200   1.074
25777WAT     H177573   3.478   6.160   0.984
25777WAT     H277574   3.378   6.254   1.072
25778WAT      O77575   5.597   9.410   8.711
25778WAT     H177576   5.502   9.440   8.705
25778WAT     H277577   5.643   9.462   8.783
25779WAT      O77578   0.333   4.765   3.119
25779WAT     H177579   0.370   4.842   3.171
25779WAT     H277580   0.270   4.798   3.049
25780WAT      O77581   1.861   2.738   4.677
25780WAT     H177582   1.818   2.667   4.620
25780WAT     H277583   1.958   2.744   4.656
25781WAT      O77584   9.397   0.362   2.997
25781WAT     H177585   9.475   0.301   2.985
25781WAT     H277586   9.422   0.454   2.969
25782WAT      O77587   7.210   7.122   4.366
25782WAT     H177588   7.142   7.111   4.293
25782WAT     H277589   7.292   7.165   4.329
25783WAT      O77590   3.466   3.721   1.342
25783WAT     H177591   3.508   3.636   1.374
25783WAT     H277592   3.426   3.769   1.420
25784WAT      O77593   7.249   4.589   7.326
25784WAT     H177594   7.196   4.572   7.242
25784WAT     H277595   7.203   4.544   7.403
25785WAT      O77596   7.653   2.430   5.869
25785WAT     H177597   7.554   2.429   5.851
25785WAT     H277598   7.701   2.398   5.787
25786WAT      O77599   7.442   5.592   7.769
25786WAT     H177600   7.381   5.641   7.707
25786WAT     H277601   7.395   5.573   7.855
25787WAT      O77602   3.943   9.569   4.398
25787WAT     H177603   3.859   9.621   4.409
25787WAT     H277604   3.973   9.574   4.302
25788WAT      O77605   7.809   4.173   3.747
25788WAT     H177606   7.829   4.161   3.844
25788WAT     H277607   7.751   4.098   3.715
25789WAT      O77608   5.397   1.656   7.385
25789WAT     H177609   5.470   1.630   7.321
25789WAT     H277610   5.414   1.614   7.474
25790WAT      O77611   1.844   7.649   8.274
25790WAT     H177612   1.817   7.553   8.272
25790WAT     H277613   1.881   7.676   8.185
25791WAT      O77614   8.914   3.897   0.339
25791WAT     H177615   8.933   3.840   0.419
25791WAT     H277616   8.815   3.914   0.333
25792WAT      O77617   1.082   5.160   1.937
25792WAT     H177618   1.039   5.211   2.011
25792WAT     H277619   1.181   5.167   1.944
25793WAT      O77620   1.889   2.890   6.159
25793WAT     H177621   1.834   2.824   6.211
25793WAT     H277622   1.837   2.974   6.145
25794WAT      O77623   7.499   4.921   6.435
25794WAT     H177624   7.572   4.860   6.406
25794WAT     H277625   7.494   4.922   6.535
25795WAT      O77626   0.057   4.941   7.321
25795WAT     H177627  -0.025   4.891   7.348
25795WAT     H277628   0.110   4.886   7.256
25796WAT      O77629   1.464   8.217   9.196
25796WAT     H177630   1.409   8.181   9.271
25796WAT     H277631   1.414   8.292   9.152
25797WAT      O77632   4.644   1.279   2.176
25797WAT     H177633   4.545   1.269   2.178
25797WAT     H277634   4.687   1.190   2.188
25798WAT      O77635   9.193   8.679   5.685
25798WAT     H177636   9.185   8.746   5.610
25798WAT     H277637   9.114   8.688   5.745
25799WAT      O77638   3.889   0.283   0.294
25799WAT     H177639   3.967   0.283   0.232
25799WAT     H277640   3.920   0.269   0.388
25800WAT      O77641   8.638   7.197   5.700
25800WAT     H177642   8.637   7.111   5.751
25800WAT     H277643   8.555   7.249   5.721
25801WAT      O77644   8.934   6.874   3.767
25801WAT     H177645   8.860   6.910   3.709
25801WAT     H277646   8.966   6.787   3.730
25802WAT      O77647   3.323   6.422   7.066
25802WAT     H177648   3.402   6.374   7.105
25802WAT     H277649   3.349   6.517   7.045
25803WAT      O77650   9.236   0.986   7.566
25803WAT     H177651   9.232   1.070   7.619
25803WAT     H277652   9.198   1.001   7.475
25804WAT      O77653   1.023   2.934   9.507
25804WAT     H177654   0.933   2.933   9.464
25804WAT     H277655   1.058   2.841   9.515
25805WAT      O77656   1.673   5.127   2.052
25805WAT     H177657   1.674   5.033   2.019
25805WAT     H277658   1.709   5.130   2.145
25806WAT      O77659   6.387   1.887   8.624
25806WAT     H177660   6.429   1.851   8.540
25806WAT     H277661   6.315   1.953   8.601
25807WAT      O77662   0.857   8.444   7.743
25807WAT     H177663   0.822   8.411   7.831
25807WAT     H277664   0.851   8.543   7.740
25808WAT      O77665   9.397   3.991   8.308
25808WAT     H177666   9.380   4.041   8.394
25808WAT     H277667   9.442   3.904   8.329
25809WAT      O77668   4.879   4.957   7.028
25809WAT     H177669   4.975   4.950   7.003
25809WAT     H277670   4.822   4.931   6.951
25810WAT      O77671   2.355   8.010   8.776
25810WAT     H177672   2.415   7.990   8.698
25810WAT     H277673   2.292   8.084   8.752
25811WAT      O77674   1.002   7.077   7.256
25811WAT     H177675   1.066   7.001   7.264
25811WAT     H277676   0.911   7.048   7.283
25812WAT      O77677   5.246   0.684   7.716
25812WAT     H177678   5.277   0.774   7.686
25812WAT     H277679   5.253   0.619   7.641
25813WAT      O77680   9.522   9.039   7.233
25813WAT     H177681   9.449   9.042   7.300
25813WAT     H277682   9.483   9.039   7.141
25814WAT      O77683   1.244   8.854   1.423
25814WAT     H177684   1.284   8.762   1.425
25814WAT     H277685   1.170   8.859   1.490
25815WAT      O77686   1.491   0.632   1.988
25815WAT     H177687   1.465   0.537   1.971
25815WAT     H277688   1.420   0.676   2.044
25816WAT      O77689   0.281   7.304   7.237
25816WAT     H177690   0.193   7.296   7.282
25816WAT     H277691   0.338   7.225   7.260
25817WAT      O77692   4.280   8.120   4.833
25817WAT     H177693   4.228   8.059   4.773
25817WAT     H277694   4.365   8.075   4.862
25818WAT      O77695   9.012   7.030   6.864
25818WAT     H177696   8.950   6.960   6.828
25818WAT     H277697   9.021   7.105   6.798
25819WAT      O77698   3.626   4.997   0.506
25819WAT     H177699   3.648   4.991   0.603
25819WAT     H277700   3.528   4.982   0.493
25820WAT      O77701   7.400   0.901   1.187
25820WAT     H177702   7.422   0.824   1.129
25820WAT     H277703   7.477   0.966   1.187
25821WAT      O77704   7.744   4.006   4.780
25821WAT     H177705   7.837   4.023   4.746
25821WAT     H277706   7.681   4.072   4.738
25822WAT      O77707   4.199   4.480   4.164
25822WAT     H177708   4.226   4.536   4.243
25822WAT     H277709   4.169   4.390   4.196
25823WAT      O77710   3.588   3.569   1.049
25823WAT     H177711   3.650   3.537   1.120
25823WAT     H277712   3.510   3.617   1.091
25824WAT      O77713   8.031   5.935   7.746
25824WAT     H177714   8.036   5.887   7.834
25824WAT     H277715   8.072   6.026   7.756
25825WAT      O77716   0.260   4.640   4.771
25825WAT     H177717   0.319   4.668   4.695
25825WAT     H277718   0.291   4.682   4.855
25826WAT      O77719   2.559   4.001   4.384
25826WAT     H177720   2.621   3.961   4.318
25826WAT     H277721   2.610   4.026   4.467
25827WAT      O77722   8.260   5.683   8.453
25827WAT     H177723   8.177   5.728   8.420
25827WAT     H277724   8.276   5.599   8.401
25828WAT      O77725   5.844   7.488   3.189
25828WAT     H177726   5.849   7.464   3.286
25828WAT     H277727   5.854   7.587   3.178
25829WAT      O77728   5.081   5.849   3.624
25829WAT     H177729   5.029   5.827   3.542
25829WAT     H277730   5.157   5.785   3.634
25830WAT      O77731   5.754   4.019   9.513
25830WAT     H177732   5.717   3.926   9.520
25830WAT     H277733   5.853   4.016   9.523
25831WAT      O77734   9.770   4.839   3.992
25831WAT     H177735   9.802   4.775   3.922
25831WAT     H277736   9.670   4.849   3.984
25832WAT      O77737   7.767   4.742   6.587
25832WAT     H177738   7.785   4.695   6.500
25832WAT     H277739   7.846   4.800   6.610
25833WAT      O77740   3.698   7.476   8.276
25833WAT     H177741   3.641   7.402   8.241
25833WAT     H277742   3.788   7.472   8.233
25834WAT      O77743   0.388   1.269   5.369
25834WAT     H177744   0.446   1.227   5.439
25834WAT     H277745   0.397   1.218   5.283
25835WAT      O77746   4.150   4.005   0.204
25835WAT     H177747   4.063   4.003   0.153
25835WAT     H277748   4.221   4.046   0.147
25836WAT      O77749   8.786   1.582   0.775
25836WAT     H177750   8.859   1.519   0.750
25836WAT     H277751   8.819   1.645   0.845
25837WAT      O77752   7.110   3.606   0.402
25837WAT     H177753   7.146   3.544   0.333
25837WAT     H277754   7.175   3.614   0.478
25838WAT      O77755   5.621   0.686   6.556
25838WAT     H177756   5.548   0.647   6.611
25838WAT     H277757   5.606   0.784   6.545
25839WAT      O77758   4.786   6.944   2.985
25839WAT     H177759   4.768   6.947   3.083
25839WAT     H277760   4.762   6.854   2.949
25840WAT      O77761   9.346   2.352   8.705
25840WAT     H177762   9.446   2.344   8.698
25840WAT     H277763   9.323   2.392   8.794
25841WAT      O77764   0.422   4.820   7.406
25841WAT     H177765   0.349   4.770   7.453
25841WAT     H277766   0.388   4.855   7.319
25842WAT      O77767   3.404   5.060   2.486
25842WAT     H177768   3.402   4.962   2.504
25842WAT     H277769   3.379   5.078   2.391
25843WAT      O77770   5.071   2.468   2.356
25843WAT     H177771   5.004   2.516   2.299
25843WAT     H277772   5.163   2.486   2.321
25844WAT      O77773   0.625   1.071   7.201
25844WAT     H177774   0.625   1.047   7.104
25844WAT     H277775   0.620   1.170   7.211
25845WAT      O77776   0.018   3.329   8.663
25845WAT     H177777   0.062   3.342   8.574
25845WAT     H277778   0.020   3.232   8.687
25846WAT      O77779   1.534   5.431   9.263
25846WAT     H177780   1.475   5.403   9.187
25846WAT     H277781   1.558   5.528   9.252
25847WAT      O77782   7.997   7.477   8.231
25847WAT     H177783   8.025   7.486   8.327
25847WAT     H277784   7.936   7.553   8.207
25848WAT      O77785   2.968   3.383   3.469
25848WAT     H177786   2.886   3.371   3.413
25848WAT     H277787   2.947   3.440   3.548
25849WAT      O77788   6.982   7.681   4.510
25849WAT     H177789   6.978   7.618   4.432
25849WAT     H277790   6.889   7.694   4.546
25850WAT      O77791   6.405   6.155   0.196
25850WAT     H177792   6.371   6.073   0.242
25850WAT     H277793   6.337   6.228   0.202
25851WAT      O77794   9.839   5.861   2.073
25851WAT     H177795   9.755   5.808   2.082
25851WAT     H277796   9.821   5.957   2.095
25852WAT      O77797   4.000   2.219   7.767
25852WAT     H177798   3.958   2.131   7.747
25852WAT     H277799   3.944   2.292   7.729
25853WAT      O77800   6.121   2.846   0.594
25853WAT     H177801   6.112   2.874   0.690
25853WAT     H277802   6.201   2.787   0.585
25854WAT      O77803   5.235   0.535   1.511
25854WAT     H177804   5.289   0.617   1.492
25854WAT     H277805   5.211   0.532   1.608
25855WAT      O77806   2.198   6.902   4.045
25855WAT     H177807   2.105   6.939   4.042
25855WAT     H277808   2.234   6.895   3.952
25856WAT      O77809   9.872   5.845   3.469
25856WAT     H177810   9.898   5.902   3.391
25856WAT     H277811   9.931   5.764   3.473
25857WAT      O77812   0.505   8.092   0.051
25857WAT     H177813   0.410   8.070   0.073
25857WAT     H277814   0.539   8.027  -0.016
25858WAT      O77815   7.009   6.954   1.028
25858WAT     H177816   7.018   6.889   1.103
25858WAT     H277817   7.098   6.966   0.983
25859WAT      O77818   8.608   5.773   1.359
25859WAT     H177819   8.553   5.847   1.319
25859WAT     H277820   8.643   5.714   1.286
25860WAT      O77821   5.527   9.748   0.297
25860WAT     H177822   5.616   9.765   0.338
25860WAT     H277823   5.455   9.783   0.358
25861WAT      O77824   1.852   0.522   6.202
25861WAT     H177825   1.914   0.488   6.273
25861WAT     H277826   1.774   0.568   6.244
25862WAT      O77827   8.720   0.441   3.344
25862WAT     H177828   8.749   0.375   3.275
25862WAT     H277829   8.666   0.394   3.414
25863WAT      O77830   4.157   5.288   7.770
25863WAT     H177831   4.065   5.325   7.782
25863WAT     H277832   4.152   5.189   7.756
25864WAT      O77833   6.427   7.082   2.730
25864WAT     H177834   6.390   7.175   2.730
25864WAT     H277835   6.527   7.086   2.731
25865WAT      O77836   3.219   7.918   3.126
25865WAT     H177837   3.304   7.928   3.074
25865WAT     H277838   3.236   7.861   3.206
25866WAT      O77839   8.088   1.173   2.374
25866WAT     H177840   8.120   1.142   2.463
25866WAT     H277841   8.102   1.101   2.306
25867WAT      O77842   7.839   6.336   9.071
25867WAT     H177843   7.932   6.314   9.041
25867WAT     H277844   7.843   6.376   9.163
25868WAT      O77845   6.697   5.528   7.069
25868WAT     H177846   6.731   5.622   7.060
25868WAT     H277847   6.774   5.464   7.059
25869WAT      O77848   2.820   6.295   0.615
25869WAT     H177849   2.864   6.236   0.683
25869WAT     H277850   2.868   6.383   0.612
25870WAT      O77851   1.423   2.228   5.010
25870WAT     H177852   1.480   2.172   4.950
25870WAT     H277853   1.469   2.316   5.026
25871WAT      O77854   6.179   2.881   1.172
25871WAT     H177855   6.241   2.802   1.170
25871WAT     H277856   6.166   2.916   1.079
25872WAT      O77857   6.518   8.978   4.389
25872WAT     H177858   6.505   8.888   4.346
25872WAT     H277859   6.614   9.004   4.383
25873WAT      O77860   2.799   1.796   0.932
25873WAT     H177861   2.816   1.852   0.851
25873WAT     H277862   2.884   1.784   0.983
25874WAT      O77863   4.791   7.242   7.065
25874WAT     H177864   4.831   7.157   7.098
25874WAT     H277865   4.702   7.224   7.024
25875WAT      O77866   3.463   3.947   7.389
25875WAT     H177867   3.376   3.960   7.435
25875WAT     H277868   3.494   3.852   7.401
25876WAT      O77869   6.096   8.816   5.312
25876WAT     H177870   6.102   8.909   5.275
25876WAT     H277871   6.032   8.815   5.389
25877WAT      O77872   7.975   1.739   5.624
25877WAT     H177873   7.980   1.700   5.716
25877WAT     H277874   8.061   1.785   5.602
25878WAT      O77875   1.466   5.877   9.600
25878WAT     H177876   1.444   5.819   9.679
25878WAT     H277877   1.441   5.972   9.621
25879WAT      O77878   5.916   0.171   3.743
25879WAT     H177879   5.908   0.266   3.773
25879WAT     H277880   5.942   0.113   3.821
25880WAT      O77881   3.723   6.593   2.253
25880WAT     H177882   3.812   6.551   2.235
25880WAT     H277883   3.650   6.536   2.215
25881WAT      O77884   1.190   3.631   2.228
25881WAT     H177885   1.284   3.613   2.199
25881WAT     H277886   1.180   3.614   2.326
25882WAT      O77887   4.310   3.834   7.104
25882WAT     H177888   4.334   3.931   7.106
25882WAT     H277889   4.304   3.799   7.197
25883WAT      O77890   0.359   1.524   0.529
25883WAT     H177891   0.454   1.512   0.555
25883WAT     H277892   0.348   1.500   0.432
25884WAT      O77893   8.503   5.509   2.218
25884WAT     H177894   8.476   5.599   2.252
25884WAT     H277895   8.521   5.515   2.120
25885WAT      O77896   8.691   8.092   1.721
25885WAT     H177897   8.721   8.184   1.698
25885WAT     H277898   8.607   8.096   1.774
25886WAT      O77899   7.544   4.522   2.200
25886WAT     H177900   7.619   4.582   2.173
25886WAT     H277901   7.558   4.492   2.294
25887WAT      O77902   1.224   1.148   0.209
25887WAT     H177903   1.137   1.194   0.191
25887WAT     H277904   1.246   1.156   0.306
25888WAT      O77905   3.425   3.000   7.471
25888WAT     H177906   3.460   2.921   7.420
25888WAT     H277907   3.325   2.997   7.472
25889WAT      O77908   1.200   3.231   3.674
25889WAT     H177909   1.254   3.315   3.679
25889WAT     H277910   1.226   3.171   3.749
25890WAT      O77911   6.453   7.634   0.327
25890WAT     H177912   6.442   7.700   0.252
25890WAT     H277913   6.368   7.582   0.338
25891WAT      O77914   0.752   1.801   3.163
25891WAT     H177915   0.662   1.765   3.140
25891WAT     H277916   0.822   1.733   3.137
25892WAT      O77917   2.850   9.728   4.727
25892WAT     H177918   2.778   9.678   4.775
25892WAT     H277919   2.937   9.716   4.775
25893WAT      O77920   7.327   6.139   4.844
25893WAT     H177921   7.250   6.141   4.781
25893WAT     H277922   7.413   6.144   4.793
25894WAT      O77923   4.861   4.410   1.556
25894WAT     H177924   4.773   4.444   1.592
25894WAT     H277925   4.925   4.399   1.632
25895WAT      O77926   9.062   1.483   5.932
25895WAT     H177927   9.130   1.410   5.919
25895WAT     H277928   8.973   1.451   5.898
25896WAT      O77929   8.490   7.770   0.734
25896WAT     H177930   8.429   7.816   0.670
25896WAT     H277931   8.445   7.690   0.772
25897WAT      O77932   0.110   6.248   5.711
25897WAT     H177933   0.035   6.182   5.711
25897WAT     H277934   0.084   6.328   5.766
25898WAT      O77935   4.848   6.059   2.473
25898WAT     H177936   4.921   6.099   2.418
25898WAT     H277937   4.856   6.089   2.568
25899WAT      O77938   4.158   2.415   7.247
25899WAT     H177939   4.065   2.436   7.214
25899WAT     H277940   4.158   2.327   7.292
25900WAT      O77941   4.818   5.466   7.677
25900WAT     H177942   4.792   5.389   7.736
25900WAT     H277943   4.848   5.543   7.733
25901WAT      O77944   5.703   3.172   4.317
25901WAT     H177945   5.698   3.217   4.228
25901WAT     H277946   5.684   3.074   4.306
25902WAT      O77947   1.245   3.074   8.698
25902WAT     H177948   1.215   3.036   8.611
25902WAT     H277949   1.202   3.024   8.773
25903WAT      O77950   3.217   6.312   1.407
25903WAT     H177951   3.155   6.377   1.363
25903WAT     H277952   3.195   6.219   1.378
25904WAT      O77953   7.289   3.999   4.069
25904WAT     H177954   7.328   4.067   4.131
25904WAT     H277955   7.325   3.908   4.093
25905WAT      O77956   9.615   7.763   8.440
25905WAT     H177957   9.627   7.778   8.342
25905WAT     H277958   9.572   7.674   8.456
25906WAT      O77959   6.555   9.809   0.826
25906WAT     H177960   6.619   9.804   0.749
25906WAT     H277961   6.471   9.853   0.797
25907WAT      O77962   0.162   1.836   5.118
25907WAT     H177963   0.172   1.736   5.114
25907WAT     H277964   0.228   1.874   5.183
25908WAT      O77965   8.955   0.151   3.570
25908WAT     H177966   8.974   0.213   3.494
25908WAT     H277967   8.887   0.084   3.542
25909WAT      O77968   3.564   3.392   8.233
25909WAT     H177969   3.534   3.484   8.262
25909WAT     H277970   3.538   3.378   8.138
25910WAT      O77971   8.182   9.143   2.197
25910WAT     H177972   8.121   9.199   2.141
25910WAT     H277973   8.144   9.051   2.205
25911WAT      O77974   9.066   2.954   5.227
25911WAT     H177975   9.006   2.929   5.303
25911WAT     H277976   9.027   3.033   5.179
25912WAT      O77977   2.488   3.583   0.536
25912WAT     H177978   2.414   3.548   0.479
25912WAT     H277979   2.458   3.668   0.579
25913WAT      O77980   6.701   9.009   8.955
25913WAT     H177981   6.797   9.005   8.927
25913WAT     H277982   6.685   9.093   9.007
25914WAT      O77983   7.580   2.100   8.498
25914WAT     H177984   7.599   2.009   8.461
25914WAT     H277985   7.553   2.161   8.423
25915WAT      O77986   3.582   6.450   4.770
25915WAT     H177987   3.677   6.473   4.745
25915WAT     H277988   3.561   6.490   4.859
25916WAT      O77989   2.578   0.839   6.162
25916WAT     H177990   2.640   0.764   6.139
25916WAT     H277991   2.545   0.883   6.079
25917WAT      O77992   1.837   7.859   3.164
25917WAT     H177993   1.888   7.940   3.134
25917WAT     H277994   1.784   7.882   3.245
25918WAT      O77995   7.991   3.232   3.607
25918WAT     H177996   7.919   3.281   3.558
25918WAT     H277997   8.037   3.294   3.670
25919WAT      O77998   7.591   8.250   4.685
25919WAT     H177999   7.661   8.287   4.747
25919WAT     H278000   7.525   8.196   4.737
25920WAT      O78001   1.896   0.685   7.575
25920WAT     H178002   1.834   0.740   7.631
25920WAT     H278003   1.853   0.596   7.558
25921WAT      O78004   5.868   1.615   4.401
25921WAT     H178005   5.783   1.612   4.453
25921WAT     H278006   5.857   1.676   4.322
25922WAT      O78007   2.020   2.506   2.783
25922WAT     H178008   2.034   2.416   2.743
25922WAT     H278009   1.927   2.513   2.820
25923WAT      O78010   7.367   3.029   0.522
25923WAT     H178011   7.409   3.090   0.454
25923WAT     H278012   7.379   2.934   0.493
25924WAT      O78013   0.334   6.687   4.189
25924WAT     H178014   0.286   6.686   4.101
25924WAT     H278015   0.290   6.752   4.251
25925WAT      O78016   3.938   0.979   4.875
25925WAT     H178017   3.972   0.907   4.936
25925WAT     H278018   3.902   0.937   4.791
25926WAT      O78019   3.778   4.557   6.718
25926WAT     H178020   3.763   4.460   6.737
25926WAT     H278021   3.702   4.610   6.757
25927WAT      O78022   6.036   6.647   8.294
25927WAT     H178023   6.063   6.550   8.295
25927WAT     H278024   5.961   6.660   8.228
25928WAT      O78025   5.739   3.555   6.715
25928WAT     H178026   5.711   3.637   6.665
25928WAT     H278027   5.823   3.575   6.766
25929WAT      O78028   5.224   5.373   9.587
25929WAT     H178029   5.232   5.437   9.511
25929WAT     H278030   5.154   5.405   9.651
25930WAT      O78031   2.819   6.517   4.501
25930WAT     H178032   2.826   6.501   4.402
25930WAT     H278033   2.905   6.492   4.545
25931WAT      O78034   6.293   9.613   6.252
25931WAT     H178035   6.237   9.694   6.271
25931WAT     H278036   6.383   9.642   6.219
25932WAT      O78037   5.350   3.038   7.595
25932WAT     H178038   5.265   3.089   7.610
25932WAT     H278039   5.353   2.959   7.656
25933WAT      O78040   8.589   4.545   4.866
25933WAT     H178041   8.552   4.601   4.939
25933WAT     H278042   8.615   4.603   4.788
25934WAT      O78043   9.821   8.048   5.340
25934WAT     H178044   9.785   8.061   5.432
25934WAT     H278045   9.887   7.973   5.340
25935WAT      O78046   4.076   6.428   1.174
25935WAT     H178047   4.110   6.521   1.192
25935WAT     H278048   4.074   6.376   1.259
25936WAT      O78049   5.872   1.660   5.333
25936WAT     H178050   5.934   1.646   5.410
25936WAT     H278051   5.786   1.612   5.351
25937WAT      O78052   9.301   7.710   6.812
25937WAT     H178053   9.290   7.710   6.911
25937WAT     H278054   9.287   7.617   6.777
25938WAT      O78055   6.407   3.739   0.923
25938WAT     H178056   6.381   3.695   1.009
25938WAT     H278057   6.495   3.704   0.893
25939WAT      O78058   1.915   4.854   5.123
25939WAT     H178059   2.008   4.835   5.093
25939WAT     H278060   1.912   4.941   5.172
25940WAT      O78061   7.189   3.114   4.196
25940WAT     H178062   7.238   3.027   4.200
25940WAT     H278063   7.252   3.188   4.172
25941WAT      O78064   2.336   8.663   5.552
25941WAT     H178065   2.323   8.758   5.579
25941WAT     H278066   2.257   8.632   5.499
25942WAT      O78067   6.987   1.641   3.918
25942WAT     H178068   6.940   1.593   3.993
25942WAT     H278069   7.021   1.574   3.852
25943WAT      O78070   8.085   5.211   6.819
25943WAT     H178071   7.991   5.182   6.803
25943WAT     H278072   8.087   5.277   6.893
25944WAT      O78073   1.539   2.144   9.008
25944WAT     H178074   1.620   2.106   9.053
25944WAT     H278075   1.561   2.168   8.914
25945WAT      O78076   3.208   4.906   7.087
25945WAT     H178077   3.235   4.998   7.058
25945WAT     H278078   3.109   4.896   7.079
25946WAT      O78079   0.963   3.082   0.770
25946WAT     H178080   0.988   3.053   0.677
25946WAT     H278081   1.034   3.142   0.806
25947WAT      O78082   9.402   3.554   8.314
25947WAT     H178083   9.452   3.471   8.340
25947WAT     H278084   9.464   3.632   8.314
25948WAT      O78085   6.169   9.668   8.368
25948WAT     H178086   6.126   9.743   8.417
25948WAT     H278087   6.107   9.633   8.298
25949WAT      O78088   9.707   5.157   0.592
25949WAT     H178089   9.692   5.254   0.574
25949WAT     H278090   9.751   5.115   0.513
25950WAT      O78091   7.960   4.910   6.613
25950WAT     H178092   8.047   4.866   6.635
25950WAT     H278093   7.941   4.983   6.679
25951WAT      O78094   6.583   0.842   7.264
25951WAT     H178095   6.544   0.754   7.290
25951WAT     H278096   6.583   0.851   7.164
25952WAT      O78097   8.097   2.445   0.931
25952WAT     H178098   8.164   2.379   0.895
25952WAT     H278099   8.021   2.395   0.972
25953WAT      O78100   2.980   6.643   5.238
25953WAT     H178101   3.078   6.635   5.218
25953WAT     H278102   2.927   6.616   5.157
25954WAT      O78103   1.038   0.054   9.302
25954WAT     H178104   0.941   0.073   9.311
25954WAT     H278105   1.058  -0.037   9.339
25955WAT      O78106   0.418   1.893   4.351
25955WAT     H178107   0.516   1.877   4.340
25955WAT     H278108   0.368   1.807   4.342
25956WAT      O78109   1.601   9.747   5.650
25956WAT     H178110   1.642   9.678   5.590
25956WAT     H278111   1.502   9.740   5.646
25957WAT      O78112   4.118   5.991   0.072
25957WAT     H178113   4.160   6.074   0.035
25957WAT     H278114   4.155   5.911   0.025
25958WAT      O78115   5.107   7.964   3.566
25958WAT     H178116   5.068   8.002   3.482
25958WAT     H278117   5.034   7.923   3.622
25959WAT      O78118   8.650   4.275   2.419
25959WAT     H178119   8.741   4.232   2.419
25959WAT     H278120   8.580   4.204   2.411
25960WAT      O78121   1.996   9.246   6.256
25960WAT     H178122   2.060   9.279   6.325
25960WAT     H278123   1.972   9.320   6.194
25961WAT      O78124   8.121   6.635   1.166
25961WAT     H178125   8.193   6.576   1.201
25961WAT     H278126   8.057   6.658   1.240
25962WAT      O78127   3.816   1.160   8.504
25962WAT     H178128   3.769   1.151   8.417
25962WAT     H278129   3.778   1.096   8.570
25963WAT      O78130   2.572   4.010   5.925
25963WAT     H178131   2.649   3.947   5.927
25963WAT     H278132   2.487   3.958   5.934
25964WAT      O78133   6.733   8.995   8.280
25964WAT     H178134   6.792   8.923   8.246
25964WAT     H278135   6.640   8.981   8.246
25965WAT      O78136   1.798   7.697   5.496
25965WAT     H178137   1.835   7.763   5.561
25965WAT     H278138   1.725   7.740   5.442
25966WAT      O78139   4.728   4.154   6.261
25966WAT     H178140   4.669   4.118   6.333
25966WAT     H278141   4.684   4.232   6.217
25967WAT      O78142   2.223   1.263   4.468
25967WAT     H178143   2.309   1.289   4.512
25967WAT     H278144   2.147   1.285   4.528
25968WAT      O78145   7.119   9.567   6.058
25968WAT     H178146   7.133   9.514   5.975
25968WAT     H278147   7.208   9.587   6.100
25969WAT      O78148   6.599   3.864   7.414
25969WAT     H178149   6.523   3.801   7.431
25969WAT     H278150   6.671   3.850   7.483
25970WAT      O78151   8.037   9.087   6.001
25970WAT     H178152   8.126   9.054   6.034
25970WAT     H278153   8.021   9.179   6.035
25971WAT      O78154   8.167   0.820   2.559
25971WAT     H178155   8.106   0.854   2.631
25971WAT     H278156   8.227   0.894   2.529
25972WAT      O78157   1.079   2.363   2.164
25972WAT     H178158   1.156   2.331   2.108
25972WAT     H278159   1.102   2.450   2.207
25973WAT      O78160   9.417   6.318   9.392
25973WAT     H178161   9.406   6.369   9.307
25973WAT     H278162   9.441   6.381   9.466
25974WAT      O78163   2.619   7.045   7.919
25974WAT     H178164   2.661   6.973   7.974
25974WAT     H278165   2.579   7.114   7.979
25975WAT      O78166   1.434   5.728   9.811
25975WAT     H178167   1.401   5.635   9.802
25975WAT     H278168   1.420   5.760   9.905
25976WAT      O78169   1.521   4.740   6.244
25976WAT     H178170   1.438   4.714   6.294
25976WAT     H278171   1.524   4.689   6.158
25977WAT      O78172   4.258   3.743   4.030
25977WAT     H178173   4.176   3.691   4.006
25977WAT     H278174   4.330   3.725   3.962
25978WAT      O78175   1.639   8.003   5.253
25978WAT     H178176   1.594   7.930   5.305
25978WAT     H278177   1.706   7.963   5.191
25979WAT      O78178   5.847   2.144   5.154
25979WAT     H178179   5.902   2.214   5.199
25979WAT     H278180   5.868   2.142   5.056
25980WAT      O78181   5.130   4.989   0.681
25980WAT     H178182   5.090   5.061   0.737
25980WAT     H278183   5.072   4.908   0.685
25981WAT      O78184   2.789   8.018   5.151
25981WAT     H178185   2.867   8.004   5.090
25981WAT     H278186   2.821   8.024   5.246
25982WAT      O78187   3.039   1.322   7.411
25982WAT     H178188   3.034   1.222   7.417
25982WAT     H278189   3.031   1.361   7.502
25983WAT      O78190   6.962   0.291   9.621
25983WAT     H178191   7.026   0.248   9.558
25983WAT     H278192   6.886   0.331   9.570
25984WAT      O78193   0.187   0.321   3.473
25984WAT     H178194   0.268   0.352   3.522
25984WAT     H278195   0.214   0.287   3.383
25985WAT      O78196   2.448   8.872   4.329
25985WAT     H178197   2.528   8.914   4.286
25985WAT     H278198   2.430   8.915   4.417
25986WAT      O78199   5.770   6.813   8.539
25986WAT     H178200   5.770   6.838   8.442
25986WAT     H278201   5.846   6.859   8.585
25987WAT      O78202   9.548   7.676   7.294
25987WAT     H178203   9.564   7.706   7.200
25987WAT     H278204   9.503   7.749   7.346
25988WAT      O78205   1.113   2.769   9.814
25988WAT     H178206   1.135   2.858   9.775
25988WAT     H278207   1.145   2.765   9.909
25989WAT      O78208   3.836   1.953   1.211
25989WAT     H178209   3.761   1.947   1.145
25989WAT     H278210   3.917   1.909   1.172
25990WAT      O78211   5.587   4.154   7.318
25990WAT     H178212   5.560   4.231   7.260
25990WAT     H278213   5.684   4.134   7.302
25991WAT      O78214   1.807   6.458   3.971
25991WAT     H178215   1.903   6.486   3.962
25991WAT     H278216   1.793   6.417   4.061
25992WAT      O78217   4.522   8.350   8.998
25992WAT     H178218   4.601   8.303   8.957
25992WAT     H278219   4.486   8.295   9.073
25993WAT      O78220   0.161   4.902   8.506
25993WAT     H178221   0.098   4.974   8.479
25993WAT     H278222   0.244   4.907   8.450
25994WAT      O78223   3.454   1.968   1.751
25994WAT     H178224   3.441   1.944   1.655
25994WAT     H278225   3.464   2.067   1.760
25995WAT      O78226   0.131   5.592   5.186
25995WAT     H178227   0.146   5.589   5.087
25995WAT     H278228   0.166   5.509   5.228
25996WAT      O78229   1.272   2.113   0.733
25996WAT     H178230   1.327   2.052   0.675
25996WAT     H278231   1.277   2.206   0.698
25997WAT      O78232   3.421   0.247   3.184
25997WAT     H178233   3.322   0.240   3.195
25997WAT     H278234   3.466   0.206   3.263
25998WAT      O78235   0.965   2.493   1.243
25998WAT     H178236   1.001   2.433   1.171
25998WAT     H278237   0.942   2.582   1.203
25999WAT      O78238   9.759   2.489   3.018
25999WAT     H178239   9.843   2.455   2.976
25999WAT     H278240   9.776   2.579   3.059
26000WAT      O78241   9.591   3.910   4.956
26000WAT     H178242   9.563   3.928   5.050
26000WAT     H278243   9.534   3.964   4.894
26001WAT      O78244   5.142   1.288   0.020
26001WAT     H178245   5.196   1.331  -0.052
26001WAT     H278246   5.051   1.330   0.023
26002WAT      O78247   0.346   0.763   3.577
26002WAT     H178248   0.402   0.789   3.498
26002WAT     H278249   0.300   0.844   3.614
26003WAT      O78250   2.461   2.237   5.505
26003WAT     H178251   2.539   2.198   5.554
26003WAT     H278252   2.475   2.336   5.494
26004WAT      O78253   9.475   3.958   0.574
26004WAT     H178254   9.438   4.002   0.656
26004WAT     H278255   9.551   4.012   0.538
26005WAT      O78256   0.132   7.564   3.119
26005WAT     H178257   0.190   7.569   3.200
26005WAT     H278258   0.188   7.577   3.037
26006WAT      O78259   0.473   2.368   6.845
26006WAT     H178260   0.573   2.378   6.838
26006WAT     H278261   0.448   2.353   6.940
26007WAT      O78262   5.234   1.642   0.869
26007WAT     H178263   5.162   1.610   0.808
26007WAT     H278264   5.266   1.566   0.926
26008WAT      O78265   6.939   2.127   7.825
26008WAT     H178266   6.883   2.210   7.817
26008WAT     H278267   7.035   2.150   7.807
26009WAT      O78268   0.485   9.019   3.215
26009WAT     H178269   0.437   9.103   3.188
26009WAT     H278270   0.583   9.036   3.218
26010WAT      O78271   1.804   0.576   9.236
26010WAT     H178272   1.874   0.640   9.266
26010WAT     H278273   1.832   0.533   9.150
26011WAT      O78274   0.391   1.242   7.648
26011WAT     H178275   0.449   1.176   7.599
26011WAT     H278276   0.379   1.211   7.742
26012WAT      O78277   1.152   7.980   0.607
26012WAT     H178278   1.067   8.004   0.560
26012WAT     H278279   1.171   7.883   0.593
26013WAT      O78280   0.821   1.603   9.237
26013WAT     H178281   0.846   1.507   9.254
26013WAT     H278282   0.903   1.656   9.215
26014WAT      O78283   2.208   9.238   8.962
26014WAT     H178284   2.265   9.232   9.044
26014WAT     H278285   2.134   9.172   8.967
26015WAT      O78286   2.223   6.104   4.933
26015WAT     H178287   2.316   6.091   4.966
26015WAT     H278288   2.224   6.118   4.834
26016WAT      O78289   1.530   7.678   2.369
26016WAT     H178290   1.626   7.649   2.371
26016WAT     H278291   1.471   7.597   2.374
26017WAT      O78292   7.486   8.293   8.934
26017WAT     H178293   7.569   8.262   8.887
26017WAT     H278294   7.424   8.215   8.945
26018WAT      O78295   5.793   2.449   8.898
26018WAT     H178296   5.833   2.365   8.937
26018WAT     H278297   5.791   2.520   8.968
26019WAT      O78298   0.581   2.838   2.319
26019WAT     H178299   0.504   2.845   2.382
26019WAT     H278300   0.551   2.792   2.235
26020WAT      O78301   3.465   2.383   8.684
26020WAT     H178302   3.416   2.361   8.600
26020WAT     H278303   3.507   2.474   8.676
26021WAT      O78304   5.339   4.043   7.358
26021WAT     H178305   5.434   4.073   7.358
26021WAT     H278306   5.305   4.037   7.264
26022WAT      O78307   4.859   5.961   8.733
26022WAT     H178308   4.931   5.916   8.682
26022WAT     H278309   4.771   5.943   8.689
26023WAT      O78310   3.645   2.515   1.689
26023WAT     H178311   3.701   2.438   1.720
26023WAT     H278312   3.668   2.596   1.743
26024WAT      O78313   1.026   6.970   4.729
26024WAT     H178314   0.936   6.972   4.772
26024WAT     H278315   1.021   7.010   4.638
26025WAT      O78316   7.060   9.624   1.057
26025WAT     H178317   7.113   9.709   1.053
26025WAT     H278318   7.006   9.623   1.141
26026WAT      O78319   8.137   9.295   6.771
26026WAT     H178320   8.139   9.201   6.738
26026WAT     H278321   8.088   9.299   6.858
26027WAT      O78322   3.349   1.887   0.802
26027WAT     H178323   3.364   1.862   0.898
26027WAT     H278324   3.252   1.907   0.788
26028WAT      O78325   5.577   0.103   8.432
26028WAT     H178326   5.486   0.069   8.452
26028WAT     H278327   5.639   0.027   8.416
26029WAT      O78328   2.677   1.118   1.164
26029WAT     H178329   2.670   1.132   1.066
26029WAT     H278330   2.625   1.188   1.212
26030WAT      O78331   4.804   9.232   3.975
26030WAT     H178332   4.752   9.179   3.908
26030WAT     H278333   4.879   9.176   4.010
26031WAT      O78334   6.641   7.194   3.322
26031WAT     H178335   6.705   7.227   3.392
26031WAT     H278336   6.564   7.258   3.315
26032WAT      O78337   0.151   1.428   9.690
26032WAT     H178338   0.248   1.415   9.674
26032WAT     H278339   0.112   1.482   9.615
26033WAT      O78340   6.422   3.923   4.154
26033WAT     H178341   6.358   3.970   4.094
26033WAT     H278342   6.514   3.960   4.139
26034WAT      O78343   6.063   1.897   6.294
26034WAT     H178344   6.024   1.942   6.214
26034WAT     H278345   6.162   1.905   6.291
26035WAT      O78346   0.318   2.433   7.362
26035WAT     H178347   0.261   2.488   7.422
26035WAT     H278348   0.265   2.356   7.325
26036WAT      O78349   7.016   6.871   7.010
26036WAT     H178350   7.067   6.788   7.031
26036WAT     H278351   6.930   6.847   6.965
26037WAT      O78352   2.479   2.890   4.019
26037WAT     H178353   2.455   2.982   3.990
26037WAT     H278354   2.471   2.883   4.118
26038WAT      O78355   5.353   9.109   6.598
26038WAT     H178356   5.259   9.094   6.628
26038WAT     H278357   5.416   9.085   6.672
26039WAT      O78358   4.598   3.047   9.642
26039WAT     H178359   4.660   2.975   9.673
26039WAT     H278360   4.619   3.071   9.547
26040WAT      O78361   0.594   6.150   1.880
26040WAT     H178362   0.594   6.238   1.833
26040WAT     H278363   0.628   6.079   1.818
26041WAT      O78364   9.098   2.197   7.749
26041WAT     H178365   9.196   2.212   7.761
26041WAT     H278366   9.055   2.281   7.717
26042WAT      O78367   3.009   7.882   4.252
26042WAT     H178368   3.106   7.881   4.227
26042WAT     H278369   2.999   7.857   4.348
26043WAT      O78370   2.991   2.199   1.207
26043WAT     H178371   2.947   2.110   1.194
26043WAT     H278372   2.969   2.234   1.298
26044WAT      O78373   7.115   2.990   4.842
26044WAT     H178374   7.064   2.995   4.756
26044WAT     H278375   7.211   3.009   4.824
26045WAT      O78376   5.341   6.967   5.063
26045WAT     H178377   5.419   6.927   5.111
26045WAT     H278378   5.336   6.930   4.970
26046WAT      O78379   3.306   9.556   9.258
26046WAT     H178380   3.270   9.515   9.174
26046WAT     H278381   3.233   9.560   9.326
26047WAT      O78382   2.668   9.147   8.131
26047WAT     H178383   2.590   9.149   8.194
26047WAT     H278384   2.751   9.175   8.179
26048WAT      O78385   6.694   9.833   1.309
26048WAT     H178386   6.645   9.851   1.224
26048WAT     H278387   6.771   9.896   1.318
26049WAT      O78388   8.138   9.148   8.481
26049WAT     H178389   8.224   9.176   8.525
26049WAT     H278390   8.118   9.053   8.505
26050WAT      O78391   5.229   1.786   9.391
26050WAT     H178392   5.254   1.747   9.479
26050WAT     H278393   5.154   1.850   9.403
26051WAT      O78394   8.267   8.064   5.134
26051WAT     H178395   8.255   8.044   5.036
26051WAT     H278396   8.273   7.978   5.185
26052WAT      O78397   4.692   8.637   0.659
26052WAT     H178398   4.688   8.558   0.720
26052WAT     H278399   4.770   8.694   0.685
26053WAT      O78400   6.932   4.083   9.222
26053WAT     H178401   6.985   4.078   9.306
26053WAT     H278402   6.973   4.025   9.152
26054WAT      O78403   9.209   9.027   0.178
26054WAT     H178404   9.176   9.051   0.087
26054WAT     H278405   9.137   8.982   0.229
26055WAT      O78406   6.589   8.337   2.337
26055WAT     H178407   6.549   8.250   2.368
26055WAT     H278408   6.550   8.412   2.390
26056WAT      O78409   1.999   5.322   7.921
26056WAT     H178410   1.989   5.223   7.935
26056WAT     H278411   1.910   5.360   7.895
26057WAT      O78412   6.145   5.395   4.523
26057WAT     H178413   6.116   5.316   4.470
26057WAT     H278414   6.233   5.428   4.487
26058WAT      O78415   8.831   6.310   2.059
26058WAT     H178416   8.765   6.272   2.124
26058WAT     H278417   8.815   6.408   2.049
26059WAT      O78418   8.578   7.760   3.043
26059WAT     H178419   8.510   7.821   3.083
26059WAT     H278420   8.534   7.673   3.018
26060WAT      O78421   4.344   3.276   7.804
26060WAT     H178422   4.441   3.263   7.824
26060WAT     H278423   4.328   3.371   7.778
26061WAT      O78424   8.909   4.618   3.791
26061WAT     H178425   8.869   4.677   3.721
26061WAT     H278426   8.854   4.534   3.799
26062WAT      O78427   0.228   8.405   7.303
26062WAT     H178428   0.177   8.330   7.347
26062WAT     H278429   0.326   8.388   7.312
26063WAT      O78430   2.736   1.184   0.884
26063WAT     H178431   2.715   1.281   0.899
26063WAT     H278432   2.651   1.132   0.879
26064WAT      O78433   1.492   4.471   3.437
26064WAT     H178434   1.507   4.512   3.347
26064WAT     H278435   1.518   4.374   3.434
26065WAT      O78436   1.352   9.566   6.574
26065WAT     H178437   1.325   9.547   6.479
26065WAT     H278438   1.337   9.484   6.629
26066WAT      O78439   1.145   0.204   8.365
26066WAT     H178440   1.080   0.193   8.291
26066WAT     H278441   1.096   0.209   8.452
26067WAT      O78442   1.974   5.019   1.879
26067WAT     H178443   2.000   5.113   1.898
26067WAT     H278444   1.962   4.970   1.966
26068WAT      O78445   2.888   3.014   2.196
26068WAT     H178446   2.945   2.939   2.164
26068WAT     H278447   2.845   2.989   2.283
26069WAT      O78448   9.094   1.266   6.228
26069WAT     H178449   9.116   1.362   6.208
26069WAT     H278450   9.100   1.250   6.327
26070WAT      O78451   2.590   0.766   9.561
26070WAT     H178452   2.491   0.772   9.555
26070WAT     H278453   2.620   0.675   9.533
26071WAT      O78454   0.602   0.565   9.833
26071WAT     H178455   0.618   0.594   9.927
26071WAT     H278456   0.504   0.562   9.815
26072WAT      O78457   7.954   7.267   1.341
26072WAT     H178458   7.968   7.229   1.432
26072WAT     H278459   7.876   7.329   1.342
26073WAT      O78460   0.010   1.017   2.571
26073WAT     H178461  -0.008   1.086   2.501
26073WAT     H278462   0.108   1.001   2.577
26074WAT      O78463   0.948   2.153   3.449
26074WAT     H178464   0.934   2.229   3.385
26074WAT     H278465   0.862   2.105   3.463
26075WAT      O78466   6.005   5.309   8.782
26075WAT     H178467   6.012   5.394   8.730
26075WAT     H278468   6.077   5.247   8.754
26076WAT      O78469   2.346   0.822   7.901
26076WAT     H178470   2.392   0.883   7.837
26076WAT     H278471   2.398   0.817   7.986
26077WAT      O78472   3.692   1.199   8.245
26077WAT     H178473   3.655   1.155   8.163
26077WAT     H278474   3.622   1.201   8.316
26078WAT      O78475   8.985   7.277   3.114
26078WAT     H178476   8.924   7.337   3.062
26078WAT     H278477   8.966   7.182   3.092
26079WAT      O78478   4.136   5.049   8.024
26079WAT     H178479   4.146   5.043   7.924
26079WAT     H278480   4.079   4.973   8.056
26080WAT      O78481   4.038   5.356   6.233
26080WAT     H178482   4.093   5.301   6.296
26080WAT     H278483   4.076   5.449   6.229
26081WAT      O78484   2.143   8.859   8.744
26081WAT     H178485   2.156   8.880   8.841
26081WAT     H278486   2.229   8.825   8.705
26082WAT      O78487   0.901   2.726   1.085
26082WAT     H178488   0.887   2.824   1.073
26082WAT     H278489   0.822   2.676   1.049
26083WAT      O78490   4.047   6.227   0.269
26083WAT     H178491   4.069   6.255   0.363
26083WAT     H278492   4.128   6.238   0.212
26084WAT      O78493   3.023   3.799   5.346
26084WAT     H178494   2.938   3.826   5.391
26084WAT     H278495   3.042   3.703   5.365
26085WAT      O78496   7.618   6.464   2.486
26085WAT     H178497   7.650   6.451   2.580
26085WAT     H278498   7.688   6.433   2.422
26086WAT      O78499   5.553   3.563   1.023
26086WAT     H178500   5.543   3.569   0.924
26086WAT     H278501   5.632   3.616   1.053
26087WAT      O78502   3.898   7.573   8.803
26087WAT     H178503   3.980   7.626   8.781
26087WAT     H278504   3.822   7.603   8.746
26088WAT      O78505   2.934   3.363   4.328
26088WAT     H178506   2.925   3.313   4.415
26088WAT     H278507   2.954   3.459   4.347
26089WAT      O78508   4.585   5.880   1.900
26089WAT     H178509   4.500   5.928   1.922
26089WAT     H278510   4.662   5.927   1.945
26090WAT      O78511   6.522   3.474   8.982
26090WAT     H178512   6.485   3.482   8.889
26090WAT     H278513   6.608   3.423   8.980
26091WAT      O78514   6.139   2.728   7.012
26091WAT     H178515   6.075   2.804   7.025
26091WAT     H278516   6.233   2.763   7.011
26092WAT      O78517   0.005   7.194   4.518
26092WAT     H178518  -0.038   7.140   4.446
26092WAT     H278519   0.070   7.258   4.477
26093WAT      O78520   2.251   1.760   4.979
26093WAT     H178521   2.283   1.837   4.925
26093WAT     H278522   2.211   1.691   4.919
26094WAT      O78523   9.172   2.054   2.861
26094WAT     H178524   9.150   2.147   2.829
26094WAT     H278525   9.175   2.054   2.961
26095WAT      O78526   8.381   4.446   7.709
26095WAT     H178527   8.311   4.423   7.641
26095WAT     H278528   8.466   4.470   7.661
26096WAT      O78529   6.199   5.023   1.140
26096WAT     H178530   6.248   4.936   1.138
26096WAT     H278531   6.119   5.018   1.081
26097WAT      O78532   4.680   8.637   6.296
26097WAT     H178533   4.715   8.632   6.202
26097WAT     H278534   4.734   8.703   6.348
26098WAT      O78535   6.672   2.597   5.907
26098WAT     H178536   6.763   2.634   5.889
26098WAT     H278537   6.675   2.539   5.989
26099WAT      O78538   3.935   2.086   5.478
26099WAT     H178539   3.883   2.121   5.400
26099WAT     H278540   3.873   2.065   5.553
26100WAT      O78541   2.513   1.670   8.712
26100WAT     H178542   2.593   1.611   8.710
26100WAT     H278543   2.537   1.757   8.755
26101WAT      O78544   6.405   2.163   1.970
26101WAT     H178545   6.354   2.146   1.886
26101WAT     H278546   6.358   2.233   2.024
26102WAT      O78547   3.640   5.403   3.735
26102WAT     H178548   3.691   5.465   3.793
26102WAT     H278549   3.574   5.455   3.680
26103WAT      O78550   0.126   1.502   0.674
26103WAT     H178551   0.054   1.557   0.633
26103WAT     H278552   0.211   1.514   0.622
26104WAT      O78553   2.566   3.268   6.370
26104WAT     H178554   2.499   3.328   6.414
26104WAT     H278555   2.649   3.319   6.350
26105WAT      O78556   2.769   9.317   3.197
26105WAT     H178557   2.855   9.319   3.145
26105WAT     H278558   2.755   9.406   3.240
26106WAT      O78559   6.796   4.071   4.549
26106WAT     H178560   6.741   3.996   4.511
26106WAT     H278561   6.810   4.141   4.478
26107WAT      O78562   4.885   7.420   8.470
26107WAT     H178563   4.981   7.425   8.441
26107WAT     H278564   4.881   7.383   8.563
26108WAT      O78565   2.353   4.533   8.196
26108WAT     H178566   2.282   4.599   8.221
26108WAT     H278567   2.399   4.502   8.279
26109WAT      O78568   7.798   7.096   7.123
26109WAT     H178569   7.763   7.148   7.045
26109WAT     H278570   7.832   7.008   7.091
26110WAT      O78571   9.092   5.573   4.338
26110WAT     H178572   9.146   5.657   4.334
26110WAT     H278573   9.152   5.494   4.346
26111WAT      O78574   4.857   2.217   1.580
26111WAT     H178575   4.952   2.240   1.561
26111WAT     H278576   4.853   2.147   1.651
26112WAT      O78577   5.637   0.965   7.666
26112WAT     H178578   5.671   1.002   7.580
26112WAT     H278579   5.643   0.865   7.665
26113WAT      O78580   2.834   3.044   5.163
26113WAT     H178581   2.770   3.021   5.236
26113WAT     H278582   2.882   3.129   5.187
26114WAT      O78583   8.472   6.719   0.576
26114WAT     H178584   8.545   6.662   0.614
26114WAT     H278585   8.494   6.815   0.592
26115WAT      O78586   9.867   8.494   9.605
26115WAT     H178587   9.846   8.406   9.648
26115WAT     H278588   9.783   8.533   9.566
26116WAT      O78589   2.640   6.628   1.978
26116WAT     H178590   2.707   6.555   1.997
26116WAT     H278591   2.680   6.695   1.916
26117WAT      O78592   7.682   2.554   5.096
26117WAT     H178593   7.585   2.539   5.079
26117WAT     H278594   7.730   2.568   5.009
26118WAT      O78595   2.246   2.444   1.581
26118WAT     H178596   2.186   2.496   1.520
26118WAT     H278597   2.301   2.380   1.527
26119WAT      O78598   7.201   6.792   5.760
26119WAT     H178599   7.260   6.826   5.834
26119WAT     H278600   7.118   6.848   5.756
26120WAT      O78601   5.575   6.276   7.445
26120WAT     H178602   5.655   6.329   7.475
26120WAT     H278603   5.568   6.193   7.500
26121WAT      O78604   2.316   4.752   8.435
26121WAT     H178605   2.398   4.773   8.381
26121WAT     H278606   2.343   4.709   8.521
26122WAT      O78607   9.157   2.527   2.919
26122WAT     H178608   9.153   2.524   3.018
26122WAT     H278609   9.243   2.570   2.890
26123WAT      O78610   9.165   4.628   8.627
26123WAT     H178611   9.130   4.575   8.550
26123WAT     H278612   9.098   4.626   8.701
26124WAT      O78613   0.113   8.461   6.490
26124WAT     H178614   0.019   8.428   6.482
26124WAT     H278615   0.173   8.410   6.429
26125WAT      O78616   4.342   1.714   4.150
26125WAT     H178617   4.364   1.652   4.075
26125WAT     H278618   4.401   1.694   4.228
26126WAT      O78619   5.556   7.395   8.488
26126WAT     H178620   5.645   7.405   8.533
26126WAT     H278621   5.527   7.300   8.492
26127WAT      O78622   3.767   2.934   6.262
26127WAT     H178623   3.681   2.905   6.221
26127WAT     H278624   3.749   3.006   6.330
26128WAT      O78625   9.768   8.100   0.528
26128WAT     H178626   9.741   8.153   0.608
26128WAT     H278627   9.785   8.005   0.555
26129WAT      O78628   8.043   5.954   0.656
26129WAT     H178629   8.107   6.027   0.633
26129WAT     H278630   7.992   5.927   0.574
26130WAT      O78631   8.833   6.728   5.010
26130WAT     H178632   8.923   6.768   4.993
26130WAT     H278633   8.842   6.650   5.073
26131WAT      O78634   9.886   2.912   6.394
26131WAT     H178635   9.925   2.823   6.415
26131WAT     H278636   9.858   2.915   6.298
26132WAT      O78637   3.785   7.524   4.068
26132WAT     H178638   3.840   7.440   4.073
26132WAT     H278639   3.688   7.499   4.057
26133WAT      O78640   5.220   5.744   6.750
26133WAT     H178641   5.311   5.751   6.710
26133WAT     H278642   5.151   5.745   6.678
26134WAT      O78643   0.623   5.919   1.003
26134WAT     H178644   0.668   5.925   1.093
26134WAT     H278645   0.564   5.838   1.001
26135WAT      O78646   6.818   2.197   1.244
26135WAT     H178647   6.906   2.179   1.201
26135WAT     H278648   6.831   2.209   1.342
26136WAT      O78649   8.948   9.543   9.164
26136WAT     H178650   8.968   9.601   9.243
26136WAT     H278651   8.880   9.589   9.106
26137WAT      O78652   3.270   1.729   3.403
26137WAT     H178653   3.182   1.696   3.368
26137WAT     H278654   3.321   1.772   3.329
26138WAT      O78655   9.298   6.615   7.023
26138WAT     H178656   9.253   6.556   7.090
26138WAT     H278657   9.397   6.604   7.030
26139WAT      O78658   8.158   5.407   6.988
26139WAT     H178659   8.098   5.467   7.041
26139WAT     H278660   8.252   5.417   7.022
26140WAT      O78661   3.851   4.370   8.208
26140WAT     H178662   3.922   4.381   8.278
26140WAT     H278663   3.768   4.334   8.251
26141WAT      O78664   5.624   9.661   1.433
26141WAT     H178665   5.703   9.611   1.468
26141WAT     H278666   5.654   9.727   1.364
26142WAT      O78667   3.945   2.555   0.683
26142WAT     H178668   3.877   2.523   0.617
26142WAT     H278669   3.913   2.639   0.726
26143WAT      O78670   4.863   0.752   7.579
26143WAT     H178671   4.913   0.799   7.651
26143WAT     H278672   4.855   0.812   7.499
26144WAT      O78673   9.107   5.431   6.068
26144WAT     H178674   9.039   5.429   6.141
26144WAT     H278675   9.198   5.417   6.106
26145WAT      O78676   8.065   7.263   5.587
26145WAT     H178677   8.079   7.279   5.685
26145WAT     H278678   8.150   7.279   5.538
26146WAT      O78679   7.765   9.450   4.852
26146WAT     H178680   7.777   9.403   4.764
26146WAT     H278681   7.847   9.502   4.874
26147WAT      O78682   4.652   9.632   4.601
26147WAT     H178683   4.751   9.623   4.593
26147WAT     H278684   4.608   9.568   4.537
26148WAT      O78685   7.501   6.487   1.562
26148WAT     H178686   7.546   6.506   1.649
26148WAT     H278687   7.557   6.523   1.487
26149WAT      O78688   1.998   4.767   1.499
26149WAT     H178689   1.981   4.846   1.439
26149WAT     H278690   2.095   4.745   1.498
26150WAT      O78691   2.579   4.930   7.288
26150WAT     H178692   2.555   4.985   7.369
26150WAT     H278693   2.500   4.925   7.227
26151WAT      O78694   4.040   3.418   8.205
26151WAT     H178695   4.042   3.321   8.229
26151WAT     H278696   4.100   3.469   8.267
26152WAT      O78697   8.882   5.708   1.469
26152WAT     H178698   8.903   5.679   1.563
26152WAT     H278699   8.795   5.757   1.468
26153WAT      O78700   6.470   8.397   2.846
26153WAT     H178701   6.534   8.471   2.826
26153WAT     H278702   6.427   8.366   2.762
26154WAT      O78703   4.649   5.343   7.461
26154WAT     H178704   4.559   5.341   7.504
26154WAT     H278705   4.711   5.398   7.517
26155WAT      O78706   9.706   1.727   8.577
26155WAT     H178707   9.747   1.652   8.629
26155WAT     H278708   9.612   1.741   8.609
26156WAT      O78709   1.050   4.855   0.241
26156WAT     H178710   1.133   4.805   0.267
26156WAT     H278711   0.998   4.877   0.324
26157WAT      O78712   0.703   2.998   3.627
26157WAT     H178713   0.628   2.944   3.665
26157WAT     H278714   0.732   3.067   3.694
26158WAT      O78715   8.515   0.897   6.826
26158WAT     H178716   8.513   0.810   6.875
26158WAT     H278717   8.504   0.972   6.892
26159WAT      O78718   6.852   6.674   0.763
26159WAT     H178719   6.905   6.729   0.698
26159WAT     H278720   6.912   6.639   0.835
26160WAT      O78721   3.867   0.935   1.323
26160WAT     H178722   3.886   1.034   1.328
26160WAT     H278723   3.804   0.909   1.395
26161WAT      O78724   1.180   2.794   7.954
26161WAT     H178725   1.159   2.784   7.857
26161WAT     H278726   1.097   2.824   8.002
26162WAT      O78727   3.405   6.529   5.905
26162WAT     H178728   3.402   6.493   5.998
26162WAT     H278729   3.373   6.460   5.841
26163WAT      O78730   2.747   0.857   7.762
26163WAT     H178731   2.706   0.822   7.678
26163WAT     H278732   2.689   0.833   7.840
26164WAT      O78733   5.110   4.565   8.459
26164WAT     H178734   5.052   4.484   8.458
26164WAT     H278735   5.183   4.555   8.391
26165WAT      O78736   1.341   5.056   6.147
26165WAT     H178737   1.314   5.102   6.231
26165WAT     H278738   1.283   4.976   6.133
26166WAT      O78739   7.355   1.030   8.611
26166WAT     H178740   7.272   0.974   8.605
26166WAT     H278741   7.433   0.971   8.632
26167WAT      O78742   8.472   1.795   9.091
26167WAT     H178743   8.414   1.790   9.173
26167WAT     H278744   8.440   1.870   9.033
26168WAT      O78745   7.030   6.161   8.362
26168WAT     H178746   6.939   6.187   8.331
26168WAT     H278747   7.042   6.062   8.352
26169WAT      O78748   5.881   1.228   1.785
26169WAT     H178749   5.883   1.320   1.826
26169WAT     H278750   5.821   1.228   1.706
26170WAT      O78751   1.745   6.422   2.434
26170WAT     H178752   1.747   6.499   2.498
26170WAT     H278753   1.663   6.367   2.451
26171WAT      O78754   1.829   1.108   4.958
26171WAT     H178755   1.789   1.164   4.884
26171WAT     H278756   1.902   1.160   5.003
26172WAT      O78757   2.813   2.589   1.021
26172WAT     H178758   2.912   2.590   1.038
26172WAT     H278759   2.791   2.655   0.950
26173WAT      O78760   8.335   6.692   5.132
26173WAT     H178761   8.333   6.773   5.074
26173WAT     H278762   8.428   6.679   5.168
26174WAT      O78763   6.059   6.247   2.874
26174WAT     H178764   6.108   6.218   2.792
26174WAT     H278765   6.045   6.169   2.934
26175WAT      O78766   8.504   2.224   6.266
26175WAT     H178767   8.588   2.256   6.224
26175WAT     H278768   8.523   2.144   6.322
26176WAT      O78769   7.912   5.771   8.756
26176WAT     H178770   7.939   5.678   8.783
26176WAT     H278771   7.862   5.814   8.831
26177WAT      O78772   5.112   1.189   7.403
26177WAT     H178773   5.198   1.232   7.432
26177WAT     H278774   5.042   1.259   7.394
26178WAT      O78775   0.912   4.209   3.219
26178WAT     H178776   0.892   4.126   3.270
26178WAT     H278777   0.995   4.251   3.255
26179WAT      O78778   0.956   6.942   9.721
26179WAT     H178779   0.955   6.930   9.820
26179WAT     H278780   1.035   6.998   9.695
26180WAT      O78781   0.450   8.475   2.585
26180WAT     H178782   0.485   8.397   2.637
26180WAT     H278783   0.351   8.470   2.579
26181WAT      O78784   6.183   2.087   7.964
26181WAT     H178785   6.164   2.156   7.894
26181WAT     H278786   6.273   2.105   8.004
26182WAT      O78787   9.815   6.133   9.458
26182WAT     H178788   9.904   6.136   9.411
26182WAT     H278789   9.826   6.169   9.551
26183WAT      O78790   7.027   6.435   6.085
26183WAT     H178791   7.087   6.496   6.033
26183WAT     H278792   7.034   6.342   6.049
26184WAT      O78793   0.680   4.299   3.147
26184WAT     H178794   0.766   4.256   3.172
26184WAT     H278795   0.655   4.273   3.054
26185WAT      O78796   5.598   7.178   1.003
26185WAT     H178797   5.523   7.123   1.039
26185WAT     H278798   5.629   7.139   0.916
26186WAT      O78799   2.330   7.106   3.103
26186WAT     H178800   2.362   7.070   3.191
26186WAT     H278801   2.403   7.162   3.063
26187WAT      O78802   4.468   0.427   2.001
26187WAT     H178803   4.495   0.352   2.061
26187WAT     H278804   4.397   0.481   2.046
26188WAT      O78805   1.144   9.723   5.023
26188WAT     H178806   1.083   9.646   5.004
26188WAT     H278807   1.230   9.710   4.975
26189WAT      O78808   4.261   4.680   1.575
26189WAT     H178809   4.344   4.696   1.521
26189WAT     H278810   4.287   4.653   1.668
26190WAT      O78811   8.747   8.001   3.764
26190WAT     H178812   8.759   8.011   3.863
26190WAT     H278813   8.662   8.045   3.736
26191WAT      O78814   2.086   3.555   4.356
26191WAT     H178815   2.104   3.591   4.264
26191WAT     H278816   1.993   3.521   4.360
26192WAT      O78817   4.314   8.213   3.740
26192WAT     H178818   4.234   8.158   3.764
26192WAT     H278819   4.301   8.252   3.649
26193WAT      O78820   0.324   1.270   3.840
26193WAT     H178821   0.295   1.299   3.749
26193WAT     H278822   0.304   1.173   3.853
26194WAT      O78823   7.464   0.688   3.894
26194WAT     H178824   7.515   0.719   3.813
26194WAT     H278825   7.528   0.654   3.962
26195WAT      O78826   5.775   1.330   6.910
26195WAT     H178827   5.748   1.294   6.999
26195WAT     H278828   5.775   1.430   6.912
26196WAT      O78829   0.852   2.773   4.297
26196WAT     H178830   0.837   2.685   4.252
26196WAT     H278831   0.856   2.760   4.396
26197WAT      O78832   6.643   5.735   7.589
26197WAT     H178833   6.577   5.743   7.664
26197WAT     H278834   6.618   5.797   7.516
26198WAT      O78835   1.766   4.354   2.218
26198WAT     H178836   1.686   4.298   2.241
26198WAT     H278837   1.771   4.432   2.280
26199WAT      O78838   1.253   1.455   1.986
26199WAT     H178839   1.264   1.406   1.900
26199WAT     H278840   1.265   1.393   2.063
26200WAT      O78841   4.077   5.496   3.606
26200WAT     H178842   4.057   5.421   3.543
26200WAT     H278843   4.148   5.469   3.670
26201WAT      O78844   5.316   0.321   4.420
26201WAT     H178845   5.310   0.353   4.514
26201WAT     H278846   5.412   0.308   4.395
26202WAT      O78847   6.716   2.779   4.684
26202WAT     H178848   6.722   2.782   4.584
26202WAT     H278849   6.807   2.758   4.721
26203WAT      O78850   7.260   6.325   5.019
26203WAT     H178851   7.165   6.294   5.024
26203WAT     H278852   7.305   6.283   4.941
26204WAT      O78853   2.602   1.553   7.922
26204WAT     H178854   2.572   1.499   7.843
26204WAT     H278855   2.687   1.514   7.957
26205WAT      O78856   6.641   9.460   5.896
26205WAT     H178857   6.549   9.422   5.888
26205WAT     H278858   6.665   9.468   5.993
26206WAT      O78859   9.453   1.270   3.933
26206WAT     H178860   9.423   1.364   3.950
26206WAT     H278861   9.548   1.261   3.960
26207WAT      O78862   2.827   3.378   9.336
26207WAT     H178863   2.911   3.327   9.318
26207WAT     H278864   2.761   3.318   9.382
26208WAT      O78865   9.503   2.028   9.071
26208WAT     H178866   9.500   1.931   9.095
26208WAT     H278867   9.519   2.082   9.153
26209WAT      O78868   2.706   5.874   0.772
26209WAT     H178869   2.785   5.821   0.804
26209WAT     H278870   2.622   5.835   0.809
26210WAT      O78871   1.423   2.147   1.289
26210WAT     H178872   1.356   2.221   1.294
26210WAT     H278873   1.468   2.137   1.377
26211WAT      O78874   2.785   6.504   7.320
26211WAT     H178875   2.755   6.588   7.364
26211WAT     H278876   2.751   6.502   7.226
26212WAT      O78877   5.238   6.104   1.512
26212WAT     H178878   5.295   6.146   1.582
26212WAT     H278879   5.163   6.053   1.556
26213WAT      O78880   2.914   5.249   1.425
26213WAT     H178881   2.944   5.211   1.338
26213WAT     H278882   2.874   5.177   1.481
26214WAT      O78883   2.691   8.193   1.060
26214WAT     H178884   2.630   8.197   1.139
26214WAT     H278885   2.649   8.239   0.982
26215WAT      O78886   3.499   6.911   9.385
26215WAT     H178887   3.441   6.839   9.347
26215WAT     H278888   3.592   6.902   9.349
26216WAT      O78889   3.805   1.931   0.347
26216WAT     H178890   3.748   1.855   0.315
26216WAT     H278891   3.808   2.001   0.276
26217WAT      O78892   5.769   1.687   3.957
26217WAT     H178893   5.847   1.728   3.909
26217WAT     H278894   5.687   1.741   3.941
26218WAT      O78895   2.716   6.843   8.074
26218WAT     H178896   2.677   6.754   8.051
26218WAT     H278897   2.726   6.850   8.173
26219WAT      O78898   4.665   0.785   2.604
26219WAT     H178899   4.661   0.865   2.545
26219WAT     H278900   4.760   0.766   2.629
26220WAT      O78901   2.195   8.188   4.363
26220WAT     H178902   2.272   8.239   4.324
26220WAT     H278903   2.136   8.251   4.414
26221WAT      O78904   6.757   7.603   0.026
26221WAT     H178905   6.812   7.522   0.009
26221WAT     H278906   6.718   7.599   0.117
26222WAT      O78907   9.391   5.056   0.714
26222WAT     H178908   9.432   5.055   0.623
26222WAT     H278909   9.301   5.013   0.711
26223WAT      O78910   1.858   1.044   5.951
26223WAT     H178911   1.777   1.072   5.899
26223WAT     H278912   1.830   1.016   6.043
26224WAT      O78913   8.646   7.474   0.753
26224WAT     H178914   8.717   7.535   0.788
26224WAT     H278915   8.673   7.379   0.769
26225WAT      O78916   9.128   1.886   0.559
26225WAT     H178917   9.217   1.867   0.599
26225WAT     H278918   9.064   1.914   0.631
26226WAT      O78919   3.544   1.088   6.011
26226WAT     H178920   3.567   1.128   5.922
26226WAT     H278921   3.444   1.079   6.018
26227WAT      O78922   8.470   1.771   4.466
26227WAT     H178923   8.526   1.805   4.390
26227WAT     H278924   8.447   1.846   4.527
26228WAT      O78925   9.444   9.377   7.479
26228WAT     H178926   9.371   9.432   7.520
26228WAT     H278927   9.527   9.387   7.534
26229WAT      O78928   3.688   2.854   0.063
26229WAT     H178929   3.787   2.857   0.046
26229WAT     H278930   3.671   2.859   0.161
26230WAT      O78931   6.700   1.964   4.920
26230WAT     H178932   6.731   2.016   4.999
26230WAT     H278933   6.628   1.900   4.947
26231WAT      O78934   4.451   6.090   8.560
26231WAT     H178935   4.503   6.108   8.477
26231WAT     H278936   4.355   6.113   8.545
26232WAT      O78937   3.332   1.017   8.465
26232WAT     H178938   3.308   0.997   8.370
26232WAT     H278939   3.253   1.002   8.524
26233WAT      O78940   9.179   0.361   8.342
26233WAT     H178941   9.108   0.295   8.316
26233WAT     H278942   9.269   0.322   8.321
26234WAT      O78943   9.309   4.022   8.569
26234WAT     H178944   9.329   4.023   8.667
26234WAT     H278945   9.304   3.927   8.536
26235WAT      O78946   6.672   1.578   0.557
26235WAT     H178947   6.679   1.479   0.567
26235WAT     H278948   6.740   1.610   0.492
26236WAT      O78949   8.417   5.370   1.767
26236WAT     H178950   8.508   5.412   1.762
26236WAT     H278951   8.415   5.305   1.843
26237WAT      O78952   2.390   1.155   1.387
26237WAT     H178953   2.309   1.189   1.435
26237WAT     H278954   2.402   1.203   1.301
26238WAT      O78955   9.158   5.640   5.899
26238WAT     H178956   9.182   5.716   5.960
26238WAT     H278957   9.134   5.560   5.954
26239WAT      O78958   4.807   1.223   4.190
26239WAT     H178959   4.751   1.193   4.113
26239WAT     H278960   4.818   1.322   4.187
26240WAT      O78961   6.746   7.107   0.676
26240WAT     H178962   6.701   7.149   0.754
26240WAT     H278963   6.686   7.110   0.596
26241WAT      O78964   5.850   8.176   7.819
26241WAT     H178965   5.850   8.273   7.843
26241WAT     H278966   5.872   8.166   7.723
26242WAT      O78967   3.953   5.804   8.751
26242WAT     H178968   3.896   5.728   8.781
26242WAT     H278969   3.956   5.805   8.651
26243WAT      O78970   3.861   6.543   4.286
26243WAT     H178971   3.874   6.640   4.265
26243WAT     H278972   3.763   6.522   4.285
26244WAT      O78973   5.873   4.883   6.517
26244WAT     H178974   5.871   4.980   6.541
26244WAT     H278975   5.936   4.869   6.441
26245WAT      O78976   7.984   8.836   0.141
26245WAT     H178977   8.015   8.786   0.222
26245WAT     H278978   7.939   8.921   0.169
26246WAT      O78979   2.503   8.844   1.823
26246WAT     H178980   2.529   8.915   1.889
26246WAT     H278981   2.416   8.803   1.852
26247WAT      O78982   5.948   0.355   5.186
26247WAT     H178983   5.879   0.422   5.215
26247WAT     H278984   6.025   0.358   5.250
26248WAT      O78985   1.739   5.072   6.503
26248WAT     H178986   1.665   5.032   6.451
26248WAT     H278987   1.821   5.015   6.496
26249WAT      O78988   6.173   5.121   8.178
26249WAT     H178989   6.160   5.045   8.241
26249WAT     H278990   6.084   5.162   8.155
26250WAT      O78991   7.910   9.800   0.610
26250WAT     H178992   7.964   9.831   0.531
26250WAT     H278993   7.840   9.735   0.580
26251WAT      O78994   1.588   7.013   9.313
26251WAT     H178995   1.589   7.083   9.384
26251WAT     H278996   1.526   7.041   9.240
26252WAT      O78997   5.548   2.548   8.558
26252WAT     H178998   5.636   2.586   8.531
26252WAT     H278999   5.564   2.470   8.620
26253WAT      O79000   3.426   0.037   1.425
26253WAT     H179001   3.392   0.090   1.347
26253WAT     H279002   3.476  -0.042   1.392
26254WAT      O79003   6.763   4.734   5.146
26254WAT     H179004   6.679   4.788   5.136
26254WAT     H279005   6.791   4.700   5.057
26255WAT      O79006   7.638   5.775   5.324
26255WAT     H179007   7.709   5.789   5.394
26255WAT     H279008   7.678   5.792   5.234
26256WAT      O79009   9.821   9.836   0.993
26256WAT     H179010   9.768   9.783   0.928
26256WAT     H279011   9.918   9.831   0.969
26257WAT      O79012   8.411   3.791   2.003
26257WAT     H179013   8.346   3.865   1.987
26257WAT     H279014   8.504   3.828   2.004
26258WAT      O79015   9.030   8.797   7.368
26258WAT     H179016   9.037   8.884   7.418
26258WAT     H279017   8.976   8.732   7.422
26259WAT      O79018   8.055   7.065   9.169
26259WAT     H179019   7.989   6.990   9.162
26259WAT     H279020   8.027   7.139   9.107
26260WAT      O79021   6.736   7.906   4.073
26260WAT     H179022   6.717   7.862   4.161
26260WAT     H279023   6.789   7.844   4.015
26261WAT      O79024   8.187   1.754   8.383
26261WAT     H179025   8.218   1.697   8.459
26261WAT     H279026   8.127   1.700   8.323
26262WAT      O79027   6.104   2.308   3.733
26262WAT     H179028   6.085   2.391   3.680
26262WAT     H279029   6.107   2.230   3.671
26263WAT      O79030   7.136   9.463   1.861
26263WAT     H179031   7.222   9.470   1.912
26263WAT     H279032   7.154   9.474   1.763
26264WAT      O79033   7.375   9.182   3.839
26264WAT     H179034   7.344   9.089   3.860
26264WAT     H279035   7.319   9.220   3.766
26265WAT      O79036   7.510   8.045   8.195
26265WAT     H179037   7.593   8.043   8.139
26265WAT     H279038   7.450   7.970   8.168
26266WAT      O79039   5.947   6.300   1.323
26266WAT     H179040   5.935   6.243   1.242
26266WAT     H279041   5.900   6.258   1.401
26267WAT      O79042   3.619   7.713   3.565
26267WAT     H179043   3.673   7.698   3.648
26267WAT     H279044   3.585   7.626   3.531
26268WAT      O79045   6.713   1.716   6.005
26268WAT     H179046   6.796   1.666   5.980
26268WAT     H279047   6.735   1.784   6.075
26269WAT      O79048   1.305   0.017   0.247
26269WAT     H179049   1.297  -0.070   0.199
26269WAT     H279050   1.386   0.066   0.214
26270WAT      O79051   6.444   6.610   9.521
26270WAT     H179052   6.418   6.514   9.507
26270WAT     H279053   6.453   6.655   9.432
26271WAT      O79054   5.374   5.107   8.247
26271WAT     H179055   5.378   5.068   8.339
26271WAT     H279056   5.373   5.206   8.252
26272WAT      O79057   6.412   4.020   7.795
26272WAT     H179058   6.505   3.984   7.802
26272WAT     H279059   6.350   3.945   7.773
26273WAT      O79060   6.551   0.854   3.598
26273WAT     H179061   6.615   0.787   3.635
26273WAT     H279062   6.505   0.816   3.517
26274WAT      O79063   5.229   6.917   4.658
26274WAT     H179064   5.218   6.861   4.576
26274WAT     H279065   5.156   6.985   4.662
26275WAT      O79066   4.192   1.087   9.206
26275WAT     H179067   4.213   1.051   9.297
26275WAT     H279068   4.125   1.161   9.215
26276WAT      O79069   3.911   4.862   8.075
26276WAT     H179070   3.964   4.797   8.129
26276WAT     H279071   3.841   4.813   8.023
26277WAT      O79072   2.020   4.072   4.509
26277WAT     H179073   2.036   4.147   4.445
26277WAT     H279074   2.059   3.988   4.471
26278WAT      O79075   2.428   5.535   6.123
26278WAT     H179076   2.469   5.517   6.213
26278WAT     H279077   2.450   5.459   6.061
26279WAT      O79078   5.825   4.029   2.798
26279WAT     H179079   5.737   4.011   2.842
26279WAT     H279080   5.867   3.942   2.772
26280WAT      O79081   1.205   3.807   3.857
26280WAT     H179082   1.145   3.869   3.806
26280WAT     H279083   1.260   3.860   3.921
26281WAT      O79084   4.207   9.587   0.093
26281WAT     H179085   4.216   9.640   0.009
26281WAT     H279086   4.135   9.627   0.150
26282WAT      O79087   8.018   1.083   0.400
26282WAT     H179088   8.063   1.007   0.355
26282WAT     H279089   7.924   1.057   0.424
26283WAT      O79090   7.878   8.850   3.260
26283WAT     H179091   7.897   8.899   3.175
26283WAT     H279092   7.845   8.914   3.329
26284WAT      O79093   2.039   0.599   5.524
26284WAT     H179094   1.971   0.557   5.464
26284WAT     H279095   2.124   0.611   5.473
26285WAT      O79096   4.215   9.488   2.035
26285WAT     H179097   4.172   9.407   1.995
26285WAT     H279098   4.164   9.514   2.118
26286WAT      O79099   8.173   3.107   9.512
26286WAT     H179100   8.250   3.169   9.497
26286WAT     H279101   8.087   3.157   9.503
26287WAT      O79102   3.401   2.673   5.971
26287WAT     H179103   3.340   2.627   6.036
26287WAT     H279104   3.469   2.607   5.937
26288WAT      O79105   5.832   0.902   4.722
26288WAT     H179106   5.846   0.844   4.802
26288WAT     H279107   5.776   0.982   4.748
26289WAT      O79108   6.256   6.169   2.644
26289WAT     H179109   6.340   6.150   2.593
26289WAT     H279110   6.222   6.259   2.619
26290WAT      O79111   8.175   9.783   5.878
26290WAT     H179112   8.099   9.743   5.828
26290WAT     H279113   8.140   9.858   5.936
26291WAT      O79114   1.695   9.076   2.712
26291WAT     H179115   1.595   9.078   2.723
26291WAT     H279116   1.724   8.982   2.695
26292WAT      O79117   1.720   0.451   3.372
26292WAT     H179118   1.682   0.367   3.410
26292WAT     H279119   1.688   0.529   3.425
26293WAT      O79120   0.463   9.478   3.821
26293WAT     H179121   0.504   9.532   3.747
26293WAT     H279122   0.364   9.490   3.819
26294WAT      O79123   6.814   8.348   8.737
26294WAT     H179124   6.778   8.404   8.662
26294WAT     H279125   6.762   8.263   8.743
26295WAT      O79126   3.164   7.525   8.802
26295WAT     H179127   3.154   7.440   8.855
26295WAT     H279128   3.097   7.525   8.728
26296WAT      O79129   5.861   9.730   2.985
26296WAT     H179130   5.960   9.721   2.990
26296WAT     H279131   5.819   9.640   2.971
26297WAT      O79132   2.751   6.555   9.391
26297WAT     H179133   2.703   6.577   9.306
26297WAT     H279134   2.830   6.615   9.402
26298WAT      O79135   7.416   6.215   8.957
26298WAT     H179136   7.326   6.256   8.942
26298WAT     H279137   7.462   6.263   9.032
26299WAT      O79138   6.222   6.355   9.455
26299WAT     H179139   6.182   6.274   9.412
26299WAT     H279140   6.280   6.326   9.531
26300WAT      O79141   3.792   9.138   6.368
26300WAT     H179142   3.835   9.179   6.448
26300WAT     H279143   3.804   9.199   6.290
26301WAT      O79144   4.119   8.182   0.621
26301WAT     H179145   4.055   8.257   0.640
26301WAT     H279146   4.178   8.208   0.544
26302WAT      O79147   6.606   1.366   3.500
26302WAT     H179148   6.699   1.393   3.475
26302WAT     H279149   6.594   1.268   3.483
26303WAT      O79150   0.146   7.625   0.844
26303WAT     H179151   0.156   7.587   0.936
26303WAT     H279152   0.107   7.556   0.783
26304WAT      O79153   5.379   2.534   1.323
26304WAT     H179154   5.378   2.634   1.333
26304WAT     H279155   5.459   2.497   1.371
26305WAT      O79156   7.940   5.301   4.699
26305WAT     H179157   7.854   5.332   4.659
26305WAT     H279158   7.926   5.212   4.744
26306WAT      O79159   9.678   2.737   6.268
26306WAT     H179160   9.714   2.661   6.322
26306WAT     H279161   9.611   2.703   6.203
26307WAT      O79162   9.689   2.258   1.154
26307WAT     H179163   9.718   2.267   1.059
26307WAT     H279164   9.762   2.215   1.207
26308WAT      O79165   2.809   8.937   7.743
26308WAT     H179166   2.785   9.034   7.744
26308WAT     H279167   2.818   8.905   7.649
26309WAT      O79168   2.935   9.610   2.706
26309WAT     H179169   2.851   9.664   2.712
26309WAT     H279170   2.994   9.631   2.784
26310WAT      O79171   8.498   6.971   7.842
26310WAT     H179172   8.485   7.035   7.917
26310WAT     H279173   8.420   6.977   7.780
26311WAT      O79174   1.314   9.824   4.455
26311WAT     H179175   1.300   9.922   4.447
26311WAT     H279176   1.384   9.806   4.524
26312WAT      O79177   8.858   3.629   3.849
26312WAT     H179178   8.828   3.563   3.917
26312WAT     H279179   8.866   3.584   3.760
26313WAT      O79180   3.641   5.046   8.610
26313WAT     H179181   3.683   4.963   8.650
26313WAT     H279182   3.656   5.123   8.672
26314WAT      O79183   2.004   7.256   8.150
26314WAT     H179184   2.085   7.252   8.208
26314WAT     H279185   2.012   7.332   8.086
26315WAT      O79186   4.188   1.447   2.761
26315WAT     H179187   4.210   1.455   2.859
26315WAT     H279188   4.089   1.450   2.748
26316WAT      O79189   0.728   0.649   4.143
26316WAT     H179190   0.666   0.619   4.070
26316WAT     H279191   0.813   0.683   4.103
26317WAT      O79192   4.967   5.313   6.802
26317WAT     H179193   5.064   5.291   6.813
26317WAT     H279194   4.957   5.391   6.739
26318WAT      O79195   6.048   3.139   3.433
26318WAT     H179196   6.019   3.079   3.359
26318WAT     H279197   6.088   3.223   3.395
26319WAT      O79198   0.566   8.693   7.182
26319WAT     H179199   0.658   8.668   7.212
26319WAT     H279200   0.543   8.644   7.098
26320WAT      O79201   3.799   3.249   3.918
26320WAT     H179202   3.774   3.213   3.828
26320WAT     H279203   3.751   3.196   3.989
26321WAT      O79204   2.574   0.906   7.013
26321WAT     H179205   2.647   0.975   7.018
26321WAT     H279206   2.535   0.894   7.104
26322WAT      O79207   0.988   2.876   7.469
26322WAT     H179208   0.971   2.825   7.385
26322WAT     H279209   0.924   2.953   7.474
26323WAT      O79210   4.670   3.676   7.301
26323WAT     H179211   4.603   3.624   7.248
26323WAT     H279212   4.634   3.692   7.393
26324WAT      O79213   2.005   3.296   8.193
26324WAT     H179214   2.059   3.356   8.133
26324WAT     H279215   2.066   3.239   8.247
26325WAT      O79216   4.879   4.239   0.643
26325WAT     H179217   4.960   4.265   0.696
26325WAT     H279218   4.885   4.143   0.617
26326WAT      O79219   1.388   1.305   0.700
26326WAT     H179220   1.298   1.268   0.723
26326WAT     H279221   1.403   1.389   0.752
26327WAT      O79222   7.354   9.033   1.290
26327WAT     H179223   7.341   9.069   1.382
26327WAT     H279224   7.318   8.940   1.285
26328WAT      O79225   5.894   7.782   0.342
26328WAT     H179226   5.927   7.854   0.403
26328WAT     H279227   5.885   7.819   0.249
26329WAT      O79228   7.430   8.144   5.089
26329WAT     H179229   7.403   8.138   5.185
26329WAT     H279230   7.496   8.072   5.068
26330WAT      O79231   1.403   5.618   7.554
26330WAT     H179232   1.382   5.685   7.484
26330WAT     H279233   1.339   5.627   7.630
26331WAT      O79234   1.284   0.666   6.019
26331WAT     H179235   1.348   0.640   5.947
26331WAT     H279236   1.191   0.645   5.989
26332WAT      O79237   7.826   2.268   2.455
26332WAT     H179238   7.870   2.308   2.374
26332WAT     H279239   7.756   2.330   2.489
26333WAT      O79240   0.442   1.131   6.219
26333WAT     H179241   0.412   1.057   6.280
26333WAT     H279242   0.427   1.103   6.124
26334WAT      O79243   0.639   3.858   1.528
26334WAT     H179244   0.733   3.828   1.541
26334WAT     H279245   0.630   3.953   1.559
26335WAT      O79246   1.767   3.332   3.979
26335WAT     H179247   1.720   3.383   4.051
26335WAT     H279248   1.865   3.346   3.987
26336WAT      O79249   9.315   2.719   2.581
26336WAT     H179250   9.329   2.621   2.567
26336WAT     H279251   9.379   2.751   2.651
26337WAT      O79252   9.486   3.686   8.621
26337WAT     H179253   9.388   3.701   8.606
26337WAT     H279254   9.499   3.620   8.695
26338WAT      O79255   9.675   0.324   7.849
26338WAT     H179256   9.681   0.414   7.890
26338WAT     H279257   9.607   0.324   7.776
26339WAT      O79258   3.577   5.676   1.512
26339WAT     H179259   3.599   5.581   1.489
26339WAT     H279260   3.621   5.737   1.446
26340WAT      O79261   0.005   6.992   2.064
26340WAT     H179262   0.039   7.071   2.013
26340WAT     H279263  -0.066   6.946   2.011
26341WAT      O79264   9.533   2.980   0.544
26341WAT     H179265   9.483   2.894   0.544
26341WAT     H279266   9.486   3.047   0.601
26342WAT      O79267   0.091   3.274   7.621
26342WAT     H179268   0.010   3.331   7.634
26342WAT     H279269   0.063   3.181   7.598
26343WAT      O79270   6.419   4.361   9.647
26343WAT     H179271   6.377   4.295   9.709
26343WAT     H279272   6.430   4.320   9.557
26344WAT      O79273   4.922   8.972   9.833
26344WAT     H179274   4.931   8.876   9.806
26344WAT     H279275   4.927   8.979   9.932
26345WAT      O79276   4.488   0.786   6.196
26345WAT     H179277   4.575   0.832   6.180
26345WAT     H279278   4.475   0.715   6.128
26346WAT      O79279   2.325   6.204   7.467
26346WAT     H179280   2.353   6.118   7.510
26346WAT     H279281   2.393   6.230   7.398
26347WAT      O79282   6.749   8.615   9.852
26347WAT     H179283   6.803   8.635   9.769
26347WAT     H279284   6.658   8.656   9.843
26348WAT      O79285   8.067   5.426   9.646
26348WAT     H179286   8.028   5.505   9.600
26348WAT     H279287   8.130   5.456   9.717
26349WAT      O79288   6.418   1.982   5.779
26349WAT     H179289   6.365   1.922   5.840
26349WAT     H279290   6.356   2.046   5.734
26350WAT      O79291   9.511   3.556   2.501
26350WAT     H179292   9.530   3.458   2.501
26350WAT     H279293   9.434   3.574   2.439
26351WAT      O79294   6.886   8.102   6.838
26351WAT     H179295   6.916   8.020   6.888
26351WAT     H279296   6.849   8.075   6.749
26352WAT      O79297   1.322   0.472   1.024
26352WAT     H179298   1.418   0.500   1.020
26352WAT     H279299   1.266   0.538   0.974
26353WAT      O79300   1.763   6.313   7.242
26353WAT     H179301   1.788   6.343   7.334
26353WAT     H279302   1.759   6.393   7.182
26354WAT      O79303   4.915   9.383   6.781
26354WAT     H179304   4.988   9.438   6.740
26354WAT     H279305   4.934   9.369   6.878
26355WAT      O79306   1.483   6.900   3.581
26355WAT     H179307   1.572   6.868   3.546
26355WAT     H279308   1.465   6.856   3.669
26356WAT      O79309   6.971   6.467   1.631
26356WAT     H179310   7.069   6.461   1.652
26356WAT     H279311   6.927   6.381   1.654
26357WAT      O79312   1.461   8.118   6.730
26357WAT     H179313   1.486   8.090   6.823
26357WAT     H279314   1.393   8.191   6.734
26358WAT      O79315   9.012   7.313   2.608
26358WAT     H179316   9.058   7.365   2.680
26358WAT     H279317   9.069   7.236   2.581
26359WAT      O79318   8.666   8.157   8.715
26359WAT     H179319   8.620   8.109   8.641
26359WAT     H279320   8.600   8.210   8.768
26360WAT      O79321   9.137   9.197   1.700
26360WAT     H179322   9.123   9.292   1.672
26360WAT     H279323   9.067   9.171   1.766
26361WAT      O79324   4.254   3.845   2.497
26361WAT     H179325   4.166   3.798   2.494
26361WAT     H279326   4.327   3.778   2.508
26362WAT      O79327   1.238   8.024   0.272
26362WAT     H179328   1.305   8.077   0.324
26362WAT     H279329   1.146   8.043   0.306
26363WAT      O79330   9.272   7.800   9.603
26363WAT     H179331   9.185   7.797   9.652
26363WAT     H279332   9.328   7.722   9.628
26364WAT      O79333   3.063   7.395   9.199
26364WAT     H179334   3.140   7.357   9.147
26364WAT     H279335   2.979   7.347   9.173
26365WAT      O79336   8.131   0.518   8.695
26365WAT     H179337   8.228   0.496   8.701
26365WAT     H279338   8.084   0.482   8.776
26366WAT      O79339   9.456   5.168   2.815
26366WAT     H179340   9.367   5.212   2.809
26366WAT     H279341   9.507   5.206   2.892
26367WAT      O79342   1.819   1.579   4.463
26367WAT     H179343   1.737   1.595   4.408
26367WAT     H279344   1.899   1.571   4.404
26368WAT      O79345   2.778   4.293   8.246
26368WAT     H179346   2.867   4.263   8.209
26368WAT     H279347   2.707   4.277   8.178
26369WAT      O79348   3.658   5.708   7.668
26369WAT     H179349   3.727   5.710   7.595
26369WAT     H279350   3.613   5.619   7.669
26370WAT      O79351   9.063   2.292   2.835
26370WAT     H179352   8.979   2.281   2.888
26370WAT     H279353   9.113   2.372   2.867
26371WAT      O79354   9.675   2.871   0.201
26371WAT     H179355   9.720   2.926   0.130
26371WAT     H279356   9.597   2.824   0.162
26372WAT      O79357   9.359   4.091   0.780
26372WAT     H179358   9.277   4.147   0.766
26372WAT     H279359   9.413   4.130   0.855
26373WAT      O79360   8.558   4.837   7.874
26373WAT     H179361   8.495   4.764   7.904
26373WAT     H279362   8.629   4.850   7.943
26374WAT      O79363   5.438   2.380   2.543
26374WAT     H179364   5.484   2.348   2.625
26374WAT     H279365   5.502   2.434   2.488
26375WAT      O79366   4.811   3.242   2.907
26375WAT     H179367   4.760   3.322   2.940
26375WAT     H279368   4.816   3.173   2.979
26376WAT      O79369   6.262   7.825   6.213
26376WAT     H179370   6.195   7.872   6.270
26376WAT     H279371   6.255   7.726   6.226
26377WAT      O79372   6.336   1.758   3.975
26377WAT     H179373   6.336   1.783   4.071
26377WAT     H279374   6.314   1.838   3.919
26378WAT      O79375   6.663   7.192   1.312
26378WAT     H179376   6.740   7.231   1.261
26378WAT     H279377   6.698   7.139   1.389
26379WAT      O79378   8.784   5.465   9.047
26379WAT     H179379   8.868   5.485   9.097
26379WAT     H279380   8.760   5.368   9.061
26380WAT      O79381   3.394   7.812   5.867
26380WAT     H179382   3.482   7.857   5.881
26380WAT     H279383   3.374   7.754   5.946
26381WAT      O79384   5.096   3.407   7.643
26381WAT     H179385   4.996   3.412   7.636
26381WAT     H279386   5.134   3.499   7.639
26382WAT      O79387   4.683   1.897   7.718
26382WAT     H179388   4.770   1.946   7.727
26382WAT     H279389   4.630   1.937   7.644
26383WAT      O79390   6.699   0.172   6.191
26383WAT     H179391   6.780   0.157   6.248
26383WAT     H279392   6.659   0.261   6.213
26384WAT      O79393   7.240   2.320   0.493
26384WAT     H179394   7.214   2.224   0.506
26384WAT     H279395   7.299   2.327   0.412
26385WAT      O79396   6.990   2.558   8.913
26385WAT     H179397   7.052   2.483   8.937
26385WAT     H279398   6.896   2.530   8.932
26386WAT      O79399   3.213   0.046   8.036
26386WAT     H179400   3.295   0.086   8.079
26386WAT     H279401   3.240  -0.003   7.953
26387WAT      O79402   2.867   4.638   3.106
26387WAT     H179403   2.955   4.609   3.143
26387WAT     H279404   2.833   4.570   3.042
26388WAT      O79405   5.421   0.892   5.845
26388WAT     H179406   5.509   0.911   5.802
26388WAT     H279407   5.436   0.864   5.940
26389WAT      O79408   7.400   8.764   3.262
26389WAT     H179409   7.490   8.720   3.262
26389WAT     H279410   7.331   8.699   3.231
26390WAT      O79411   6.078   5.038   6.858
26390WAT     H179412   6.078   5.039   6.758
26390WAT     H279413   6.099   5.129   6.893
26391WAT      O79414   4.987   7.771   8.222
26391WAT     H179415   4.987   7.863   8.183
26391WAT     H279416   5.007   7.704   8.151
26392WAT      O79417   7.854   0.330   4.891
26392WAT     H179418   7.854   0.402   4.822
26392WAT     H279419   7.874   0.242   4.848
26393WAT      O79420   5.476   8.890   5.929
26393WAT     H179421   5.547   8.932   5.873
26393WAT     H279422   5.452   8.800   5.891
26394WAT      O79423   3.002   7.949   4.986
26394WAT     H179424   2.989   7.967   4.888
26394WAT     H279425   3.032   7.855   4.999
26395WAT      O79426   4.537   0.820   0.615
26395WAT     H179427   4.580   0.757   0.680
26395WAT     H279428   4.451   0.853   0.653
26396WAT      O79429   4.739   3.695   8.163
26396WAT     H179430   4.722   3.671   8.258
26396WAT     H279431   4.731   3.794   8.151
26397WAT      O79432   7.533   0.609   5.091
26397WAT     H179433   7.437   0.637   5.101
26397WAT     H279434   7.537   0.517   5.051
26398WAT      O79435   3.943   8.785   0.573
26398WAT     H179436   4.000   8.865   0.554
26398WAT     H279437   3.863   8.785   0.513
26399WAT      O79438   0.223   3.877   5.861
26399WAT     H179439   0.152   3.925   5.913
26399WAT     H279440   0.311   3.888   5.907
26400WAT      O79441   7.664   6.632   5.009
26400WAT     H179442   7.623   6.561   4.952
26400WAT     H279443   7.605   6.713   5.009
26401WAT      O79444   9.408   8.591   9.612
26401WAT     H179445   9.424   8.503   9.656
26401WAT     H279446   9.369   8.655   9.678
26402WAT      O79447   5.539   7.713   4.316
26402WAT     H179448   5.479   7.703   4.237
26402WAT     H279449   5.493   7.678   4.398
26403WAT      O79450   2.136   6.213   8.552
26403WAT     H179451   2.120   6.137   8.615
26403WAT     H279452   2.127   6.180   8.458
26404WAT      O79453   8.062   2.529   2.984
26404WAT     H179454   7.991   2.527   2.915
26404WAT     H279455   8.063   2.618   3.029
26405WAT      O79456   3.907   7.314   0.656
26405WAT     H179457   3.974   7.338   0.586
26405WAT     H279458   3.950   7.322   0.746
26406WAT      O79459   8.403   8.059   7.913
26406WAT     H179460   8.334   8.092   7.848
26406WAT     H279461   8.494   8.074   7.875
26407WAT      O79462   3.126   6.532   8.502
26407WAT     H179463   3.172   6.557   8.417
26407WAT     H279464   3.035   6.495   8.482
26408WAT      O79465   0.495   8.380   2.010
26408WAT     H179466   0.527   8.463   1.965
26408WAT     H279467   0.571   8.334   2.054
26409WAT      O79468   1.016   1.052   3.472
26409WAT     H179469   1.055   0.977   3.419
26409WAT     H279470   1.004   1.023   3.567
26410WAT      O79471   4.872   7.282   9.729
26410WAT     H179472   4.776   7.278   9.702
26410WAT     H279473   4.918   7.197   9.703
26411WAT      O79474   1.072   9.609   7.231
26411WAT     H179475   0.992   9.550   7.222
26411WAT     H279476   1.142   9.562   7.285
26412WAT      O79477   7.020   3.765   3.862
26412WAT     H179478   7.078   3.755   3.943
26412WAT     H279479   7.058   3.835   3.802
26413WAT      O79480   1.672   8.886   3.806
26413WAT     H179481   1.682   8.792   3.838
26413WAT     H279482   1.762   8.925   3.786
26414WAT      O79483   7.517   8.544   6.990
26414WAT     H179484   7.506   8.643   6.984
26414WAT     H279485   7.435   8.499   6.953
26415WAT      O79486   8.257   5.444   1.576
26415WAT     H179487   8.162   5.415   1.591
26415WAT     H279488   8.314   5.408   1.649
26416WAT      O79489   5.353   1.463   0.230
26416WAT     H179490   5.419   1.486   0.160
26416WAT     H279491   5.266   1.508   0.210
26417WAT      O79492   2.277   0.882   1.487
26417WAT     H179493   2.313   0.791   1.506
26417WAT     H279494   2.353   0.946   1.474
26418WAT      O79495   2.692   7.845   8.426
26418WAT     H179496   2.685   7.936   8.469
26418WAT     H279497   2.789   7.824   8.410
26419WAT      O79498   3.628   1.987   1.024
26419WAT     H179499   3.553   1.924   1.048
26419WAT     H279500   3.634   1.996   0.925
26420WAT      O79501   5.124   2.656   2.549
26420WAT     H179502   5.188   2.630   2.621
26420WAT     H279503   5.099   2.574   2.496
26421WAT      O79504   3.656   0.689   9.492
26421WAT     H179505   3.717   0.620   9.531
26421WAT     H279506   3.697   0.726   9.409
26422WAT      O79507   7.594   0.464   1.594
26422WAT     H179508   7.671   0.518   1.559
26422WAT     H279509   7.549   0.418   1.518
26423WAT      O79510   5.563   6.081   5.923
26423WAT     H179511   5.473   6.081   5.966
26423WAT     H279512   5.620   6.010   5.963
26424WAT      O79513   3.907   4.724   3.228
26424WAT     H179514   3.965   4.704   3.149
26424WAT     H279515   3.911   4.821   3.249
26425WAT      O79516   3.705   8.243   4.618
26425WAT     H179517   3.608   8.261   4.602
26425WAT     H279518   3.758   8.325   4.600
26426WAT      O79519   8.807   6.454   4.666
26426WAT     H179520   8.734   6.422   4.605
26426WAT     H279521   8.874   6.506   4.613
26427WAT      O79522   0.766   4.837   2.986
26427WAT     H179523   0.782   4.822   3.083
26427WAT     H279524   0.779   4.934   2.965
26428WAT      O79525   5.302   5.949   0.024
26428WAT     H179526   5.247   5.953   0.107
26428WAT     H279527   5.359   6.031   0.018
26429WAT      O79528   3.531   7.857   4.072
26429WAT     H179529   3.585   7.898   3.998
26429WAT     H279530   3.590   7.799   4.128
26430WAT      O79531   5.650   7.510   6.770
26430WAT     H179532   5.695   7.427   6.737
26430WAT     H279533   5.555   7.490   6.793
26431WAT      O79534   7.781   4.065   8.880
26431WAT     H179535   7.790   4.137   8.811
26431WAT     H279536   7.867   4.013   8.886
26432WAT      O79537   1.662   1.279   5.377
26432WAT     H179538   1.653   1.252   5.282
26432WAT     H279539   1.758   1.295   5.398
26433WAT      O79540   1.327   4.033   4.312
26433WAT     H179541   1.427   4.032   4.314
26433WAT     H279542   1.294   3.955   4.260
26434WAT      O79543   3.818   3.926   7.166
26434WAT     H179544   3.907   3.951   7.127
26434WAT     H279545   3.819   3.829   7.193
26435WAT      O79546   3.829   9.409   1.380
26435WAT     H179547   3.733   9.383   1.380
26435WAT     H279548   3.839   9.502   1.344
26436WAT      O79549   3.466   5.385   2.669
26436WAT     H179550   3.510   5.301   2.701
26436WAT     H279551   3.529   5.461   2.679
26437WAT      O79552   6.888   7.385   2.935
26437WAT     H179553   6.958   7.436   2.983
26437WAT     H279554   6.913   7.289   2.932
26438WAT      O79555   7.096   6.532   0.736
26438WAT     H179556   7.107   6.433   0.745
26438WAT     H279557   7.118   6.560   0.642
26439WAT      O79558   2.787   9.208   9.037
26439WAT     H179559   2.719   9.159   9.091
26439WAT     H279560   2.872   9.217   9.090
26440WAT      O79561   0.278   9.060   4.426
26440WAT     H179562   0.180   9.069   4.439
26440WAT     H279563   0.327   9.101   4.503
26441WAT      O79564   0.867   2.968   8.036
26441WAT     H179565   0.890   3.041   8.100
26441WAT     H279566   0.902   2.992   7.945
26442WAT      O79567   0.764   2.377   2.907
26442WAT     H179568   0.824   2.298   2.913
26442WAT     H279569   0.764   2.412   2.813
26443WAT      O79570   4.140   5.636   6.531
26443WAT     H179571   4.149   5.617   6.433
26443WAT     H279572   4.203   5.579   6.583
26444WAT      O79573   9.416   6.928   1.802
26444WAT     H179574   9.451   6.999   1.863
26444WAT     H279575   9.492   6.888   1.751
26445WAT      O79576   3.759   7.239   5.185
26445WAT     H179577   3.843   7.184   5.178
26445WAT     H279578   3.724   7.258   5.094
26446WAT      O79579   7.048   1.164   2.177
26446WAT     H179580   7.069   1.109   2.258
26446WAT     H279581   7.015   1.104   2.104
26447WAT      O79582   0.177   3.480   0.396
26447WAT     H179583   0.126   3.395   0.383
26447WAT     H279584   0.256   3.463   0.455
26448WAT      O79585   7.185   1.778   6.348
26448WAT     H179586   7.178   1.825   6.260
26448WAT     H279587   7.106   1.718   6.360
26449WAT      O79588   5.193   4.033   5.926
26449WAT     H179589   5.241   4.119   5.941
26449WAT     H279590   5.106   4.035   5.974
26450WAT      O79591   3.866   6.665   0.847
26450WAT     H179592   3.963   6.656   0.872
26450WAT     H279593   3.813   6.685   0.930
26451WAT      O79594   1.378   6.715   0.748
26451WAT     H179595   1.363   6.676   0.657
26451WAT     H279596   1.450   6.664   0.795
26452WAT      O79597   5.591   9.257   6.382
26452WAT     H179598   5.648   9.245   6.300
26452WAT     H279599   5.496   9.239   6.359
26453WAT      O79600   4.459   6.747   7.741
26453WAT     H179601   4.371   6.762   7.696
26453WAT     H279602   4.508   6.672   7.696
26454WAT      O79603   7.924   7.122   2.684
26454WAT     H179604   7.859   7.072   2.741
26454WAT     H279605   7.976   7.057   2.629
26455WAT      O79606   7.448   5.435   1.606
26455WAT     H179607   7.365   5.466   1.652
26455WAT     H279608   7.528   5.459   1.661
26456WAT      O79609   2.918   5.921   5.083
26456WAT     H179610   2.930   5.838   5.029
26456WAT     H279611   3.007   5.956   5.111
26457WAT      O79612   0.083   7.294   1.732
26457WAT     H179613   0.006   7.229   1.733
26457WAT     H279614   0.125   7.293   1.641
26458WAT      O79615   2.492   4.663   7.557
26458WAT     H179616   2.458   4.623   7.642
26458WAT     H279617   2.426   4.646   7.483
26459WAT      O79618   5.233   2.035   2.159
26459WAT     H179619   5.267   2.106   2.222
26459WAT     H279620   5.186   2.079   2.082
26460WAT      O79621   1.117   3.687   8.625
26460WAT     H179622   1.055   3.639   8.563
26460WAT     H279623   1.132   3.631   8.707
26461WAT      O79624   5.962   4.403   7.808
26461WAT     H179625   5.983   4.311   7.841
26461WAT     H279626   5.873   4.431   7.845
26462WAT      O79627   9.551   0.933   3.453
26462WAT     H179628   9.571   0.843   3.415
26462WAT     H279629   9.476   0.926   3.519
26463WAT      O79630   3.726   3.683   7.628
26463WAT     H179631   3.806   3.631   7.599
26463WAT     H279632   3.731   3.776   7.590
26464WAT      O79633   7.098   6.180   4.702
26464WAT     H179634   7.126   6.245   4.630
26464WAT     H279635   7.020   6.126   4.670
26465WAT      O79636   0.331   5.296   4.082
26465WAT     H179637   0.356   5.279   3.987
26465WAT     H279638   0.246   5.247   4.104
26466WAT      O79639   7.445   3.415   6.668
26466WAT     H179640   7.387   3.333   6.665
26466WAT     H279641   7.541   3.388   6.663
26467WAT      O79642   3.653   9.353   6.931
26467WAT     H179643   3.752   9.356   6.917
26467WAT     H279644   3.615   9.445   6.919
26468WAT      O79645   8.943   9.707   9.390
26468WAT     H179646   8.883   9.677   9.465
26468WAT     H279647   8.901   9.784   9.343
26469WAT      O79648   9.300   9.108   7.381
26469WAT     H179649   9.375   9.155   7.428
26469WAT     H279650   9.232   9.175   7.352
26470WAT      O79651   6.672   4.539   0.916
26470WAT     H179652   6.622   4.488   0.846
26470WAT     H279653   6.658   4.637   0.902
26471WAT      O79654   4.095   9.723   6.794
26471WAT     H179655   4.115   9.815   6.829
26471WAT     H279656   4.121   9.655   6.863
26472WAT      O79657   7.412   5.015   8.133
26472WAT     H179658   7.506   5.030   8.164
26472WAT     H279659   7.412   4.952   8.055
26473WAT      O79660   0.280   2.117   3.409
26473WAT     H179661   0.209   2.111   3.339
26473WAT     H279662   0.274   2.037   3.469
26474WAT      O79663   6.354   8.760   5.757
26474WAT     H179664   6.274   8.789   5.704
26474WAT     H279665   6.339   8.781   5.854
26475WAT      O79666   9.548   9.156   2.721
26475WAT     H179667   9.505   9.119   2.639
26475WAT     H279668   9.647   9.144   2.714
26476WAT      O79669   6.317   1.314   6.130
26476WAT     H179670   6.325   1.364   6.216
26476WAT     H279671   6.381   1.237   6.130
26477WAT      O79672   5.073   1.323   3.089
26477WAT     H179673   5.116   1.236   3.068
26477WAT     H279674   5.119   1.364   3.168
26478WAT      O79675   0.213   2.806   8.542
26478WAT     H179676   0.224   2.708   8.552
26478WAT     H279677   0.286   2.853   8.591
26479WAT      O79678   0.152   1.498   1.325
26479WAT     H179679   0.131   1.410   1.368
26479WAT     H279680   0.066   1.543   1.300
26480WAT      O79681   7.333   7.266   6.387
26480WAT     H179682   7.342   7.218   6.474
26480WAT     H279683   7.305   7.361   6.404
26481WAT      O79684   1.803   6.213   6.355
26481WAT     H179685   1.852   6.251   6.433
26481WAT     H279686   1.760   6.287   6.303
26482WAT      O79687   7.379   5.552   6.559
26482WAT     H179688   7.347   5.502   6.479
26482WAT     H279689   7.439   5.493   6.614
26483WAT      O79690   1.875   5.718   5.627
26483WAT     H179691   1.846   5.798   5.679
26483WAT     H279692   1.975   5.718   5.617
26484WAT      O79693   4.944   2.019   7.708
26484WAT     H179694   4.965   1.959   7.631
26484WAT     H279695   4.974   2.112   7.687
26485WAT      O79696   7.825   0.943   9.297
26485WAT     H179697   7.837   0.950   9.198
26485WAT     H279698   7.900   0.991   9.343
26486WAT      O79699   5.538   3.823   9.544
26486WAT     H179700   5.438   3.817   9.541
26486WAT     H279701   5.574   3.747   9.598
26487WAT      O79702   9.332   2.685   3.447
26487WAT     H179703   9.376   2.754   3.390
26487WAT     H279704   9.299   2.728   3.532
26488WAT      O79705   1.728   4.434   0.381
26488WAT     H179706   1.767   4.342   0.379
26488WAT     H279707   1.760   4.482   0.462
26489WAT      O79708   4.953   5.421   0.953
26489WAT     H179709   5.001   5.504   0.979
26489WAT     H279710   4.854   5.434   0.963
26490WAT      O79711   2.191   8.087   8.029
26490WAT     H179712   2.107   8.040   8.001
26490WAT     H279713   2.190   8.181   7.995
26491WAT      O79714   9.421   1.840   6.141
26491WAT     H179715   9.506   1.834   6.089
26491WAT     H279716   9.387   1.748   6.161
26492WAT      O79717   5.005   0.020   8.422
26492WAT     H179718   4.949  -0.016   8.348
26492WAT     H279719   5.029  -0.054   8.485
26493WAT      O79720   2.889   2.185   0.869
26493WAT     H179721   2.826   2.234   0.929
26493WAT     H279722   2.972   2.240   0.855
26494WAT      O79723   2.693   8.901   5.171
26494WAT     H179724   2.789   8.874   5.162
26494WAT     H279725   2.683   8.997   5.144
26495WAT      O79726   7.705   3.331   6.827
26495WAT     H179727   7.761   3.340   6.745
26495WAT     H279728   7.731   3.402   6.893
26496WAT      O79729   1.280   1.359   7.133
26496WAT     H179730   1.193   1.321   7.101
26496WAT     H279731   1.278   1.367   7.233
26497WAT      O79732   3.046   2.080   3.770
26497WAT     H179733   3.060   2.005   3.706
26497WAT     H279734   3.134   2.126   3.787
26498WAT      O79735   5.169   6.768   4.453
26498WAT     H179736   5.083   6.783   4.406
26498WAT     H279737   5.243   6.760   4.387
26499WAT      O79738   5.947   3.094   4.937
26499WAT     H179739   5.881   3.090   4.862
26499WAT     H279740   6.005   3.013   4.934
26500WAT      O79741   3.650   5.491   4.315
26500WAT     H179742   3.624   5.400   4.282
26500WAT     H279743   3.569   5.536   4.354
26501WAT      O79744   6.509   4.745   2.110
26501WAT     H179745   6.592   4.717   2.060
26501WAT     H279746   6.471   4.827   2.067
26502WAT      O79747   7.118   2.953   3.810
26502WAT     H179748   7.050   2.927   3.878
26502WAT     H279749   7.133   2.878   3.746
26503WAT      O79750   2.631   4.753   1.735
26503WAT     H179751   2.597   4.659   1.740
26503WAT     H279752   2.712   4.762   1.794
26504WAT      O79753   0.855   7.588   8.764
26504WAT     H179754   0.884   7.505   8.717
26504WAT     H279755   0.755   7.590   8.770
26505WAT      O79756   7.353   9.120   1.030
26505WAT     H179757   7.296   9.199   1.009
26505WAT     H279758   7.361   9.109   1.129
26506WAT      O79759   1.605   7.699   0.705
26506WAT     H179760   1.654   7.784   0.725
26506WAT     H279761   1.622   7.672   0.610
26507WAT      O79762   3.185   1.350   3.165
26507WAT     H179763   3.093   1.386   3.148
26507WAT     H279764   3.249   1.389   3.100
26508WAT      O79765   4.391   3.429   5.522
26508WAT     H179766   4.420   3.485   5.445
26508WAT     H279767   4.443   3.455   5.604
26509WAT      O79768   2.530   0.526   7.892
26509WAT     H179769   2.511   0.448   7.952
26509WAT     H279770   2.530   0.494   7.797
26510WAT      O79771   1.880   7.634   1.568
26510WAT     H179772   1.906   7.620   1.472
26510WAT     H279773   1.959   7.668   1.619
26511WAT      O79774   4.253   5.402   3.174
26511WAT     H179775   4.209   5.341   3.240
26511WAT     H279776   4.270   5.352   3.089
26512WAT      O79777   0.083   5.912   0.108
26512WAT     H179778   0.047   5.864   0.028
26512WAT     H279779   0.045   5.872   0.191
26513WAT      O79780   8.188   6.303   4.335
26513WAT     H179781   8.117   6.297   4.406
26513WAT     H279782   8.161   6.246   4.257
26514WAT      O79783   7.690   3.636   3.587
26514WAT     H179784   7.757   3.563   3.576
26514WAT     H279785   7.694   3.698   3.508
26515WAT      O79786   2.604   0.919   9.345
26515WAT     H179787   2.624   1.010   9.379
26515WAT     H279788   2.593   0.856   9.422
26516WAT      O79789   3.564   8.843   1.015
26516WAT     H179790   3.513   8.886   0.940
26516WAT     H279791   3.523   8.754   1.036
26517WAT      O79792   2.549   8.518   1.562
26517WAT     H179793   2.642   8.513   1.597
26517WAT     H279794   2.505   8.428   1.570
26518WAT      O79795   4.357   9.006   7.694
26518WAT     H179796   4.324   9.090   7.652
26518WAT     H279797   4.415   8.957   7.630
26519WAT      O79798   4.526   8.464   8.404
26519WAT     H179799   4.512   8.563   8.413
26519WAT     H279800   4.508   8.437   8.309
26520WAT      O79801   8.324   6.259   1.380
26520WAT     H179802   8.278   6.218   1.301
26520WAT     H279803   8.299   6.209   1.463
26521WAT      O79804   2.078   4.934   3.631
26521WAT     H179805   2.079   4.865   3.558
26521WAT     H279806   2.135   4.904   3.707
26522WAT      O79807   6.384   0.061   4.823
26522WAT     H179808   6.330   0.023   4.748
26522WAT     H279809   6.348   0.028   4.910
26523WAT      O79810   4.463   0.107   2.735
26523WAT     H179811   4.389   0.049   2.702
26523WAT     H279812   4.516   0.142   2.657
26524WAT      O79813   8.280   0.592   2.277
26524WAT     H179814   8.330   0.583   2.363
26524WAT     H279815   8.300   0.681   2.236
26525WAT      O79816   5.633   8.752   7.602
26525WAT     H179817   5.561   8.744   7.533
26525WAT     H279818   5.678   8.664   7.614
26526WAT      O79819   4.982   9.256   8.530
26526WAT     H179820   5.039   9.271   8.450
26526WAT     H279821   4.931   9.171   8.520
26527WAT      O79822   1.559   4.034   7.639
26527WAT     H179823   1.568   3.960   7.705
26527WAT     H279824   1.537   3.996   7.549
26528WAT      O79825   7.682   9.618   7.846
26528WAT     H179826   7.652   9.579   7.933
26528WAT     H279827   7.614   9.596   7.775
26529WAT      O79828   7.220   2.791   6.446
26529WAT     H179829   7.288   2.848   6.400
26529WAT     H279830   7.167   2.740   6.378
26530WAT      O79831   8.143   9.355   3.499
26530WAT     H179832   8.226   9.309   3.529
26530WAT     H279833   8.068   9.289   3.490
26531WAT      O79834   2.644   0.519   3.765
26531WAT     H179835   2.616   0.475   3.850
26531WAT     H279836   2.578   0.591   3.741
26532WAT      O79837   8.085   5.970   5.461
26532WAT     H179838   8.150   5.895   5.477
26532WAT     H279839   8.135   6.050   5.429
26533WAT      O79840   6.703   3.640   0.876
26533WAT     H179841   6.758   3.557   0.866
26533WAT     H279842   6.753   3.705   0.934
26534WAT      O79843   9.554   7.547   3.793
26534WAT     H179844   9.606   7.593   3.865
26534WAT     H279845   9.604   7.553   3.707
26535WAT      O79846   8.859   6.492   5.155
26535WAT     H179847   8.951   6.486   5.193
26535WAT     H279848   8.856   6.446   5.067
26536WAT      O79849   5.293   7.711   1.040
26536WAT     H179850   5.241   7.714   1.125
26536WAT     H279851   5.281   7.797   0.990
26537WAT      O79852   6.447   3.265   5.261
26537WAT     H179853   6.416   3.270   5.356
26537WAT     H279854   6.537   3.222   5.258
26538WAT      O79855   0.865   3.312   4.379
26538WAT     H179856   0.942   3.376   4.376
26538WAT     H279857   0.846   3.288   4.474
26539WAT      O79858   4.126   4.806   1.105
26539WAT     H179859   4.178   4.725   1.077
26539WAT     H279860   4.051   4.821   1.040
26540WAT      O79861   9.077   4.090   3.996
26540WAT     H179862   9.030   4.143   4.068
26540WAT     H279863   9.067   3.993   4.016
26541WAT      O79864   7.698   2.888   9.186
26541WAT     H179865   7.629   2.820   9.212
26541WAT     H279866   7.705   2.958   9.257
26542WAT      O79867   7.462   9.187   2.595
26542WAT     H179868   7.548   9.148   2.628
26542WAT     H279869   7.460   9.285   2.615
26543WAT      O79870   5.652   7.628   9.157
26543WAT     H179871   5.725   7.689   9.127
26543WAT     H279872   5.594   7.604   9.079
26544WAT      O79873   7.041   0.958   2.902
26544WAT     H179874   7.115   0.902   2.941
26544WAT     H279875   6.954   0.911   2.914
26545WAT      O79876   5.093   6.791   6.080
26545WAT     H179877   5.026   6.749   6.018
26545WAT     H279878   5.080   6.890   6.080
26546WAT      O79879   8.327   4.087   8.515
26546WAT     H179880   8.329   4.096   8.416
26546WAT     H279881   8.419   4.096   8.552
26547WAT      O79882   0.628   8.601   1.617
26547WAT     H179883   0.603   8.505   1.602
26547WAT     H279884   0.665   8.640   1.532
26548WAT      O79885   6.498   6.173   2.497
26548WAT     H179886   6.559   6.251   2.511
26548WAT     H279887   6.543   6.089   2.526
26549WAT      O79888   3.716   5.965   5.014
26549WAT     H179889   3.688   6.057   5.044
26549WAT     H279890   3.663   5.940   4.933
26550WAT      O79891   3.695   8.381   9.250
26550WAT     H179892   3.666   8.293   9.288
26550WAT     H279893   3.739   8.435   9.322
26551WAT      O79894   5.129   2.231   7.396
26551WAT     H179895   5.161   2.169   7.325
26551WAT     H279896   5.084   2.310   7.354
26552WAT      O79897   8.982   1.652   7.254
26552WAT     H179898   8.958   1.676   7.348
26552WAT     H279899   9.047   1.720   7.218
26553WAT      O79900   5.165   4.886   7.627
26553WAT     H179901   5.183   4.893   7.529
26553WAT     H279902   5.119   4.969   7.659
26554WAT      O79903   4.390   6.814   1.069
26554WAT     H179904   4.346   6.895   1.031
26554WAT     H279905   4.403   6.746   0.997
26555WAT      O79906   5.840   8.538   2.622
26555WAT     H179907   5.762   8.516   2.564
26555WAT     H279908   5.854   8.466   2.690
26556WAT      O79909   9.633   0.836   0.709
26556WAT     H179910   9.537   0.860   0.709
26556WAT     H279911   9.689   0.918   0.694
26557WAT      O79912   8.864   2.445   1.338
26557WAT     H179913   8.802   2.383   1.289
26557WAT     H279914   8.826   2.537   1.336
26558WAT      O79915   2.506   4.676   4.753
26558WAT     H179916   2.409   4.662   4.730
26558WAT     H279917   2.555   4.589   4.746
26559WAT      O79918   1.319   7.010   3.830
26559WAT     H179919   1.376   6.928   3.827
26559WAT     H279920   1.315   7.045   3.924
26560WAT      O79921   9.597   3.689   0.820
26560WAT     H179922   9.559   3.776   0.849
26560WAT     H279923   9.555   3.615   0.873
26561WAT      O79924   4.284   9.681   7.837
26561WAT     H179925   4.336   9.623   7.774
26561WAT     H279926   4.341   9.706   7.915
26562WAT      O79927   7.957   0.292   2.999
26562WAT     H179928   7.941   0.196   2.975
26562WAT     H279929   7.878   0.329   3.047
26563WAT      O79930   7.510   0.916   7.178
26563WAT     H179931   7.514   0.975   7.258
26563WAT     H279932   7.429   0.940   7.123
26564WAT      O79933   3.878   1.824   3.899
26564WAT     H179934   3.779   1.838   3.906
26564WAT     H279935   3.925   1.910   3.919
26565WAT      O79936   8.100   1.590   0.029
26565WAT     H179937   8.155   1.583  -0.054
26565WAT     H279938   8.150   1.640   0.099
26566WAT      O79939   9.129   4.154   3.405
26566WAT     H179940   9.150   4.200   3.319
26566WAT     H279941   9.039   4.183   3.438
26567WAT      O79942   3.648   6.631   3.259
26567WAT     H179943   3.660   6.541   3.300
26567WAT     H279944   3.698   6.636   3.172
26568WAT      O79945   9.005   6.668   7.926
26568WAT     H179946   8.998   6.569   7.935
26568WAT     H279947   9.097   6.698   7.952
26569WAT      O79948   7.070   9.809   7.277
26569WAT     H179949   7.007   9.734   7.258
26569WAT     H279950   7.106   9.846   7.192
26570WAT      O79951   8.473   2.104   5.744
26570WAT     H179952   8.415   2.149   5.812
26570WAT     H279953   8.436   2.121   5.653
26571WAT      O79954   6.764   0.624   3.585
26571WAT     H179955   6.851   0.667   3.609
26571WAT     H279956   6.766   0.528   3.615
26572WAT      O79957   0.198   4.231   8.108
26572WAT     H179958   0.274   4.291   8.083
26572WAT     H279959   0.118   4.286   8.132
26573WAT      O79960   0.905   8.497   1.341
26573WAT     H179961   0.962   8.550   1.279
26573WAT     H279962   0.950   8.410   1.362
26574WAT      O79963   2.504   4.951   4.182
26574WAT     H179964   2.473   5.044   4.206
26574WAT     H279965   2.593   4.956   4.138
26575WAT      O79966   1.011   7.323   7.691
26575WAT     H179967   1.086   7.370   7.646
26575WAT     H279968   0.995   7.235   7.647
26576WAT      O79969   0.485   1.490   3.031
26576WAT     H179970   0.387   1.510   3.036
26576WAT     H279971   0.532   1.565   2.985
26577WAT      O79972   8.145   6.941   4.074
26577WAT     H179973   8.099   6.882   4.141
26577WAT     H279974   8.149   7.035   4.109
26578WAT      O79975   2.723   2.582   3.510
26578WAT     H179976   2.765   2.668   3.540
26578WAT     H279977   2.685   2.534   3.590
26579WAT      O79978   4.591   6.603   5.445
26579WAT     H179979   4.597   6.659   5.527
26579WAT     H279980   4.542   6.518   5.465
26580WAT      O79981   6.764   6.422   3.428
26580WAT     H179982   6.834   6.488   3.403
26580WAT     H279983   6.706   6.460   3.500
26581WAT      O79984   1.068   1.577   0.217
26581WAT     H179985   1.156   1.540   0.246
26581WAT     H279986   1.030   1.635   0.290
26582WAT      O79987   5.270   9.535   3.119
26582WAT     H179988   5.214   9.605   3.076
26582WAT     H279989   5.359   9.574   3.143
26583WAT      O79990   5.121   4.072   3.144
26583WAT     H179991   5.220   4.065   3.147
26583WAT     H279992   5.080   3.986   3.174
26584WAT      O79993   8.395   4.354   2.166
26584WAT     H179994   8.488   4.324   2.143
26584WAT     H279995   8.356   4.291   2.234
26585WAT      O79996   6.163   8.485   2.768
26585WAT     H179997   6.201   8.393   2.759
26585WAT     H279998   6.064   8.478   2.785
26586WAT      O79999   3.516   1.470   1.875
26586WAT     H180000   3.586   1.536   1.901
26586WAT     H280001   3.560   1.382   1.855
26587WAT      O80002   0.934   4.878   9.080
26587WAT     H180003   0.898   4.816   9.010
26587WAT     H280004   0.975   4.957   9.035
26588WAT      O80005   1.257   5.581   9.571
26588WAT     H180006   1.249   5.498   9.515
26588WAT     H280007   1.316   5.563   9.649
26589WAT      O80008   8.722   4.363   5.054
26589WAT     H180009   8.774   4.293   5.006
26589WAT     H280010   8.678   4.423   4.987
26590WAT      O80011   5.744   9.263   4.642
26590WAT     H180012   5.685   9.264   4.561
26590WAT     H280013   5.838   9.246   4.615
26591WAT      O80014   4.498   6.988   9.806
26591WAT     H180015   4.412   7.038   9.799
26591WAT     H280016   4.564   7.041   9.860
26592WAT      O80017   7.651   8.656   3.267
26592WAT     H180018   7.681   8.561   3.271
26592WAT     H280019   7.730   8.717   3.265
26593WAT      O80020   6.205   3.129   8.654
26593WAT     H180021   6.189   3.212   8.602
26593WAT     H280022   6.232   3.153   8.748
26594WAT      O80023   1.279   1.180   3.447
26594WAT     H180024   1.196   1.125   3.447
26594WAT     H280025   1.262   1.268   3.404
26595WAT      O80026   8.825   2.760   0.901
26595WAT     H180027   8.819   2.825   0.825
26595WAT     H280028   8.917   2.721   0.905
26596WAT      O80029   5.521   8.014   5.436
26596WAT     H180030   5.553   7.985   5.345
26596WAT     H280031   5.466   7.941   5.476
26597WAT      O80032   6.572   6.085   3.151
26597WAT     H180033   6.552   6.160   3.088
26597WAT     H280034   6.604   6.122   3.238
26598WAT      O80035   3.631   8.027   2.741
26598WAT     H180036   3.729   8.006   2.742
26598WAT     H280037   3.585   7.969   2.674
26599WAT      O80038   2.715   6.218   9.821
26599WAT     H180039   2.655   6.261   9.889
26599WAT     H280040   2.738   6.285   9.751
26600WAT      O80041   5.620   7.729   7.870
26600WAT     H180042   5.595   7.812   7.819
26600WAT     H280043   5.662   7.755   7.957
26601WAT      O80044   2.296   0.730   8.298
26601WAT     H180045   2.332   0.656   8.354
26601WAT     H280046   2.368   0.767   8.240
26602WAT      O80047   1.782   2.018   0.130
26602WAT     H180048   1.756   2.074   0.051
26602WAT     H280049   1.878   2.034   0.152
26603WAT      O80050   9.538   3.966   4.418
26603WAT     H180051   9.619   3.938   4.469
26603WAT     H280052   9.546   3.939   4.322
26604WAT      O80053   4.277   8.645   8.042
26604WAT     H180054   4.183   8.630   8.012
26604WAT     H280055   4.280   8.720   8.107
26605WAT      O80056   0.353   0.419   1.842
26605WAT     H180057   0.426   0.478   1.807
26605WAT     H280058   0.370   0.399   1.939
26606WAT      O80059   5.160   4.724   1.047
26606WAT     H180060   5.224   4.781   0.996
26606WAT     H280061   5.091   4.687   0.985
26607WAT      O80062   3.602   2.983   9.343
26607WAT     H180063   3.582   2.997   9.440
26607WAT     H280064   3.545   3.044   9.288
26608WAT      O80065   1.827   6.500   1.205
26608WAT     H180066   1.841   6.410   1.247
26608WAT     H280067   1.906   6.522   1.148
26609WAT      O80068   7.687   9.111   1.052
26609WAT     H180069   7.650   9.130   0.961
26609WAT     H280070   7.613   9.110   1.119
26610WAT      O80071   8.525   4.438   2.604
26610WAT     H180072   8.534   4.527   2.559
26610WAT     H280073   8.565   4.366   2.546
26611WAT      O80074   1.079   7.574   7.004
26611WAT     H180075   1.004   7.597   7.066
26611WAT     H280076   1.157   7.539   7.057
26612WAT      O80077   0.939   2.150   3.719
26612WAT     H180078   0.899   2.229   3.764
26612WAT     H280079   0.945   2.166   3.620
26613WAT      O80080   3.604   5.663   8.974
26613WAT     H180081   3.591   5.654   9.072
26613WAT     H280082   3.563   5.749   8.942
26614WAT      O80083   2.481   6.466   1.824
26614WAT     H180084   2.427   6.529   1.768
26614WAT     H280085   2.546   6.517   1.879
26615WAT      O80086   9.300   8.097   2.301
26615WAT     H180087   9.205   8.106   2.331
26615WAT     H280088   9.356   8.062   2.376
26616WAT      O80089   7.332   9.361   2.941
26616WAT     H180090   7.354   9.303   3.020
26616WAT     H280091   7.415   9.376   2.887
26617WAT      O80092   8.338   4.741   3.004
26617WAT     H180093   8.332   4.837   3.030
26617WAT     H280094   8.334   4.734   2.904
26618WAT      O80095   0.099   8.921   2.880
26618WAT     H180096   0.034   8.855   2.918
26618WAT     H280097   0.172   8.871   2.833
26619WAT      O80098   2.929   6.706   9.774
26619WAT     H180099   2.831   6.702   9.757
26619WAT     H280100   2.967   6.788   9.731
26620WAT      O80101   7.017   9.171   4.053
26620WAT     H180102   6.994   9.076   4.033
26620WAT     H280103   6.934   9.221   4.076
26621WAT      O80104   2.696   3.508   3.353
26621WAT     H180105   2.671   3.571   3.427
26621WAT     H280106   2.631   3.433   3.350
26622WAT      O80107   2.637   6.008   1.069
26622WAT     H180108   2.737   6.003   1.064
26622WAT     H280109   2.606   5.972   1.157
26623WAT      O80110   3.986   2.910   3.192
26623WAT     H180111   3.997   2.925   3.291
26623WAT     H280112   3.954   2.995   3.149
26624WAT      O80113   6.313   4.773   1.175
26624WAT     H180114   6.327   4.801   1.270
26624WAT     H280115   6.347   4.680   1.163
26625WAT      O80116   7.810   6.892   1.329
26625WAT     H180117   7.811   6.979   1.378
26625WAT     H280118   7.750   6.899   1.249
26626WAT      O80119   7.441   2.141   4.696
26626WAT     H180120   7.456   2.068   4.629
26626WAT     H280121   7.423   2.227   4.648
26627WAT      O80122   3.157   0.312   1.789
26627WAT     H180123   3.253   0.292   1.810
26627WAT     H280124   3.130   0.261   1.708
26628WAT      O80125   2.574   2.151   4.947
26628WAT     H180126   2.588   2.136   5.045
26628WAT     H280127   2.662   2.146   4.899
26629WAT      O80128   8.592   2.164   8.323
26629WAT     H180129   8.573   2.069   8.300
26629WAT     H280130   8.682   2.170   8.366
26630WAT      O80131   5.882   3.812   2.432
26630WAT     H180132   5.956   3.841   2.493
26630WAT     H280133   5.899   3.720   2.398
26631WAT      O80134   2.142   9.497   2.054
26631WAT     H180135   2.221   9.436   2.045
26631WAT     H280136   2.166   9.573   2.115
26632WAT      O80137   0.245   5.705   1.289
26632WAT     H180138   0.276   5.791   1.248
26632WAT     H280139   0.198   5.650   1.220
26633WAT      O80140   1.737   7.090   4.178
26633WAT     H180141   1.679   7.055   4.104
26633WAT     H280142   1.805   7.153   4.140
26634WAT      O80143   8.252   4.801   0.601
26634WAT     H180144   8.202   4.734   0.546
26634WAT     H280145   8.217   4.799   0.695
26635WAT      O80146   7.909   6.234   8.464
26635WAT     H180147   7.922   6.150   8.517
26635WAT     H280148   7.903   6.212   8.367
26636WAT      O80149   0.626   6.212   3.092
26636WAT     H180150   0.644   6.124   3.049
26636WAT     H280151   0.678   6.283   3.045
26637WAT      O80152   0.719   2.911   0.383
26637WAT     H180153   0.780   2.924   0.304
26637WAT     H280154   0.631   2.955   0.365
26638WAT      O80155   0.515   4.624   2.218
26638WAT     H180156   0.492   4.654   2.310
26638WAT     H280157   0.436   4.578   2.177
26639WAT      O80158   5.290   1.135   0.276
26639WAT     H180159   5.311   1.161   0.371
26639WAT     H280160   5.300   1.214   0.217
26640WAT      O80161   9.592   1.205   8.261
26640WAT     H180162   9.525   1.177   8.330
26640WAT     H280163   9.549   1.202   8.171
26641WAT      O80164   1.861   3.360   0.384
26641WAT     H180165   1.767   3.385   0.404
26641WAT     H280166   1.864   3.304   0.301
26642WAT      O80167   2.866   2.507   6.764
26642WAT     H180168   2.876   2.465   6.854
26642WAT     H280169   2.795   2.459   6.713
26643WAT      O80170   8.203   5.735   4.092
26643WAT     H180171   8.172   5.775   4.005
26643WAT     H280172   8.290   5.777   4.118
26644WAT      O80173   1.573   5.886   3.550
26644WAT     H180174   1.625   5.822   3.494
26644WAT     H280175   1.624   5.971   3.561
26645WAT      O80176   0.350   5.581   6.163
26645WAT     H180177   0.442   5.601   6.128
26645WAT     H280178   0.283   5.632   6.109
26646WAT      O80179   4.069   5.459   6.735
26646WAT     H180180   4.060   5.557   6.754
26646WAT     H280181   4.166   5.437   6.721
26647WAT      O80182   1.138   5.740   0.481
26647WAT     H180183   1.039   5.728   0.470
26647WAT     H280184   1.158   5.835   0.503
26648WAT      O80185   4.934   3.443   8.917
26648WAT     H180186   4.843   3.454   8.957
26648WAT     H280187   4.955   3.523   8.860
26649WAT      O80188   2.824   2.267   6.116
26649WAT     H180189   2.798   2.330   6.043
26649WAT     H280190   2.754   2.269   6.187
26650WAT      O80191   5.375   1.495   4.843
26650WAT     H180192   5.309   1.504   4.918
26650WAT     H280193   5.347   1.553   4.767
26651WAT      O80194   2.118   2.283   2.993
26651WAT     H180195   2.186   2.259   3.063
26651WAT     H280196   2.067   2.364   3.022
26652WAT      O80197   6.372   3.625   1.917
26652WAT     H180198   6.452   3.582   1.959
26652WAT     H280199   6.288   3.586   1.957
26653WAT      O80200   8.715   9.318   7.946
26653WAT     H180201   8.744   9.272   8.030
26653WAT     H280202   8.787   9.381   7.916
26654WAT      O80203   9.844   5.547   3.867
26654WAT     H180204   9.838   5.448   3.852
26654WAT     H280205   9.771   5.593   3.816
26655WAT      O80206   7.020   3.228   0.172
26655WAT     H180207   6.998   3.297   0.240
26655WAT     H280208   6.979   3.141   0.198
26656WAT      O80209   0.282   3.130   9.726
26656WAT     H180210   0.375   3.164   9.712
26656WAT     H280211   0.285   3.036   9.760
26657WAT      O80212   3.393   1.800   1.078
26657WAT     H180213   3.406   1.702   1.098
26657WAT     H280214   3.378   1.849   1.164
26658WAT      O80215   3.046   0.968   9.306
26658WAT     H180216   2.960   0.934   9.269
26658WAT     H280217   3.053   0.945   9.403
26659WAT      O80218   9.148   5.795   6.973
26659WAT     H180219   9.184   5.882   6.940
26659WAT     H280220   9.078   5.812   7.042
26660WAT      O80221   0.121   6.545   2.029
26660WAT     H180222   0.087   6.459   1.992
26660WAT     H280223   0.079   6.621   1.979
26661WAT      O80224   6.426   2.301   2.483
26661WAT     H180225   6.493   2.277   2.413
26661WAT     H280226   6.395   2.395   2.468
26662WAT      O80227   4.225   0.981   3.153
26662WAT     H180228   4.241   1.020   3.243
26662WAT     H280229   4.299   1.008   3.091
26663WAT      O80230   4.908   9.492   1.184
26663WAT     H180231   4.950   9.575   1.149
26663WAT     H280232   4.975   9.442   1.240
26664WAT      O80233   5.760   5.373   1.238
26664WAT     H180234   5.675   5.336   1.275
26664WAT     H280235   5.788   5.453   1.291
26665WAT      O80236   8.823   6.872   3.183
26665WAT     H180237   8.889   6.813   3.230
26665WAT     H280238   8.872   6.940   3.129
26666WAT      O80239   5.833   5.962   8.958
26666WAT     H180240   5.829   5.957   9.058
26666WAT     H280241   5.900   6.032   8.931
26667WAT      O80242   6.429   9.545   9.776
26667WAT     H180243   6.415   9.609   9.851
26667WAT     H280244   6.427   9.451   9.811
26668WAT      O80245   7.044   8.676   9.409
26668WAT     H180246   6.998   8.646   9.326
26668WAT     H280247   6.977   8.709   9.475
26669WAT      O80248   1.945   1.130   4.176
26669WAT     H180249   1.938   1.107   4.079
26669WAT     H280250   2.035   1.169   4.195
26670WAT      O80251   3.600   8.412   8.268
26670WAT     H180252   3.594   8.335   8.331
26670WAT     H280253   3.547   8.489   8.304
26671WAT      O80254   0.824   6.353   9.457
26671WAT     H180255   0.853   6.447   9.473
26671WAT     H280256   0.808   6.339   9.359
26672WAT      O80257   4.031   6.620   7.998
26672WAT     H180258   4.108   6.684   8.006
26672WAT     H280259   4.000   6.618   7.903
26673WAT      O80260   2.415  -0.002   5.281
26673WAT     H180261   2.348   0.052   5.230
26673WAT     H280262   2.388  -0.006   5.377
26674WAT      O80263   8.506   4.385   8.331
26674WAT     H180264   8.540   4.317   8.396
26674WAT     H280265   8.584   4.436   8.293
26675WAT      O80266   8.488   4.759   8.563
26675WAT     H180267   8.472   4.858   8.571
26675WAT     H280268   8.437   4.724   8.485
26676WAT      O80269   4.989   8.861   2.146
26676WAT     H180270   5.083   8.860   2.177
26676WAT     H280271   4.939   8.783   2.184
26677WAT      O80272   4.363   2.830   9.226
26677WAT     H180273   4.340   2.789   9.137
26677WAT     H280274   4.459   2.811   9.247
26678WAT      O80275   2.504   0.771   2.520
26678WAT     H180276   2.477   0.717   2.440
26678WAT     H280277   2.427   0.827   2.549
26679WAT      O80278   3.105   6.984   2.427
26679WAT     H180279   3.134   6.954   2.518
26679WAT     H280280   3.026   6.931   2.397
26680WAT      O80281   4.401   7.736   3.869
26680WAT     H180282   4.340   7.797   3.919
26680WAT     H280283   4.447   7.786   3.796
26681WAT      O80284   6.159   0.655   6.148
26681WAT     H180285   6.135   0.736   6.202
26681WAT     H280286   6.177   0.682   6.054
26682WAT      O80287   7.296   6.038   0.101
26682WAT     H180288   7.249   5.980   0.035
26682WAT     H280289   7.310   5.986   0.186
26683WAT      O80290   0.337   6.897   2.284
26683WAT     H180291   0.341   6.822   2.217
26683WAT     H280292   0.317   6.859   2.374
26684WAT      O80293   1.265   5.823   7.117
26684WAT     H180294   1.321   5.781   7.046
26684WAT     H280295   1.210   5.896   7.078
26685WAT      O80296   9.767   5.122   2.369
26685WAT     H180297   9.696   5.138   2.301
26685WAT     H280298   9.790   5.209   2.414
26686WAT      O80299   6.025   0.142   6.111
26686WAT     H180300   5.939   0.094   6.094
26686WAT     H280301   6.064   0.109   6.197
26687WAT      O80302   8.501   0.076   8.870
26687WAT     H180303   8.461  -0.012   8.846
26687WAT     H280304   8.432   0.132   8.918
26688WAT      O80305   5.727   9.169   2.371
26688WAT     H180306   5.790   9.198   2.299
26688WAT     H280307   5.688   9.080   2.346
26689WAT      O80308   4.468   9.301   2.967
26689WAT     H180309   4.532   9.376   2.952
26689WAT     H280310   4.414   9.319   3.049
26690WAT      O80311   2.449   6.924   0.847
26690WAT     H180312   2.482   6.866   0.922
26690WAT     H280313   2.425   7.014   0.883
26691WAT      O80314   0.605   1.211   2.100
26691WAT     H180315   0.552   1.226   2.017
26691WAT     H280316   0.543   1.194   2.177
26692WAT      O80317   3.052   7.009   6.675
26692WAT     H180318   3.117   6.943   6.638
26692WAT     H280319   2.981   6.960   6.726
26693WAT      O80320   8.418   8.491   1.629
26693WAT     H180321   8.423   8.397   1.594
26693WAT     H280322   8.510   8.524   1.648
26694WAT      O80323   6.433   8.399   1.642
26694WAT     H180324   6.489   8.376   1.562
26694WAT     H280325   6.337   8.403   1.615
26695WAT      O80326   2.899   3.376   1.361
26695WAT     H180327   2.873   3.301   1.422
26695WAT     H280328   2.935   3.452   1.416
26696WAT      O80329   8.596   8.000   2.075
26696WAT     H180330   8.636   7.936   2.141
26696WAT     H280331   8.668   8.034   2.014
26697WAT      O80332   8.454   7.724   0.372
26697WAT     H180333   8.533   7.782   0.391
26697WAT     H280334   8.469   7.633   0.411
26698WAT      O80335   7.461   8.723   1.870
26698WAT     H180336   7.422   8.815   1.867
26698WAT     H280337   7.416   8.666   1.801
26699WAT      O80338   7.822   5.557   8.381
26699WAT     H180339   7.902   5.617   8.380
26699WAT     H280340   7.833   5.489   8.454
26700WAT      O80341   3.162   5.770   5.609
26700WAT     H180342   3.095   5.810   5.546
26700WAT     H280343   3.129   5.781   5.703
26701WAT      O80344   1.117   1.236   0.740
26701WAT     H180345   1.051   1.221   0.666
26701WAT     H280346   1.072   1.222   0.828
26702WAT      O80347   3.929   8.459   3.199
26702WAT     H180348   3.956   8.369   3.166
26702WAT     H280349   3.848   8.451   3.257
26703WAT      O80350   9.340   2.441   8.444
26703WAT     H180351   9.346   2.363   8.381
26703WAT     H280352   9.337   2.409   8.538
26704WAT      O80353   1.052   3.601   4.781
26704WAT     H180354   1.004   3.689   4.778
26704WAT     H280355   0.993   3.530   4.741
26705WAT      O80356   5.385   5.487   3.284
26705WAT     H180357   5.324   5.411   3.262
26705WAT     H280358   5.335   5.556   3.337
26706WAT      O80359   4.386   9.434   3.680
26706WAT     H180360   4.401   9.378   3.761
26706WAT     H280361   4.333   9.383   3.612
26707WAT      O80362   1.459   4.280   1.652
26707WAT     H180363   1.403   4.306   1.730
26707WAT     H280364   1.428   4.329   1.570
26708WAT      O80365   9.284   4.874   0.959
26708WAT     H180366   9.303   4.969   0.984
26708WAT     H280367   9.337   4.849   0.878
26709WAT      O80368   7.678   5.569   7.440
26709WAT     H180369   7.654   5.477   7.471
26709WAT     H280370   7.758   5.565   7.380
26710WAT      O80371   8.827   2.862   3.739
26710WAT     H180372   8.829   2.962   3.736
26710WAT     H280373   8.734   2.830   3.721
26711WAT      O80374   8.789   5.784   9.089
26711WAT     H180375   8.859   5.732   9.137
26711WAT     H280376   8.703   5.733   9.088
26712WAT      O80377   8.036   0.754   8.798
26712WAT     H180378   7.998   0.713   8.881
26712WAT     H280379   8.083   0.684   8.745
26713WAT      O80380   6.501   9.714   5.329
26713WAT     H180381   6.572   9.778   5.298
26713WAT     H280382   6.509   9.701   5.428
26714WAT      O80383   0.241   7.125   9.613
26714WAT     H180384   0.206   7.206   9.567
26714WAT     H280385   0.175   7.050   9.605
26715WAT      O80386   8.432   5.946   2.589
26715WAT     H180387   8.388   6.010   2.526
26715WAT     H280388   8.385   5.858   2.584
26716WAT      O80389   7.852   2.654   8.861
26716WAT     H180390   7.919   2.701   8.917
26716WAT     H280391   7.765   2.649   8.910
26717WAT      O80392   7.056   9.450   2.976
26717WAT     H180393   7.002   9.376   3.015
26717WAT     H280394   7.152   9.422   2.972
26718WAT      O80395   7.877   4.668   6.863
26718WAT     H180396   7.793   4.674   6.809
26718WAT     H280397   7.877   4.739   6.933
26719WAT      O80398   9.393   2.388   5.364
26719WAT     H180399   9.321   2.456   5.354
26719WAT     H280400   9.392   2.351   5.457
26720WAT      O80401   3.324   7.285   7.565
26720WAT     H180402   3.275   7.372   7.553
26720WAT     H280403   3.414   7.304   7.604
26721WAT      O80404   9.823   2.538   3.407
26721WAT     H180405   9.813   2.629   3.368
26721WAT     H280406   9.884   2.483   3.350
26722WAT      O80407   0.984   3.916   4.980
26722WAT     H180408   0.884   3.918   4.976
26722WAT     H280409   1.021   3.986   4.918
26723WAT      O80410   8.473   6.374   7.464
26723WAT     H180411   8.501   6.468   7.480
26723WAT     H280412   8.374   6.365   7.478
26724WAT      O80413   4.771   4.015   2.841
26724WAT     H180414   4.802   4.073   2.916
26724WAT     H280415   4.727   3.933   2.879
26725WAT      O80416   1.558   8.770   7.745
26725WAT     H180417   1.579   8.777   7.647
26725WAT     H280418   1.643   8.770   7.797
26726WAT      O80419   7.350   3.532   9.530
26726WAT     H180420   7.323   3.628   9.535
26726WAT     H280421   7.269   3.474   9.542
26727WAT      O80422   7.627   0.320   9.470
26727WAT     H180423   7.584   0.368   9.546
26727WAT     H280424   7.653   0.228   9.498
26728WAT      O80425   6.139   2.366   4.983
26728WAT     H180426   6.239   2.364   4.986
26728WAT     H280427   6.109   2.436   4.919
26729WAT      O80428   0.195   8.312   6.734
26729WAT     H180429   0.163   8.367   6.656
26729WAT     H280430   0.179   8.215   6.715
26730WAT      O80431   0.238   6.622   0.187
26730WAT     H180432   0.229   6.633   0.088
26730WAT     H280433   0.307   6.684   0.222
26731WAT      O80434   8.039   0.072   0.916
26731WAT     H180435   8.011   0.123   0.835
26731WAT     H280436   8.036   0.131   0.996
26732WAT      O80437   4.243   1.854   2.728
26732WAT     H180438   4.151   1.884   2.753
26732WAT     H280439   4.251   1.848   2.629
26733WAT      O80440   8.755   1.429   0.419
26733WAT     H180441   8.816   1.357   0.451
26733WAT     H280442   8.698   1.461   0.495
26734WAT      O80443   0.754   3.602   5.781
26734WAT     H180444   0.811   3.682   5.802
26734WAT     H280445   0.807   3.518   5.795
26735WAT      O80446   2.182   0.316   5.504
26735WAT     H180447   2.182   0.390   5.570
26735WAT     H280448   2.230   0.345   5.421
26736WAT      O80449   2.903   0.402   8.002
26736WAT     H180450   2.936   0.338   8.071
26736WAT     H280451   2.978   0.423   7.938
26737WAT      O80452   4.450   1.272   7.004
26737WAT     H180453   4.475   1.187   6.957
26737WAT     H280454   4.523   1.339   6.992
26738WAT      O80455   1.361   3.618   9.861
26738WAT     H180456   1.355   3.538   9.802
26738WAT     H280457   1.405   3.693   9.811
26739WAT      O80458   4.789   4.304   8.941
26739WAT     H180459   4.865   4.246   8.911
26739WAT     H280460   4.823   4.397   8.956
26740WAT      O80461   4.438   4.596   4.022
26740WAT     H180462   4.347   4.563   4.049
26740WAT     H280463   4.451   4.689   4.057
26741WAT      O80464   1.243   8.275   6.733
26741WAT     H180465   1.276   8.348   6.673
26741WAT     H280466   1.171   8.223   6.687
26742WAT      O80467   2.655   4.374   6.280
26742WAT     H180468   2.557   4.365   6.297
26742WAT     H280469   2.672   4.374   6.182
26743WAT      O80470   5.296   6.389   0.826
26743WAT     H180471   5.248   6.476   0.831
26743WAT     H280472   5.383   6.401   0.778
26744WAT      O80473   5.138   7.929   1.191
26744WAT     H180474   5.075   7.938   1.114
26744WAT     H280475   5.182   8.017   1.209
26745WAT      O80476   6.643   6.009   7.058
26745WAT     H180477   6.654   6.019   6.959
26745WAT     H280478   6.574   6.073   7.091
26746WAT      O80479   7.683   9.838   1.894
26746WAT     H180480   7.615   9.879   1.833
26746WAT     H280481   7.680   9.884   1.982
26747WAT      O80482   3.017   5.402   7.481
26747WAT     H180483   2.919   5.408   7.499
26747WAT     H280484   3.034   5.341   7.404
26748WAT      O80485   4.235   5.207   9.227
26748WAT     H180486   4.152   5.190   9.279
26748WAT     H280487   4.218   5.281   9.161
26749WAT      O80488   7.491   5.504   2.767
26749WAT     H180489   7.574   5.493   2.821
26749WAT     H280490   7.422   5.439   2.798
26750WAT      O80491   3.816   8.130   2.486
26750WAT     H180492   3.760   8.213   2.480
26750WAT     H280493   3.841   8.114   2.582
26751WAT      O80494   6.013   2.453   9.199
26751WAT     H180495   6.049   2.523   9.136
26751WAT     H280496   5.987   2.497   9.285
26752WAT      O80497   1.324   6.666   5.422
26752WAT     H180498   1.270   6.732   5.474
26752WAT     H280499   1.393   6.625   5.483
26753WAT      O80500   6.518   8.064   8.627
26753WAT     H180501   6.440   8.110   8.668
26753WAT     H280502   6.599   8.078   8.684
26754WAT      O80503   6.117   6.969   0.118
26754WAT     H180504   6.132   6.989   0.021
26754WAT     H280505   6.059   6.888   0.127
26755WAT      O80506   7.940   4.326   8.459
26755WAT     H180507   8.022   4.331   8.515
26755WAT     H280508   7.940   4.401   8.392
26756WAT      O80509   4.751   6.209   2.963
26756WAT     H180510   4.659   6.248   2.961
26756WAT     H280511   4.794   6.232   3.050
26757WAT      O80512   7.677   4.363   5.996
26757WAT     H180513   7.668   4.416   5.912
26757WAT     H280514   7.586   4.351   6.037
26758WAT      O80515   9.757   3.434   7.673
26758WAT     H180516   9.721   3.381   7.750
26758WAT     H280517   9.782   3.526   7.704
26759WAT      O80518   6.342   3.556   1.602
26759WAT     H180519   6.297   3.467   1.615
26759WAT     H280520   6.369   3.592   1.691
26760WAT      O80521   7.071   5.966   0.466
26760WAT     H180522   7.164   5.950   0.432
26760WAT     H280523   7.068   6.055   0.512
26761WAT      O80524   8.880   5.202   1.556
26761WAT     H180525   8.877   5.292   1.599
26761WAT     H280526   8.788   5.164   1.554
26762WAT      O80527   3.809   6.250   6.521
26762WAT     H180528   3.825   6.298   6.607
26762WAT     H280529   3.816   6.152   6.535
26763WAT      O80530   1.870   1.344   1.274
26763WAT     H180531   1.877   1.345   1.374
26763WAT     H280532   1.961   1.331   1.234
26764WAT      O80533   3.538   6.304   7.251
26764WAT     H180534   3.529   6.322   7.349
26764WAT     H280535   3.634   6.311   7.225
26765WAT      O80536   6.465   3.404   4.197
26765WAT     H180537   6.555   3.363   4.214
26765WAT     H280538   6.398   3.364   4.260
26766WAT      O80539   8.885   0.531   0.627
26766WAT     H180540   8.951   0.576   0.687
26766WAT     H280541   8.871   0.587   0.545
26767WAT      O80542   3.910   8.021   2.751
26767WAT     H180543   3.956   8.051   2.835
26767WAT     H280544   3.979   8.004   2.681
26768WAT      O80545   4.197   1.033   8.516
26768WAT     H180546   4.225   0.988   8.600
26768WAT     H280547   4.141   1.113   8.538
26769WAT      O80548   3.091   9.813   1.716
26769WAT     H180549   3.038   9.802   1.800
26769WAT     H280550   3.188   9.821   1.738
26770WAT      O80551   5.573   7.727   6.951
26770WAT     H180552   5.496   7.762   6.897
26770WAT     H280553   5.633   7.673   6.892
26771WAT      O80554   4.375   6.204   4.296
26771WAT     H180555   4.338   6.295   4.314
26771WAT     H280556   4.352   6.143   4.372
26772WAT      O80557   0.231   1.285   6.186
26772WAT     H180558   0.160   1.215   6.179
26772WAT     H280559   0.321   1.242   6.194
26773WAT      O80560   7.846   7.720   2.931
26773WAT     H180561   7.873   7.794   2.868
26773WAT     H280562   7.918   7.707   2.999
26774WAT      O80563   6.833   3.904   0.577
26774WAT     H180564   6.884   3.916   0.492
26774WAT     H280565   6.888   3.937   0.654
26775WAT      O80566   8.203   6.101   5.698
26775WAT     H180567   8.287   6.155   5.702
26775WAT     H280568   8.224   6.007   5.672
26776WAT      O80569   7.769   6.578   5.752
26776WAT     H180570   7.810   6.531   5.674
26776WAT     H280571   7.841   6.601   5.818
26777WAT      O80572   2.833   7.904   5.724
26777WAT     H180573   2.753   7.858   5.686
26777WAT     H280574   2.890   7.838   5.773
26778WAT      O80575   5.478   5.884   1.961
26778WAT     H180576   5.446   5.968   1.918
26778WAT     H280577   5.557   5.903   2.019
26779WAT      O80578   5.396   6.027   0.300
26779WAT     H180579   5.414   6.059   0.393
26779WAT     H280580   5.480   6.034   0.246
26780WAT      O80581   8.895   3.153   6.038
26780WAT     H180582   8.980   3.117   6.077
26780WAT     H280583   8.917   3.223   5.970
26781WAT      O80584   2.294   9.811   1.063
26781WAT     H180585   2.198   9.815   1.092
26781WAT     H280586   2.348   9.764   1.132
26782WAT      O80587   9.398   7.152   9.261
26782WAT     H180588   9.365   7.069   9.306
26782WAT     H280589   9.324   7.219   9.256
26783WAT      O80590   3.331   5.469   5.423
26783WAT     H180591   3.411   5.518   5.389
26783WAT     H280592   3.356   5.414   5.503
26784WAT      O80593   0.023   7.415   5.325
26784WAT     H180594  -0.035   7.480   5.274
26784WAT     H280595   0.085   7.370   5.262
26785WAT      O80596   7.078   0.256   2.843
26785WAT     H180597   7.061   0.178   2.903
26785WAT     H280598   7.147   0.231   2.775
26786WAT      O80599   4.716   9.609   0.016
26786WAT     H180600   4.670   9.523  -0.008
26786WAT     H280601   4.707   9.625   0.114
26787WAT      O80602   1.640   7.968   6.064
26787WAT     H180603   1.655   7.881   6.110
26787WAT     H280604   1.564   7.959   6.000
26788WAT      O80605   6.144   0.592   0.673
26788WAT     H180606   6.075   0.663   0.663
26788WAT     H280607   6.223   0.614   0.615
26789WAT      O80608   8.257   8.382   7.659
26789WAT     H180609   8.239   8.305   7.720
26789WAT     H280610   8.209   8.368   7.573
26790WAT      O80611   1.250   7.841   6.522
26790WAT     H180612   1.291   7.882   6.604
26790WAT     H280613   1.163   7.885   6.502
26791WAT      O80614   8.450   3.368   1.801
26791WAT     H180615   8.531   3.361   1.859
26791WAT     H280616   8.420   3.463   1.797
26792WAT      O80617   0.513   2.445   0.242
26792WAT     H180618   0.524   2.473   0.147
26792WAT     H280619   0.582   2.491   0.299
26793WAT      O80620   6.307   3.805   1.489
26793WAT     H180621   6.218   3.839   1.458
26793WAT     H280622   6.300   3.708   1.512
26794WAT      O80623   4.110   5.489   1.450
26794WAT     H180624   4.105   5.496   1.350
26794WAT     H280625   4.018   5.498   1.489
26795WAT      O80626   8.350   7.962   0.897
26795WAT     H180627   8.416   7.896   0.860
26795WAT     H280628   8.258   7.936   0.868
26796WAT      O80629   0.276   1.713   2.343
26796WAT     H180630   0.311   1.803   2.315
26796WAT     H280631   0.313   1.643   2.283
26797WAT      O80632   8.690   4.705   3.317
26797WAT     H180633   8.691   4.700   3.417
26797WAT     H280634   8.597   4.721   3.286
26798WAT      O80635   5.657   9.513   5.058
26798WAT     H180636   5.558   9.526   5.062
26798WAT     H280637   5.686   9.516   4.962
26799WAT      O80638   5.317   3.042   2.532
26799WAT     H180639   5.239   2.990   2.567
26799WAT     H280640   5.402   2.995   2.556
26800WAT      O80641   4.329   0.674   3.468
26800WAT     H180642   4.303   0.618   3.546
26800WAT     H280643   4.356   0.615   3.392
26801WAT      O80644   4.157   3.719   6.431
26801WAT     H180645   4.158   3.780   6.352
26801WAT     H280646   4.078   3.741   6.488
26802WAT      O80647   8.632   3.191   5.288
26802WAT     H180648   8.663   3.131   5.215
26802WAT     H280649   8.708   3.249   5.319
26803WAT      O80650   9.535   9.779   7.710
26803WAT     H180651   9.460   9.820   7.658
26803WAT     H280652   9.608   9.753   7.648
26804WAT      O80653   9.591   8.123   6.945
26804WAT     H180654   9.607   8.122   6.846
26804WAT     H280655   9.655   8.187   6.988
26805WAT      O80656   5.499   1.351   4.084
26805WAT     H180657   5.481   1.415   4.158
26805WAT     H280658   5.451   1.265   4.102
26806WAT      O80659   5.262   7.251   4.282
26806WAT     H180660   5.273   7.348   4.305
26806WAT     H280661   5.175   7.218   4.319
26807WAT      O80662   3.287   6.304   0.327
26807WAT     H180663   3.349   6.362   0.380
26807WAT     H280664   3.280   6.214   0.370
26808WAT      O80665   7.800   0.665   5.983
26808WAT     H180666   7.754   0.713   5.908
26808WAT     H280667   7.733   0.645   6.054
26809WAT      O80668   3.678   2.366   4.405
26809WAT     H180669   3.605   2.385   4.339
26809WAT     H280670   3.745   2.440   4.403
26810WAT      O80671   1.319   6.767   7.400
26810WAT     H180672   1.407   6.723   7.380
26810WAT     H280673   1.267   6.776   7.316
26811WAT      O80674   3.612   9.424   2.227
26811WAT     H180675   3.519   9.437   2.261
26811WAT     H280676   3.671   9.393   2.301
26812WAT      O80677   5.115   5.805   9.250
26812WAT     H180678   5.106   5.739   9.176
26812WAT     H280679   5.026   5.845   9.270
26813WAT      O80680   2.179   8.884   3.439
26813WAT     H180681   2.114   8.941   3.390
26813WAT     H280682   2.134   8.798   3.466
26814WAT      O80683   8.781   8.123   7.034
26814WAT     H180684   8.828   8.196   7.084
26814WAT     H280685   8.826   8.110   6.945
26815WAT      O80686   0.788   6.457   5.898
26815WAT     H180687   0.735   6.372   5.903
26815WAT     H280688   0.885   6.436   5.895
26816WAT      O80689   3.712   6.999   3.102
26816WAT     H180690   3.648   6.955   3.165
26816WAT     H280691   3.804   6.963   3.118
26817WAT      O80692   0.046   6.846   3.656
26817WAT     H180693  -0.003   6.760   3.647
26817WAT     H280694   0.119   6.836   3.725
26818WAT      O80695   3.350   4.263   7.491
26818WAT     H180696   3.288   4.186   7.501
26818WAT     H280697   3.443   4.236   7.518
26819WAT      O80698   1.847   4.377   7.466
26819WAT     H180699   1.758   4.340   7.439
26819WAT     H280700   1.850   4.387   7.565
26820WAT      O80701   0.671   2.447   4.685
26820WAT     H180702   0.748   2.435   4.622
26820WAT     H280703   0.652   2.361   4.731
26821WAT      O80704   3.702   6.007   9.836
26821WAT     H180705   3.745   5.959   9.759
26821WAT     H280706   3.772   6.058   9.886
26822WAT      O80707   9.317   7.706   6.175
26822WAT     H180708   9.270   7.768   6.238
26822WAT     H280709   9.251   7.670   6.109
26823WAT      O80710   1.593   9.785   9.003
26823WAT     H180711   1.534   9.708   8.979
26823WAT     H280712   1.689   9.757   8.996
26824WAT      O80713   0.279   6.868   3.806
26824WAT     H180714   0.358   6.846   3.748
26824WAT     H280715   0.242   6.784   3.845
26825WAT      O80716   7.218   0.376   9.226
26825WAT     H180717   7.125   0.375   9.190
26825WAT     H280718   7.230   0.456   9.286
26826WAT      O80719   4.515   2.859   6.107
26826WAT     H180720   4.541   2.792   6.038
26826WAT     H280721   4.548   2.950   6.079
26827WAT      O80722   9.356   9.028   3.983
26827WAT     H180723   9.368   8.989   3.892
26827WAT     H280724   9.283   9.096   3.980
26828WAT      O80725   6.787   9.623   5.493
26828WAT     H180726   6.767   9.563   5.415
26828WAT     H280727   6.720   9.606   5.565
26829WAT      O80728   8.491   4.580   3.159
26829WAT     H180729   8.417   4.628   3.111
26829WAT     H280730   8.465   4.484   3.172
26830WAT      O80731   2.092   5.157   1.241
26830WAT     H180732   2.088   5.172   1.143
26830WAT     H280733   2.005   5.118   1.273
26831WAT      O80734   5.780   4.176   8.354
26831WAT     H180735   5.859   4.137   8.308
26831WAT     H280736   5.755   4.118   8.432
26832WAT      O80737   5.552   5.226   0.982
26832WAT     H180738   5.566   5.325   0.973
26832WAT     H280739   5.557   5.184   0.892
26833WAT      O80740   4.408   5.027   5.387
26833WAT     H180741   4.480   5.001   5.451
26833WAT     H280742   4.444   5.028   5.294
26834WAT      O80743   6.722   4.956   7.578
26834WAT     H180744   6.806   4.945   7.526
26834WAT     H280745   6.722   4.891   7.655
26835WAT      O80746   4.755   0.663   6.308
26835WAT     H180747   4.785   0.734   6.244
26835WAT     H280748   4.655   0.663   6.313
26836WAT      O80749   7.718   2.038   0.906
26836WAT     H180750   7.628   2.032   0.863
26836WAT     H280751   7.732   1.960   0.967
26837WAT      O80752   2.823   2.667   8.431
26837WAT     H180753   2.803   2.576   8.469
26837WAT     H280754   2.917   2.692   8.452
26838WAT      O80755   7.063   7.782   1.867
26838WAT     H180756   7.116   7.822   1.941
26838WAT     H280757   6.990   7.725   1.905
26839WAT      O80758   0.070   6.357   8.617
26839WAT     H180759   0.135   6.289   8.649
26839WAT     H280760   0.022   6.397   8.695
26840WAT      O80761   0.261   9.585   2.798
26840WAT     H180762   0.315   9.663   2.766
26840WAT     H280763   0.182   9.618   2.850
26841WAT      O80764   4.449   4.720   4.791
26841WAT     H180765   4.535   4.695   4.836
26841WAT     H280766   4.452   4.692   4.696
26842WAT      O80767   8.222   2.361   1.522
26842WAT     H180768   8.213   2.460   1.524
26842WAT     H280769   8.145   2.320   1.570
26843WAT      O80770   7.422   4.772   7.061
26843WAT     H180771   7.453   4.715   7.137
26843WAT     H280772   7.394   4.714   6.985
26844WAT      O80773   0.930   4.243   5.236
26844WAT     H180774   1.002   4.175   5.248
26844WAT     H280775   0.916   4.260   5.138
26845WAT      O80776   2.062   7.414   1.433
26845WAT     H180777   2.102   7.355   1.362
26845WAT     H280778   2.087   7.509   1.415
26846WAT      O80779   3.073   1.830   0.455
26846WAT     H180780   3.113   1.809   0.366
26846WAT     H280781   3.126   1.902   0.499
26847WAT      O80782   5.652   7.451   8.916
26847WAT     H180783   5.594   7.528   8.943
26847WAT     H280784   5.611   7.366   8.948
26848WAT      O80785   8.153   7.714   1.910
26848WAT     H180786   8.151   7.635   1.972
26848WAT     H280787   8.198   7.791   1.955
26849WAT      O80788   2.514   5.790   6.703
26849WAT     H180789   2.556   5.870   6.659
26849WAT     H280790   2.502   5.808   6.801
26850WAT      O80791   9.761   9.594   9.428
26850WAT     H180792   9.837   9.614   9.366
26850WAT     H280793   9.737   9.497   9.419
26851WAT      O80794   6.692   2.013   1.064
26851WAT     H180795   6.759   2.077   1.101
26851WAT     H280796   6.679   2.030   0.966
26852WAT      O80797   3.296   3.560   6.322
26852WAT     H180798   3.244   3.545   6.407
26852WAT     H280799   3.232   3.584   6.249
26853WAT      O80800   3.709   5.734   6.806
26853WAT     H180801   3.643   5.785   6.861
26853WAT     H280802   3.661   5.688   6.731
26854WAT      O80803   1.479   9.075   2.303
26854WAT     H180804   1.564   9.127   2.313
26854WAT     H280805   1.437   9.097   2.215
26855WAT      O80806   5.875   6.441   7.798
26855WAT     H180807   5.896   6.530   7.758
26855WAT     H280808   5.778   6.435   7.819
26856WAT      O80809   6.646   0.155   4.820
26856WAT     H180810   6.643   0.203   4.732
26856WAT     H280811   6.553   0.135   4.851
26857WAT      O80812   8.620   1.287   6.630
26857WAT     H180813   8.685   1.219   6.595
26857WAT     H280814   8.537   1.241   6.662
26858WAT      O80815   7.980   1.810   6.553
26858WAT     H180816   7.916   1.868   6.604
26858WAT     H280817   8.064   1.861   6.534
26859WAT      O80818   6.698   0.885   9.867
26859WAT     H180819   6.632   0.834   9.812
26859WAT     H280820   6.724   0.832   9.947
26860WAT      O80821   9.132   4.142   1.296
26860WAT     H180822   9.221   4.123   1.338
26860WAT     H280823   9.067   4.171   1.366
26861WAT      O80824   9.791   3.907   7.918
26861WAT     H180825   9.750   3.870   8.001
26861WAT     H280826   9.784   3.840   7.844
26862WAT      O80827   2.183   2.363   9.793
26862WAT     H180828   2.214   2.458   9.791
26862WAT     H280829   2.126   2.345   9.713
26863WAT      O80830   9.062   6.934   4.627
26863WAT     H180831   8.965   6.937   4.603
26863WAT     H280832   9.112   7.001   4.573
26864WAT      O80833   1.615   6.969   8.435
26864WAT     H180834   1.650   6.934   8.349
26864WAT     H280835   1.532   7.023   8.418
26865WAT      O80836   4.397   8.885   5.360
26865WAT     H180837   4.442   8.899   5.448
26865WAT     H280838   4.370   8.789   5.351
26866WAT      O80839   7.748   9.123   5.092
26866WAT     H180840   7.776   9.063   5.166
26866WAT     H280841   7.703   9.204   5.130
26867WAT      O80842   8.771   7.267   0.959
26867WAT     H180843   8.756   7.173   0.928
26867WAT     H280844   8.683   7.313   0.969
26868WAT      O80845   3.991   6.124   1.560
26868WAT     H180846   3.902   6.108   1.604
26868WAT     H280847   4.062   6.075   1.610
26869WAT      O80848   3.420   3.389   5.645
26869WAT     H180849   3.519   3.396   5.635
26869WAT     H280850   3.398   3.345   5.732
26870WAT      O80851   9.612   4.212   6.839
26870WAT     H180852   9.533   4.260   6.877
26870WAT     H280853   9.632   4.246   6.747
26871WAT      O80854   5.269   4.014   2.837
26871WAT     H180855   5.200   4.077   2.800
26871WAT     H280856   5.224   3.951   2.901
26872WAT      O80857   3.515   5.415   5.672
26872WAT     H180858   3.476   5.460   5.752
26872WAT     H280859   3.598   5.464   5.644
26873WAT      O80860   9.176   4.742   5.418
26873WAT     H180861   9.229   4.659   5.400
26873WAT     H280862   9.105   4.723   5.485
26874WAT      O80863   2.183   0.350   1.076
26874WAT     H180864   2.274   0.318   1.052
26874WAT     H280865   2.187   0.446   1.103
26875WAT      O80866   1.566   6.739   9.171
26875WAT     H180867   1.625   6.663   9.201
26875WAT     H280868   1.593   6.768   9.079
26876WAT      O80869   5.581   5.486   2.336
26876WAT     H180870   5.623   5.577   2.327
26876WAT     H280871   5.551   5.472   2.430
26877WAT      O80872   0.700   0.720   7.500
26877WAT     H180873   0.772   0.692   7.565
26877WAT     H280874   0.714   0.816   7.475
26878WAT      O80875   6.118   4.437   2.498
26878WAT     H180876   6.033   4.466   2.543
26878WAT     H280877   6.190   4.504   2.517
26879WAT      O80878   9.732   2.500   5.453
26879WAT     H180879   9.791   2.543   5.386
26879WAT     H280880   9.644   2.479   5.411
26880WAT      O80881   1.388   5.898   5.673
26880WAT     H180882   1.294   5.865   5.666
26880WAT     H280883   1.441   5.836   5.730
26881WAT      O80884   4.158   2.162   0.972
26881WAT     H180885   4.126   2.117   0.889
26881WAT     H280886   4.188   2.255   0.949
26882WAT      O80887   7.778   2.288   0.779
26882WAT     H180888   7.710   2.294   0.706
26882WAT     H280889   7.804   2.192   0.792
26883WAT      O80890   4.494   5.072   3.644
26883WAT     H180891   4.476   5.137   3.718
26883WAT     H280892   4.584   5.032   3.656
26884WAT      O80893   3.207   2.315   1.723
26884WAT     H180894   3.284   2.258   1.751
26884WAT     H280895   3.182   2.377   1.798
26885WAT      O80896   2.760   7.888   9.042
26885WAT     H180897   2.817   7.814   9.077
26885WAT     H280898   2.666   7.876   9.074
26886WAT      O80899   1.403   6.957   9.646
26886WAT     H180900   1.457   6.912   9.574
26886WAT     H280901   1.461   7.019   9.698
26887WAT      O80902   0.755   8.199   8.953
26887WAT     H180903   0.743   8.229   8.858
26887WAT     H280904   0.666   8.182   8.994
26888WAT      O80905   6.052   3.329   2.406
26888WAT     H180906   6.149   3.342   2.429
26888WAT     H280907   6.045   3.264   2.331
26889WAT      O80908   1.366   5.644   8.099
26889WAT     H180909   1.369   5.731   8.049
26889WAT     H280910   1.336   5.571   8.037
26890WAT      O80911   3.581   7.316   9.476
26890WAT     H180912   3.535   7.277   9.396
26890WAT     H280913   3.626   7.244   9.528
26891WAT      O80914   3.871   8.570   8.131
26891WAT     H180915   3.791   8.517   8.103
26891WAT     H280916   3.949   8.548   8.072
26892WAT      O80917   4.276   8.107   8.757
26892WAT     H180918   4.343   8.065   8.818
26892WAT     H280919   4.320   8.181   8.706
26893WAT      O80920   0.181   1.862   3.552
26893WAT     H180921   0.166   1.790   3.484
26893WAT     H280922   0.272   1.850   3.593
26894WAT      O80923   7.882   3.593   0.745
26894WAT     H180924   7.816   3.539   0.797
26894WAT     H280925   7.881   3.687   0.778
26895WAT      O80926   8.340   3.727   9.730
26895WAT     H180927   8.288   3.667   9.669
26895WAT     H280928   8.330   3.695   9.824
26896WAT      O80929   1.928   6.689   9.726
26896WAT     H180930   2.028   6.685   9.721
26896WAT     H280931   1.899   6.782   9.749
26897WAT      O80932   5.668   7.056   0.786
26897WAT     H180933   5.724   7.081   0.707
26897WAT     H280934   5.637   6.962   0.776
26898WAT      O80935   7.800   0.432   2.428
26898WAT     H180936   7.889   0.419   2.385
26898WAT     H280937   7.811   0.446   2.526
26899WAT      O80938   9.673   2.108   6.206
26899WAT     H180939   9.574   2.117   6.195
26899WAT     H280940   9.717   2.110   6.117
26900WAT      O80941   1.123   0.861   1.515
26900WAT     H180942   1.109   0.764   1.497
26900WAT     H280943   1.065   0.915   1.454
26901WAT      O80944   1.155   7.806   4.107
26901WAT     H180945   1.149   7.842   4.014
26901WAT     H280946   1.185   7.878   4.169
26902WAT      O80947   3.011   2.608   4.829
26902WAT     H180948   2.991   2.683   4.891
26902WAT     H280949   3.067   2.641   4.753
26903WAT      O80950   8.688   8.743   1.421
26903WAT     H180951   8.628   8.819   1.397
26903WAT     H280952   8.776   8.778   1.451
26904WAT      O80953   5.077   0.101   8.109
26904WAT     H180954   5.096   0.092   8.011
26904WAT     H280955   5.051   0.195   8.129
26905WAT      O80956   1.429   7.536   8.375
26905WAT     H180957   1.479   7.452   8.395
26905WAT     H280958   1.367   7.520   8.298
26906WAT      O80959   5.037   4.504   6.043
26906WAT     H180960   5.029   4.598   6.009
26906WAT     H280961   5.010   4.441   5.970
26907WAT      O80962   6.925   1.250   5.717
26907WAT     H180963   6.829   1.238   5.744
26907WAT     H280964   6.979   1.271   5.798
26908WAT      O80965   0.619   4.888   0.935
26908WAT     H180966   0.717   4.880   0.956
26908WAT     H280967   0.586   4.800   0.899
26909WAT      O80968   2.759   4.641   4.079
26909WAT     H180969   2.757   4.587   4.163
26909WAT     H280970   2.674   4.693   4.071
26910WAT      O80971   1.970   7.002   1.103
26910WAT     H180972   1.936   7.046   1.186
26910WAT     H280973   1.931   6.910   1.095
26911WAT      O80974   3.117   1.127   7.736
26911WAT     H180975   3.093   1.077   7.819
26911WAT     H280976   3.079   1.219   7.740
26912WAT      O80977   8.253   1.745   3.282
26912WAT     H180978   8.303   1.812   3.337
26912WAT     H280979   8.235   1.663   3.338
26913WAT      O80980   9.507   1.968   2.443
26913WAT     H180981   9.468   1.978   2.352
26913WAT     H280982   9.590   2.023   2.451
26914WAT      O80983   6.172   7.964   9.626
26914WAT     H180984   6.236   8.030   9.586
26914WAT     H280985   6.130   7.910   9.554
26915WAT      O80986   1.727   5.351   7.841
26915WAT     H180987   1.690   5.406   7.766
26915WAT     H280988   1.679   5.372   7.926
26916WAT      O80989   3.043   7.787   9.720
26916WAT     H180990   3.137   7.752   9.720
26916WAT     H280991   2.983   7.721   9.675
26917WAT      O80992   9.143   3.618   3.728
26917WAT     H180993   9.128   3.698   3.670
26917WAT     H280994   9.065   3.555   3.719
26918WAT      O80995   0.541   8.305   6.034
26918WAT     H180996   0.538   8.405   6.045
26918WAT     H280997   0.587   8.265   6.113
26919WAT      O80998   8.260   5.271   7.572
26919WAT     H180999   8.219   5.286   7.662
26919WAT     H281000   8.197   5.216   7.516
26920WAT      O81001   0.528   3.232   5.673
26920WAT     H181002   0.480   3.293   5.736
26920WAT     H281003   0.562   3.285   5.595
26921WAT      O81004   4.616   8.265   3.737
26921WAT     H181005   4.520   8.245   3.719
26921WAT     H281006   4.626   8.362   3.760
26922WAT      O81007   4.616   6.513   9.778
26922WAT     H181008   4.608   6.583   9.708
26922WAT     H281009   4.693   6.453   9.758
26923WAT      O81010   0.614   3.745   4.979
26923WAT     H181011   0.552   3.701   4.914
26923WAT     H281012   0.656   3.825   4.937
26924WAT      O81013   4.621   4.311   0.221
26924WAT     H181014   4.709   4.315   0.269
26924WAT     H281015   4.548   4.340   0.284
26925WAT      O81016   0.070   3.337   8.376
26925WAT     H181017   0.097   3.338   8.280
26925WAT     H281018   0.086   3.427   8.416
26926WAT      O81019   0.500   2.504   5.664
26926WAT     H181020   0.408   2.539   5.681
26926WAT     H281021   0.538   2.468   5.749
26927WAT      O81022   2.624   6.648   3.397
26927WAT     H181023   2.573   6.652   3.482
26927WAT     H281024   2.573   6.696   3.325
26928WAT      O81025   3.817   8.472   1.273
26928WAT     H181026   3.890   8.518   1.322
26928WAT     H281027   3.830   8.483   1.175
26929WAT      O81028   1.621   2.510   7.685
26929WAT     H181029   1.556   2.580   7.658
26929WAT     H281030   1.686   2.494   7.611
26930WAT      O81031   4.367   6.467   4.024
26930WAT     H181032   4.373   6.372   3.993
26930WAT     H281033   4.350   6.469   4.123
26931WAT      O81034   5.672   1.837   3.388
26931WAT     H181035   5.745   1.905   3.375
26931WAT     H281036   5.693   1.755   3.335
26932WAT      O81037   1.413   6.858   8.008
26932WAT     H181038   1.323   6.820   7.990
26932WAT     H281039   1.404   6.936   8.071
26933WAT      O81040   3.239   5.908   7.699
26933WAT     H181041   3.246   5.827   7.640
26933WAT     H281042   3.154   5.904   7.751
26934WAT      O81043   6.425   1.845   2.614
26934WAT     H181044   6.398   1.921   2.555
26934WAT     H281045   6.372   1.764   2.592
26935WAT      O81046   8.516   2.383   3.745
26935WAT     H181047   8.482   2.298   3.703
26935WAT     H281048   8.562   2.438   3.676
26936WAT      O81049   9.025   0.074   1.284
26936WAT     H181050   9.004   0.052   1.379
26936WAT     H281051   9.089   0.151   1.280
26937WAT      O81052   3.503   1.830   2.939
26937WAT     H181053   3.460   1.900   2.882
26937WAT     H281054   3.547   1.762   2.881
26938WAT      O81055   9.281   3.353   0.518
26938WAT     H181056   9.330   3.302   0.448
26938WAT     H281057   9.340   3.426   0.553
26939WAT      O81058   8.673   3.877   2.051
26939WAT     H181059   8.732   3.892   1.972
26939WAT     H281060   8.719   3.814   2.114
26940WAT      O81061   5.084   4.763   8.203
26940WAT     H181062   5.151   4.695   8.234
26940WAT     H281063   5.112   4.799   8.114
26941WAT      O81064   0.497   2.185   7.986
26941WAT     H181065   0.455   2.259   8.038
26941WAT     H281066   0.587   2.213   7.954
26942WAT      O81067   6.170   5.647   0.420
26942WAT     H181068   6.145   5.743   0.430
26942WAT     H281069   6.092   5.596   0.384
26943WAT      O81070   3.026   3.054   4.011
26943WAT     H181071   3.004   3.019   3.920
26943WAT     H281072   2.948   3.040   4.071
26944WAT      O81073   3.016   2.573   9.345
26944WAT     H181074   2.921   2.565   9.376
26944WAT     H281075   3.026   2.658   9.292
26945WAT      O81076   4.623   1.537   6.176
26945WAT     H181077   4.661   1.539   6.084
26945WAT     H281078   4.525   1.557   6.172
26946WAT      O81079   4.669   8.339   5.831
26946WAT     H181080   4.665   8.367   5.735
26946WAT     H281081   4.645   8.242   5.838
26947WAT      O81082   4.138   0.131   5.567
26947WAT     H181083   4.088   0.101   5.649
26947WAT     H281084   4.133   0.230   5.560
26948WAT      O81085   6.967   0.120   6.850
26948WAT     H181086   6.998   0.034   6.809
26948WAT     H281087   6.867   0.124   6.848
26949WAT      O81088   2.652   3.078   1.288
26949WAT     H181089   2.687   3.042   1.201
26949WAT     H281090   2.726   3.082   1.355
26950WAT      O81091   3.179   7.740   2.391
26950WAT     H181092   3.142   7.648   2.382
26950WAT     H281093   3.239   7.760   2.314
26951WAT      O81094   9.881   9.636   2.179
26951WAT     H181095   9.864   9.641   2.081
26951WAT     H281096   9.815   9.573   2.221
26952WAT      O81097   3.205   4.179   6.796
26952WAT     H181098   3.176   4.153   6.704
26952WAT     H281099   3.167   4.114   6.862
26953WAT      O81100   5.037   3.807   8.268
26953WAT     H181101   4.976   3.877   8.306
26953WAT     H281102   4.994   3.767   8.186
26954WAT      O81103   2.934   3.247   5.489
26954WAT     H181104   2.944   3.267   5.392
26954WAT     H281105   3.020   3.211   5.525
26955WAT      O81106   0.911   7.571   0.783
26955WAT     H181107   0.900   7.507   0.858
26955WAT     H281108   0.915   7.664   0.819
26956WAT      O81109   6.150   0.076   6.356
26956WAT     H181110   6.215   0.149   6.378
26956WAT     H281111   6.062   0.097   6.397
26957WAT      O81112   9.768   3.448   6.478
26957WAT     H181113   9.720   3.460   6.391
26957WAT     H281114   9.744   3.360   6.518
26958WAT      O81115   6.134   0.948   4.837
26958WAT     H181116   6.228   0.915   4.851
26958WAT     H281117   6.123   0.975   4.741
26959WAT      O81118   3.235   7.982   1.008
26959WAT     H181119   3.165   7.947   1.070
26959WAT     H281120   3.194   8.002   0.919
26960WAT      O81121   6.664   7.296   1.625
26960WAT     H181122   6.588   7.307   1.561
26960WAT     H281123   6.748   7.330   1.583
26961WAT      O81124   0.298   1.961   1.943
26961WAT     H181125   0.362   2.036   1.926
26961WAT     H281126   0.339   1.875   1.914
26962WAT      O81127   6.366   2.946   8.451
26962WAT     H181128   6.374   3.044   8.437
26962WAT     H281129   6.278   2.926   8.497
26963WAT      O81130   3.338   8.053   8.595
26963WAT     H181131   3.433   8.047   8.625
26963WAT     H281132   3.298   8.138   8.628
26964WAT      O81133   7.111   7.839   3.661
26964WAT     H181134   7.053   7.918   3.681
26964WAT     H281135   7.054   7.758   3.648
26965WAT      O81136   7.173   7.849   0.424
26965WAT     H181137   7.105   7.919   0.446
26965WAT     H281138   7.189   7.791   0.504
26966WAT      O81139   7.794   6.743   1.759
26966WAT     H181140   7.726   6.675   1.785
26966WAT     H281141   7.854   6.705   1.689
26967WAT      O81142   3.213   9.753   3.123
26967WAT     H181143   3.236   9.686   3.193
26967WAT     H281144   3.295   9.780   3.073
26968WAT      O81145   6.956   2.568   0.926
26968WAT     H181146   6.887   2.530   0.864
26968WAT     H281147   6.913   2.638   0.983
26969WAT      O81148   5.601   6.030   5.603
26969WAT     H181149   5.558   6.063   5.519
26969WAT     H281150   5.645   6.106   5.650
26970WAT      O81151   8.764   8.579   2.244
26970WAT     H181152   8.705   8.595   2.323
26970WAT     H281153   8.859   8.568   2.275
26971WAT      O81154   9.199   5.979   6.385
26971WAT     H181155   9.227   6.046   6.454
26971WAT     H281156   9.250   5.894   6.400
26972WAT      O81157   6.383   2.040   9.658
26972WAT     H181158   6.428   2.035   9.748
26972WAT     H281159   6.428   1.977   9.595
26973WAT      O81160   7.719   2.178   1.850
26973WAT     H181161   7.670   2.195   1.935
26973WAT     H281162   7.656   2.140   1.783
26974WAT      O81163   2.278   4.591   7.374
26974WAT     H181164   2.229   4.598   7.288
26974WAT     H281165   2.358   4.532   7.362
26975WAT      O81166   5.817   5.884   2.820
26975WAT     H181167   5.723   5.851   2.827
26975WAT     H281168   5.835   5.912   2.726
26976WAT      O81169   9.353   3.244   1.181
26976WAT     H181170   9.404   3.253   1.267
26976WAT     H281171   9.376   3.321   1.121
26977WAT      O81172   2.068   5.206   3.717
26977WAT     H181173   2.021   5.268   3.654
26977WAT     H281174   2.043   5.111   3.696
26978WAT      O81175   6.586   7.381   8.617
26978WAT     H181176   6.609   7.340   8.528
26978WAT     H281177   6.667   7.422   8.657
26979WAT      O81178   7.784   6.664   3.087
26979WAT     H181179   7.872   6.635   3.050
26979WAT     H281180   7.797   6.704   3.178
26980WAT      O81181   2.724   8.659   6.653
26980WAT     H181182   2.776   8.580   6.622
26980WAT     H281183   2.658   8.631   6.724
26981WAT      O81184   6.126   7.495   8.899
26981WAT     H181185   6.058   7.421   8.906
26981WAT     H281186   6.218   7.455   8.896
26982WAT      O81187   8.424   7.977   2.422
26982WAT     H181188   8.414   8.055   2.360
26982WAT     H281189   8.519   7.971   2.453
26983WAT      O81190   4.768   2.756   1.939
26983WAT     H181191   4.868   2.753   1.941
26983WAT     H281192   4.737   2.850   1.925
26984WAT      O81193   3.163   9.359   0.570
26984WAT     H181194   3.236   9.410   0.527
26984WAT     H281195   3.076   9.408   0.560
26985WAT      O81196   0.470   8.151   7.637
26985WAT     H181197   0.412   8.233   7.633
26985WAT     H281198   0.565   8.178   7.650
26986WAT      O81199   2.177   7.209   0.239
26986WAT     H181200   2.207   7.114   0.242
26986WAT     H281201   2.203   7.251   0.152
26987WAT      O81202   7.389   8.428   1.351
26987WAT     H181203   7.310   8.458   1.299
26987WAT     H281204   7.471   8.433   1.293
26988WAT      O81205   7.488   6.232   5.580
26988WAT     H181206   7.452   6.158   5.523
26988WAT     H281207   7.555   6.284   5.527
26989WAT      O81208   6.537   5.404   7.685
26989WAT     H181209   6.461   5.450   7.730
26989WAT     H281210   6.578   5.338   7.747
26990WAT      O81211   8.093   2.676   1.876
26990WAT     H181212   8.016   2.644   1.931
26990WAT     H281213   8.161   2.719   1.935
26991WAT      O81214   7.892   1.041   3.537
26991WAT     H181215   7.858   1.059   3.629
26991WAT     H281216   7.989   1.064   3.532
26992WAT      O81217   4.997   8.184   2.116
26992WAT     H181218   4.920   8.120   2.116
26992WAT     H281219   5.016   8.213   2.210
26993WAT      O81220   6.793   8.293   4.612
26993WAT     H181221   6.888   8.304   4.582
26993WAT     H281222   6.757   8.382   4.641
26994WAT      O81223   3.650   5.113   7.995
26994WAT     H181224   3.710   5.093   7.917
26994WAT     H281225   3.702   5.104   8.080
26995WAT      O81226   1.364   6.125   9.664
26995WAT     H181227   1.337   6.141   9.758
26995WAT     H281228   1.288   6.146   9.603
26996WAT      O81229   2.760   7.066   1.493
26996WAT     H181230   2.667   7.070   1.529
26996WAT     H281231   2.799   6.975   1.511
26997WAT      O81232   3.449   8.342   0.707
26997WAT     H181233   3.491   8.368   0.793
26997WAT     H281234   3.399   8.420   0.668
26998WAT      O81235   0.884   7.028   5.669
26998WAT     H181236   0.796   7.075   5.664
26998WAT     H281237   0.936   7.044   5.585
26999WAT      O81238   1.861   1.465   9.182
26999WAT     H181239   1.814   1.422   9.259
26999WAT     H281240   1.794   1.513   9.125
27000WAT      O81241   1.747   4.620   6.055
27000WAT     H181242   1.671   4.554   6.052
27000WAT     H281243   1.768   4.641   6.151
27001WAT      O81244   7.808   5.855   5.991
27001WAT     H181245   7.773   5.904   6.072
27001WAT     H281246   7.812   5.918   5.913
27002WAT      O81247   5.849   2.702   6.819
27002WAT     H181248   5.876   2.791   6.781
27002WAT     H281249   5.751   2.704   6.838
27003WAT      O81250   4.882   7.408   0.182
27003WAT     H181251   4.917   7.413   0.089
27003WAT     H281252   4.805   7.471   0.192
27004WAT      O81253   9.669   6.035   3.709
27004WAT     H181254   9.691   6.058   3.804
27004WAT     H281255   9.638   5.940   3.705
27005WAT      O81256   3.420   1.108   5.104
27005WAT     H181257   3.378   1.197   5.088
27005WAT     H281258   3.420   1.056   5.018
27006WAT      O81259   1.694   0.734   7.838
27006WAT     H181260   1.757   0.767   7.908
27006WAT     H281261   1.682   0.803   7.767
27007WAT      O81262   0.328   2.481   7.904
27007WAT     H181263   0.391   2.479   7.826
27007WAT     H281264   0.380   2.499   7.988
27008WAT      O81265   6.233   7.448   0.385
27008WAT     H181266   6.185   7.422   0.469
27008WAT     H281267   6.283   7.369   0.350
27009WAT      O81268   8.688   5.367   6.226
27009WAT     H181269   8.610   5.390   6.283
27009WAT     H281270   8.686   5.269   6.205
27010WAT      O81271   0.985   3.916   8.500
27010WAT     H181272   1.051   3.844   8.476
27010WAT     H281273   0.956   3.904   8.595
27011WAT      O81274   0.388   8.450   4.203
27011WAT     H181275   0.367   8.371   4.145
27011WAT     H281276   0.339   8.530   4.170
27012WAT      O81277   2.955   5.769   8.693
27012WAT     H181278   2.996   5.805   8.777
27012WAT     H281279   3.018   5.704   8.650
27013WAT      O81280   7.354   7.211   8.999
27013WAT     H181281   7.312   7.259   8.921
27013WAT     H281282   7.398   7.277   9.060
27014WAT      O81283   5.029   5.698   6.304
27014WAT     H181284   5.100   5.716   6.236
27014WAT     H281285   4.956   5.643   6.263
27015WAT      O81286   4.044   5.539   0.878
27015WAT     H181287   3.993   5.623   0.860
27015WAT     H281288   4.106   5.554   0.956
27016WAT      O81289   4.544   0.416   1.751
27016WAT     H181290   4.517   0.421   1.848
27016WAT     H281291   4.588   0.328   1.733
27017WAT      O81292   6.657   5.908   9.598
27017WAT     H181293   6.614   5.976   9.539
27017WAT     H281294   6.743   5.945   9.634
27018WAT      O81295   5.683   4.927   6.255
27018WAT     H181296   5.755   4.972   6.308
27018WAT     H281297   5.696   4.828   6.258
27019WAT      O81298   7.545   5.577   2.525
27019WAT     H181299   7.465   5.547   2.473
27019WAT     H281300   7.548   5.529   2.613
27020WAT      O81301   2.639   7.806   5.547
27020WAT     H181302   2.628   7.718   5.593
27020WAT     H281303   2.624   7.795   5.449
27021WAT      O81304   1.043   6.983   3.748
27021WAT     H181305   1.135   6.993   3.786
27021WAT     H281306   1.037   6.896   3.698
27022WAT      O81307   3.269   4.265   8.097
27022WAT     H181308   3.299   4.354   8.064
27022WAT     H281309   3.227   4.275   8.187
27023WAT      O81310   9.730   8.116   6.558
27023WAT     H181311   9.711   8.086   6.465
27023WAT     H281312   9.739   8.036   6.618
27024WAT      O81313   1.578   1.456   7.372
27024WAT     H181314   1.482   1.431   7.367
27024WAT     H281315   1.595   1.538   7.317
27025WAT      O81316   8.728   1.842   9.006
27025WAT     H181317   8.807   1.804   9.054
27025WAT     H281318   8.646   1.790   9.030
27026WAT      O81319   8.485   9.689   7.172
27026WAT     H181320   8.443   9.626   7.238
27026WAT     H281321   8.417   9.757   7.145
27027WAT      O81322   8.207   0.469   3.301
27027WAT     H181323   8.110   0.455   3.321
27027WAT     H281324   8.220   0.474   3.202
27028WAT      O81325   8.061   7.241   5.076
27028WAT     H181326   8.012   7.254   5.162
27028WAT     H281327   8.125   7.165   5.085
27029WAT      O81328   6.473   8.543   0.659
27029WAT     H181329   6.567   8.575   0.656
27029WAT     H281330   6.411   8.618   0.638
27030WAT      O81331   0.597   9.529   6.145
27030WAT     H181332   0.517   9.552   6.089
27030WAT     H281333   0.669   9.492   6.087
27031WAT      O81334   7.860   0.647   6.474
27031WAT     H181335   7.946   0.660   6.524
27031WAT     H281336   7.784   0.640   6.539
27032WAT      O81337   6.318   8.952   2.785
27032WAT     H181338   6.239   8.999   2.744
27032WAT     H281339   6.289   8.863   2.820
27033WAT      O81340   6.141   7.223   2.626
27033WAT     H181341   6.044   7.204   2.642
27033WAT     H281342   6.179   7.156   2.563
27034WAT      O81343   8.426   2.587   9.152
27034WAT     H181344   8.362   2.658   9.179
27034WAT     H281345   8.443   2.593   9.054
27035WAT      O81346   1.192   7.960   5.553
27035WAT     H181347   1.237   8.039   5.511
27035WAT     H281348   1.140   7.990   5.633
27036WAT      O81349   2.885   9.262   8.582
27036WAT     H181350   2.894   9.186   8.646
27036WAT     H281351   2.815   9.325   8.615
27037WAT      O81352   9.037   4.225   3.762
27037WAT     H181353   9.017   4.171   3.680
27037WAT     H281354   9.047   4.164   3.841
27038WAT      O81355   3.144   9.167   5.353
27038WAT     H181356   3.114   9.084   5.399
27038WAT     H281357   3.065   9.216   5.317
27039WAT      O81358   4.272   0.916   3.554
27039WAT     H181359   4.174   0.932   3.568
27039WAT     H281360   4.286   0.825   3.517
27040WAT      O81361   8.441   9.129   4.946
27040WAT     H181362   8.342   9.141   4.935
27040WAT     H281363   8.470   9.171   5.032
27041WAT      O81364   0.079   5.482   2.241
27041WAT     H181365   0.078   5.404   2.178
27041WAT     H281366   0.111   5.563   2.194
27042WAT      O81367   2.666   9.213   1.466
27042WAT     H181368   2.760   9.182   1.448
27042WAT     H281369   2.608   9.134   1.483
27043WAT      O81370   4.742   2.091   4.433
27043WAT     H181371   4.802   2.143   4.372
27043WAT     H281372   4.652   2.083   4.391
27044WAT      O81373   9.649   8.102   1.813
27044WAT     H181374   9.639   8.005   1.837
27044WAT     H281375   9.614   8.117   1.721
27045WAT      O81376   1.402   1.216   3.178
27045WAT     H181377   1.353   1.291   3.135
27045WAT     H281378   1.442   1.247   3.264
27046WAT      O81379   9.345   4.340   6.831
27046WAT     H181380   9.404   4.399   6.886
27046WAT     H281381   9.304   4.270   6.889
27047WAT      O81382   4.000   9.501   4.693
27047WAT     H181383   3.953   9.531   4.610
27047WAT     H281384   4.061   9.574   4.725
27048WAT      O81385   8.721   4.078   6.240
27048WAT     H181386   8.717   4.149   6.170
27048WAT     H281387   8.797   4.015   6.220
27049WAT      O81388   4.961   9.567   2.193
27049WAT     H181389   4.921   9.654   2.162
27049WAT     H281390   5.051   9.556   2.152
27050WAT      O81391   7.559   6.132   1.008
27050WAT     H181392   7.525   6.041   0.988
27050WAT     H281393   7.658   6.135   0.993
27051WAT      O81394   0.265   2.711   5.356
27051WAT     H181395   0.300   2.692   5.448
27051WAT     H281396   0.211   2.633   5.324
27052WAT      O81397   3.505   6.964   3.768
27052WAT     H181398   3.497   7.048   3.715
27052WAT     H281399   3.579   6.908   3.730
27053WAT      O81400   9.590   2.250   8.645
27053WAT     H181401   9.539   2.175   8.687
27053WAT     H281402   9.653   2.212   8.577
27054WAT      O81403   8.224   8.927   0.360
27054WAT     H181404   8.142   8.870   0.368
27054WAT     H281405   8.302   8.880   0.402
27055WAT      O81406   3.276   1.366   0.385
27055WAT     H181407   3.198   1.397   0.439
27055WAT     H281408   3.282   1.266   0.390
27056WAT      O81409   3.777   6.872   1.809
27056WAT     H181410   3.688   6.876   1.854
27056WAT     H281411   3.789   6.782   1.767
27057WAT      O81412   4.949   0.855   3.078
27057WAT     H181413   4.885   0.894   3.145
27057WAT     H281414   4.952   0.913   2.997
27058WAT      O81415   4.887   8.117   3.793
27058WAT     H181416   4.790   8.132   3.810
27058WAT     H281417   4.941   8.186   3.841
27059WAT      O81418   2.881   8.681   8.066
27059WAT     H181419   2.810   8.747   8.088
27059WAT     H281420   2.850   8.589   8.092
27060WAT      O81421   2.062   4.380   1.657
27060WAT     H181422   2.020   4.298   1.618
27060WAT     H281423   2.159   4.362   1.674
27061WAT      O81424   5.448   8.772   3.787
27061WAT     H181425   5.419   8.791   3.880
27061WAT     H281426   5.371   8.784   3.724
27062WAT      O81427   1.689   6.113   6.907
27062WAT     H181428   1.688   6.047   6.983
27062WAT     H281429   1.604   6.165   6.907
27063WAT      O81430   0.421   5.777   7.456
27063WAT     H181431   0.357   5.808   7.526
27063WAT     H281432   0.385   5.695   7.412
27064WAT      O81433   4.638   9.293   4.201
27064WAT     H181434   4.719   9.312   4.257
27064WAT     H281435   4.666   9.280   4.106
27065WAT      O81436   2.092   9.491   0.199
27065WAT     H181437   2.040   9.573   0.176
27065WAT     H281438   2.055   9.451   0.283
27066WAT      O81439   2.528   0.258   0.598
27066WAT     H181440   2.523   0.357   0.608
27066WAT     H281441   2.537   0.234   0.501
27067WAT      O81442   9.395   5.875   5.006
27067WAT     H181443   9.487   5.876   5.045
27067WAT     H281444   9.329   5.850   5.077
27068WAT      O81445   4.060   2.787   7.538
27068WAT     H181446   4.001   2.865   7.515
27068WAT     H281447   4.094   2.798   7.631
27069WAT      O81448   5.459   3.119   2.083
27069WAT     H181449   5.409   3.205   2.097
27069WAT     H281450   5.461   3.067   2.168
27070WAT      O81451   2.408   3.998   0.481
27070WAT     H181452   2.504   4.013   0.507
27070WAT     H281453   2.403   3.928   0.410
27071WAT      O81454   7.865   4.260   4.881
27071WAT     H181455   7.926   4.218   4.947
27071WAT     H281456   7.906   4.254   4.790
27072WAT      O81457   8.862   2.500   4.951
27072WAT     H181458   8.932   2.497   5.022
27072WAT     H281459   8.898   2.461   4.866
27073WAT      O81460   8.864   9.132   1.852
27073WAT     H181461   8.823   9.099   1.767
27073WAT     H281462   8.792   9.163   1.913
27074WAT      O81463   9.600   0.687   5.394
27074WAT     H181464   9.669   0.696   5.322
27074WAT     H281465   9.529   0.757   5.382
27075WAT      O81466   5.594   3.477   2.408
27075WAT     H181467   5.624   3.471   2.312
27075WAT     H281468   5.674   3.476   2.468
27076WAT      O81469   6.775   6.134   8.279
27076WAT     H181470   6.779   6.037   8.304
27076WAT     H281471   6.772   6.142   8.179
27077WAT      O81472   8.134   7.915   9.639
27077WAT     H181473   8.185   7.926   9.724
27077WAT     H281474   8.072   7.837   9.647
27078WAT      O81475   9.775   6.044   4.376
27078WAT     H181476   9.842   6.086   4.438
27078WAT     H281477   9.755   6.107   4.301
27079WAT      O81478   6.280   9.729   4.663
27079WAT     H181479   6.226   9.684   4.593
27079WAT     H281480   6.269   9.680   4.750
27080WAT      O81481   4.505   2.229   5.312
27080WAT     H181482   4.527   2.143   5.356
27080WAT     H281483   4.441   2.212   5.236
27081WAT      O81484   6.045   9.768   3.932
27081WAT     H181485   6.026   9.694   3.867
27081WAT     H281486   5.976   9.768   4.004
27082WAT      O81487   5.763   0.706   1.089
27082WAT     H181488   5.836   0.693   1.157
27082WAT     H281489   5.723   0.618   1.065
27083WAT      O81490   0.164   5.150   6.183
27083WAT     H181491   0.109   5.099   6.248
27083WAT     H281492   0.105   5.210   6.129
27084WAT      O81493   6.047   1.079   7.084
27084WAT     H181494   6.063   1.166   7.130
27084WAT     H281495   5.966   1.035   7.123
27085WAT      O81496   0.439   4.201   9.123
27085WAT     H181497   0.429   4.215   9.222
27085WAT     H281498   0.484   4.113   9.107
27086WAT      O81499   2.541   7.816   1.705
27086WAT     H181500   2.510   7.865   1.786
27086WAT     H281501   2.466   7.761   1.668
27087WAT      O81502   6.303   9.340   4.633
27087WAT     H181503   6.308   9.336   4.732
27087WAT     H281504   6.393   9.320   4.595
27088WAT      O81505   1.740   4.340   5.426
27088WAT     H181506   1.667   4.297   5.479
27088WAT     H281507   1.708   4.429   5.392
27089WAT      O81508   2.276   6.351   5.747
27089WAT     H181509   2.298   6.263   5.789
27089WAT     H281510   2.191   6.386   5.785
27090WAT      O81511   6.705   8.845   0.392
27090WAT     H181512   6.793   8.892   0.378
27090WAT     H281513   6.701   8.765   0.332
27091WAT      O81514   9.657   9.529   6.279
27091WAT     H181515   9.716   9.564   6.351
27091WAT     H281516   9.597   9.602   6.246
27092WAT      O81517   1.196   7.159   3.164
27092WAT     H181518   1.295   7.144   3.169
27092WAT     H281519   1.153   7.130   3.249
27093WAT      O81520   1.581   1.429   0.355
27093WAT     H181521   1.640   1.501   0.392
27093WAT     H281522   1.600   1.343   0.401
27094WAT      O81523   9.447   3.457   7.018
27094WAT     H181524   9.402   3.472   6.930
27094WAT     H281525   9.546   3.456   7.004
27095WAT      O81526   6.996   7.140   7.929
27095WAT     H181527   6.945   7.056   7.947
27095WAT     H281528   6.960   7.184   7.847
27096WAT      O81529   1.146   7.336   9.566
27096WAT     H181530   1.185   7.422   9.597
27096WAT     H281531   1.173   7.262   9.627
27097WAT      O81532   4.486   8.009   8.951
27097WAT     H181533   4.539   7.930   8.982
27097WAT     H281534   4.543   8.067   8.894
27098WAT      O81535   1.582   7.910   1.491
27098WAT     H181536   1.578   7.924   1.590
27098WAT     H281537   1.529   7.829   1.466
27099WAT      O81538   4.694   4.921   7.637
27099WAT     H181539   4.641   4.976   7.701
27099WAT     H281540   4.764   4.870   7.687
27100WAT      O81541   6.929   4.278   6.996
27100WAT     H181542   6.846   4.271   7.051
27100WAT     H281543   6.990   4.202   7.017
27101WAT      O81544   2.221   6.931   9.605
27101WAT     H181545   2.206   6.960   9.510
27101WAT     H281546   2.276   7.000   9.653
27102WAT      O81547   5.394   5.186   1.812
27102WAT     H181548   5.377   5.087   1.818
27102WAT     H281549   5.366   5.230   1.898
27103WAT      O81550   1.542   1.874   0.114
27103WAT     H181551   1.633   1.916   0.106
27103WAT     H281552   1.501   1.867   0.023
27104WAT      O81553   9.435   2.608   9.431
27104WAT     H181554   9.517   2.619   9.488
27104WAT     H281555   9.357   2.587   9.489
27105WAT      O81556   1.859   0.222   6.942
27105WAT     H181557   1.797   0.188   7.013
27105WAT     H281558   1.807   0.244   6.860
27106WAT      O81559   3.760   3.207   8.346
27106WAT     H181560   3.698   3.279   8.316
27106WAT     H281561   3.773   3.212   8.445
27107WAT      O81562   9.848   9.446   1.679
27107WAT     H181563   9.772   9.497   1.719
27107WAT     H281564   9.898   9.399   1.752
27108WAT      O81565   8.634   6.446   8.869
27108WAT     H181566   8.711   6.432   8.806
27108WAT     H281567   8.553   6.473   8.816
27109WAT      O81568   5.528   2.243   1.290
27109WAT     H181569   5.579   2.316   1.334
27109WAT     H281570   5.468   2.198   1.357
27110WAT      O81571   7.552   7.398   0.193
27110WAT     H181572   7.538   7.301   0.207
27110WAT     H281573   7.464   7.442   0.174
27111WAT      O81574   7.634   7.626   7.479
27111WAT     H181575   7.725   7.586   7.490
27111WAT     H281576   7.564   7.559   7.506
27112WAT      O81577   1.135   4.543   8.986
27112WAT     H181578   1.084   4.490   9.054
27112WAT     H281579   1.233   4.529   9.000
27113WAT      O81580   9.835   2.248   7.798
27113WAT     H181581   9.886   2.301   7.865
27113WAT     H281582   9.835   2.152   7.826
27114WAT      O81583   1.848   1.763   0.163
27114WAT     H181584   1.914   1.749   0.089
27114WAT     H281585   1.819   1.859   0.164
27115WAT      O81586   7.574   5.852   1.311
27115WAT     H181587   7.623   5.838   1.225
27115WAT     H281588   7.513   5.774   1.328
27116WAT      O81589   1.612   2.634   8.233
27116WAT     H181590   1.686   2.569   8.252
27116WAT     H281591   1.580   2.621   8.139
27117WAT      O81592   2.600   3.990   7.222
27117WAT     H181593   2.636   4.083   7.225
27117WAT     H281594   2.656   3.931   7.282
27118WAT      O81595   6.357   2.671   7.601
27118WAT     H181596   6.288   2.695   7.669
27118WAT     H281597   6.396   2.582   7.624
27119WAT      O81598   8.671   6.598   7.026
27119WAT     H181599   8.607   6.523   7.016
27119WAT     H281600   8.688   6.615   7.124
27120WAT      O81601   3.693   4.638   2.826
27120WAT     H181602   3.686   4.625   2.925
27120WAT     H281603   3.782   4.605   2.794
27121WAT      O81604   2.244   6.434   7.070
27121WAT     H181605   2.181   6.385   7.131
27121WAT     H281606   2.321   6.374   7.046
27122WAT      O81607   1.990   6.054   7.433
27122WAT     H181608   2.034   6.003   7.359
27122WAT     H281609   2.058   6.108   7.482
27123WAT      O81610   8.086   9.125   2.481
27123WAT     H181611   8.123   9.184   2.409
27123WAT     H281612   7.986   9.132   2.482
27124WAT      O81613   0.213   1.498   6.797
27124WAT     H181614   0.162   1.412   6.807
27124WAT     H281615   0.175   1.567   6.858
27125WAT      O81616   2.527   5.591   0.518
27125WAT     H181617   2.474   5.623   0.596
27125WAT     H281618   2.544   5.492   0.528
27126WAT      O81619   3.963   0.316   1.410
27126WAT     H181620   3.925   0.254   1.479
27126WAT     H281621   3.905   0.397   1.404
27127WAT      O81622   4.070   8.678   5.560
27127WAT     H181623   3.988   8.736   5.568
27127WAT     H281624   4.074   8.616   5.638
27128WAT      O81625   6.410   2.366   1.587
27128WAT     H181626   6.462   2.340   1.506
27128WAT     H281627   6.362   2.452   1.569
27129WAT      O81628   7.682   5.253   9.189
27129WAT     H181629   7.595   5.270   9.142
27129WAT     H281630   7.669   5.183   9.260
27130WAT      O81631   7.990   6.108   1.401
27130WAT     H181632   8.053   6.040   1.361
27130WAT     H281633   8.037   6.157   1.474
27131WAT      O81634   3.990   9.243   2.569
27131WAT     H181635   4.018   9.158   2.613
27131WAT     H281636   4.044   9.319   2.606
27132WAT      O81637   5.578   9.361   0.601
27132WAT     H181638   5.513   9.310   0.658
27132WAT     H281639   5.661   9.307   0.590
27133WAT      O81640   9.253   0.879   2.871
27133WAT     H181641   9.328   0.938   2.840
27133WAT     H281642   9.239   0.805   2.805
27134WAT      O81643   8.014   3.012   5.643
27134WAT     H181644   8.012   2.949   5.566
27134WAT     H281645   8.109   3.035   5.665
27135WAT      O81646   9.833   0.819   8.851
27135WAT     H181647   9.913   0.864   8.811
27135WAT     H281648   9.847   0.807   8.949
27136WAT      O81649   0.744   3.318   8.868
27136WAT     H181650   0.826   3.296   8.920
27136WAT     H281651   0.668   3.261   8.898
27137WAT      O81652   6.724   0.031   8.561
27137WAT     H181653   6.780  -0.052   8.558
27137WAT     H281654   6.748   0.085   8.642
27138WAT      O81655   2.147   3.449   0.467
27138WAT     H181656   2.180   3.389   0.541
27138WAT     H281657   2.053   3.424   0.443
27139WAT      O81658   7.196   9.285   4.245
27139WAT     H181659   7.137   9.249   4.173
27139WAT     H281660   7.258   9.214   4.276
27140WAT      O81661   1.740   4.160   1.379
27140WAT     H181662   1.787   4.142   1.466
27140WAT     H281663   1.800   4.212   1.319
27141WAT      O81664   7.661   1.765   1.699
27141WAT     H181665   7.704   1.688   1.652
27141WAT     H281666   7.626   1.830   1.632
27142WAT      O81667   9.042   3.608   6.936
27142WAT     H181668   9.027   3.524   6.884
27142WAT     H281669   8.955   3.658   6.945
27143WAT      O81670   0.608   9.749   5.073
27143WAT     H181671   0.678   9.820   5.072
27143WAT     H281672   0.615   9.694   4.990
27144WAT      O81673   8.277   8.691   2.020
27144WAT     H181674   8.263   8.783   1.983
27144WAT     H281675   8.233   8.684   2.109
27145WAT      O81676   7.370   6.421   7.763
27145WAT     H181677   7.382   6.355   7.836
27145WAT     H281678   7.449   6.482   7.759
27146WAT      O81679   5.467   4.844   3.860
27146WAT     H181680   5.386   4.896   3.833
27146WAT     H281681   5.462   4.752   3.821
27147WAT      O81682   7.885   9.103   4.866
27147WAT     H181683   7.832   9.126   4.947
27147WAT     H281684   7.937   9.184   4.836
27148WAT      O81685   6.274   8.701   8.421
27148WAT     H181686   6.241   8.732   8.332
27148WAT     H281687   6.370   8.729   8.433
27149WAT      O81688   6.222   8.733   2.909
27149WAT     H181689   6.210   8.649   2.856
27149WAT     H281690   6.136   8.755   2.956
27150WAT      O81691   2.364   9.204   6.246
27150WAT     H181692   2.376   9.190   6.148
27150WAT     H281693   2.444   9.169   6.295
27151WAT      O81694   5.523   3.643   0.740
27151WAT     H181695   5.431   3.615   0.766
27151WAT     H281696   5.562   3.576   0.677
27152WAT      O81697   3.909   1.666   9.003
27152WAT     H181698   3.939   1.616   8.922
27152WAT     H281699   3.867   1.602   9.067
27153WAT      O81700   0.137   3.898   2.753
27153WAT     H181701   0.158   3.960   2.677
27153WAT     H281702   0.075   3.827   2.720
27154WAT      O81703   0.852   5.862   8.545
27154WAT     H181704   0.876   5.955   8.573
27154WAT     H281705   0.759   5.860   8.508
27155WAT      O81706   6.170   8.578   0.263
27155WAT     H181707   6.265   8.582   0.231
27155WAT     H281708   6.126   8.666   0.246
27156WAT      O81709   4.238   1.816   1.973
27156WAT     H181710   4.328   1.774   1.983
27156WAT     H281711   4.201   1.795   1.883
27157WAT      O81712   8.557   0.803   2.678
27157WAT     H181713   8.532   0.850   2.763
27157WAT     H281714   8.486   0.736   2.655
27158WAT      O81715   7.554   2.692   2.166
27158WAT     H181716   7.478   2.710   2.228
27158WAT     H281717   7.638   2.681   2.219
27159WAT      O81718   8.071   1.337   8.314
27159WAT     H181719   8.170   1.330   8.325
27159WAT     H281720   8.047   1.433   8.296
27160WAT      O81721   8.259   5.485   5.537
27160WAT     H181722   8.230   5.403   5.586
27160WAT     H281723   8.359   5.487   5.532
27161WAT      O81724   3.935   5.516   0.072
27161WAT     H181725   4.015   5.467   0.108
27161WAT     H281726   3.957   5.553  -0.018
27162WAT      O81727   0.797   7.483   0.527
27162WAT     H181728   0.875   7.509   0.470
27162WAT     H281729   0.812   7.513   0.621
27163WAT      O81730   4.339   2.835   4.210
27163WAT     H181731   4.323   2.897   4.286
27163WAT     H281732   4.407   2.874   4.148
27164WAT      O81733   4.828   7.873   0.610
27164WAT     H181734   4.833   7.794   0.672
27164WAT     H281735   4.914   7.882   0.560
27165WAT      O81736   9.098   4.433   1.864
27165WAT     H181737   9.041   4.441   1.782
27165WAT     H281738   9.103   4.337   1.892
27166WAT      O81739   0.037   1.555   5.318
27166WAT     H181740   0.046   1.461   5.351
27166WAT     H281741  -0.051   1.593   5.349
27167WAT      O81742   8.725   7.716   0.876
27167WAT     H181743   8.750   7.813   0.872
27167WAT     H281744   8.630   7.704   0.847
27168WAT      O81745   6.837   7.079   3.858
27168WAT     H181746   6.907   7.149   3.875
27168WAT     H281747   6.850   7.003   3.922
27169WAT      O81748   5.962   7.476   6.052
27169WAT     H181749   5.896   7.492   6.126
27169WAT     H281750   5.948   7.544   5.980
27170WAT      O81751   2.428   5.732   0.317
27170WAT     H181752   2.464   5.692   0.401
27170WAT     H281753   2.329   5.719   0.313
27171WAT      O81754   9.663   8.227   0.745
27171WAT     H181755   9.732   8.189   0.806
27171WAT     H281756   9.573   8.189   0.769
27172WAT      O81757   3.027   9.522   5.659
27172WAT     H181758   2.988   9.578   5.733
27172WAT     H281759   3.091   9.456   5.698
27173WAT      O81760   9.448   1.423   4.231
27173WAT     H181761   9.411   1.478   4.156
27173WAT     H281762   9.373   1.385   4.285
27174WAT      O81763   1.086   9.308   4.126
27174WAT     H181764   1.051   9.220   4.157
27174WAT     H281765   1.175   9.326   4.168
27175WAT      O81766   0.248   4.696   6.776
27175WAT     H181767   0.309   4.620   6.793
27175WAT     H281768   0.301   4.775   6.744
27176WAT      O81769   9.567   7.016   8.480
27176WAT     H181770   9.528   7.041   8.568
27176WAT     H281771   9.572   6.917   8.473
27177WAT      O81772   9.657   3.383   2.289
27177WAT     H181773   9.703   3.466   2.317
27177WAT     H281774   9.651   3.379   2.189
27178WAT      O81775   7.649   6.076   0.173
27178WAT     H181776   7.727   6.138   0.188
27178WAT     H281777   7.572   6.105   0.230
27179WAT      O81778   3.404   9.575   4.535
27179WAT     H181779   3.453   9.488   4.523
27179WAT     H281780   3.453   9.632   4.600
27180WAT      O81781   5.923   5.730   4.612
27180WAT     H181782   5.833   5.706   4.576
27180WAT     H281783   5.967   5.649   4.651
27181WAT      O81784   2.321   0.013   6.436
27181WAT     H181785   2.244  -0.044   6.408
27181WAT     H281786   2.342   0.079   6.365
27182WAT      O81787   9.101   8.263   4.946
27182WAT     H181788   9.035   8.254   5.020
27182WAT     H281789   9.069   8.332   4.881
27183WAT      O81790   0.030   4.509   0.187
27183WAT     H181791  -0.025   4.517   0.104
27183WAT     H281792   0.073   4.597   0.207
27184WAT      O81793   9.747   2.064   2.451
27184WAT     H181794   9.839   2.061   2.412
27184WAT     H281795   9.725   2.158   2.477
27185WAT      O81796   7.882   7.606   6.651
27185WAT     H181797   7.845   7.567   6.735
27185WAT     H281798   7.929   7.535   6.599
27186WAT      O81799   2.664   3.046   8.645
27186WAT     H181800   2.568   3.057   8.617
27186WAT     H281801   2.671   2.980   8.719
27187WAT      O81802   7.082   0.583   6.884
27187WAT     H181803   7.182   0.584   6.882
27187WAT     H281804   7.047   0.655   6.825
27188WAT      O81805   0.020   6.965   9.579
27188WAT     H181806   0.009   6.870   9.550
27188WAT     H281807  -0.064   6.996   9.625
27189WAT      O81808   5.059   0.445   1.305
27189WAT     H181809   4.965   0.423   1.331
27189WAT     H281810   5.111   0.472   1.386
27190WAT      O81811   6.720   8.501   6.317
27190WAT     H181812   6.650   8.430   6.314
27190WAT     H281813   6.749   8.516   6.411
27191WAT      O81814   5.676   0.453   1.030
27191WAT     H181815   5.722   0.366   1.011
27191WAT     H281816   5.589   0.436   1.076
27192WAT      O81817   4.381   7.558   4.932
27192WAT     H181818   4.295   7.588   4.891
27192WAT     H281819   4.372   7.558   5.032
27193WAT      O81820   4.541   7.938   3.324
27193WAT     H181821   4.507   8.008   3.261
27193WAT     H281822   4.628   7.968   3.362
27194WAT      O81823   6.719   1.282   4.463
27194WAT     H181824   6.754   1.200   4.418
27194WAT     H281825   6.790   1.352   4.463
27195WAT      O81826   4.829   8.492   7.461
27195WAT     H181827   4.871   8.465   7.547
27195WAT     H281828   4.894   8.547   7.407
27196WAT      O81829   4.564   4.211   7.825
27196WAT     H181830   4.576   4.127   7.879
27196WAT     H281831   4.597   4.289   7.878
27197WAT      O81832   2.543   8.183   1.346
27197WAT     H181833   2.492   8.234   1.415
27197WAT     H281834   2.623   8.141   1.389
27198WAT      O81835   3.189   1.215   8.049
27198WAT     H181836   3.090   1.204   8.053
27198WAT     H281837   3.212   1.312   8.062
27199WAT      O81838   8.618   8.512   7.325
27199WAT     H181839   8.621   8.418   7.358
27199WAT     H281840   8.645   8.515   7.229
27200WAT      O81841   7.760   6.259   5.969
27200WAT     H181842   7.838   6.238   5.910
27200WAT     H281843   7.676   6.259   5.915
27201WAT      O81844   8.819   1.545   8.189
27201WAT     H181845   8.782   1.453   8.184
27201WAT     H281846   8.753   1.610   8.150
27202WAT      O81847   3.091   4.005   6.971
27202WAT     H181848   3.135   4.070   7.033
27202WAT     H281849   3.084   3.915   7.016
27203WAT      O81850   1.787   4.208   1.830
27203WAT     H181851   1.743   4.151   1.761
27203WAT     H281852   1.721   4.275   1.865
27204WAT      O81853   0.753   9.385   5.006
27204WAT     H181854   0.661   9.416   5.030
27204WAT     H281855   0.809   9.465   4.981
27205WAT      O81856   0.863   4.624   3.675
27205WAT     H181857   0.829   4.550   3.618
27205WAT     H281858   0.868   4.709   3.622
27206WAT      O81859   4.344   4.338   1.213
27206WAT     H181860   4.417   4.270   1.220
27206WAT     H281861   4.262   4.295   1.176
27207WAT      O81862   2.839   7.199   3.189
27207WAT     H181863   2.787   7.130   3.138
27207WAT     H281864   2.789   7.224   3.272
27208WAT      O81865   5.210   4.237   6.653
27208WAT     H181866   5.235   4.283   6.738
27208WAT     H281867   5.285   4.244   6.587
27209WAT      O81868   1.759   8.238   1.183
27209WAT     H181869   1.750   8.139   1.195
27209WAT     H281870   1.670   8.282   1.199
27210WAT      O81871   6.551   3.666   8.161
27210WAT     H181872   6.569   3.759   8.129
27210WAT     H281873   6.453   3.655   8.179
27211WAT      O81874   7.504   8.283   8.597
27211WAT     H181875   7.526   8.380   8.602
27211WAT     H281876   7.470   8.261   8.506
27212WAT      O81877   8.817   8.767   8.715
27212WAT     H181878   8.727   8.731   8.743
27212WAT     H281879   8.806   8.861   8.683
27213WAT      O81880   3.962   3.715   2.266
27213WAT     H181881   3.963   3.632   2.211
27213WAT     H281882   4.006   3.696   2.355
27214WAT      O81883   6.709   4.015   3.395
27214WAT     H181884   6.623   4.063   3.381
27214WAT     H281885   6.720   3.945   3.325
27215WAT      O81886   4.975   8.293   8.934
27215WAT     H181887   5.040   8.220   8.953
27215WAT     H281888   4.936   8.327   9.020
27216WAT      O81889   8.038   3.665   1.335
27216WAT     H181890   8.103   3.595   1.307
27216WAT     H281891   8.085   3.752   1.347
27217WAT      O81892   7.236   2.409   1.291
27217WAT     H181893   7.318   2.392   1.237
27217WAT     H281894   7.210   2.505   1.284
27218WAT      O81895   8.786   0.827   5.417
27218WAT     H181896   8.713   0.808   5.352
27218WAT     H281897   8.868   0.774   5.392
27219WAT      O81898   5.167   9.529   8.268
27219WAT     H181899   5.237   9.594   8.297
27219WAT     H281900   5.076   9.567   8.288
27220WAT      O81901   6.572   7.839   3.564
27220WAT     H181902   6.498   7.876   3.621
27220WAT     H281903   6.553   7.743   3.544
27221WAT      O81904   8.215   0.368   4.798
27221WAT     H181905   8.244   0.461   4.779
27221WAT     H281906   8.206   0.354   4.896
27222WAT      O81907   7.638   6.881   0.839
27222WAT     H181908   7.567   6.889   0.770
27222WAT     H281909   7.700   6.959   0.832
27223WAT      O81910   8.576   8.625   2.938
27223WAT     H181911   8.537   8.559   3.003
27223WAT     H281912   8.591   8.712   2.984
27224WAT      O81913   3.854   9.370   4.139
27224WAT     H181914   3.921   9.444   4.135
27224WAT     H281915   3.768   9.401   4.099
27225WAT      O81916   9.455   0.358   8.298
27225WAT     H181917   9.464   0.455   8.320
27225WAT     H281918   9.535   0.308   8.333
27226WAT      O81919   4.793   5.731   0.249
27226WAT     H181920   4.701   5.721   0.212
27226WAT     H281921   4.804   5.670   0.328
27227WAT      O81922   2.940   9.109   0.167
27227WAT     H181923   2.970   9.047   0.239
27227WAT     H281924   2.862   9.067   0.118
27228WAT      O81925   3.438   7.066   9.620
27228WAT     H181926   3.537   7.056   9.608
27228WAT     H281927   3.391   7.036   9.536
27229WAT      O81928   6.008   6.212   3.723
27229WAT     H181929   6.016   6.132   3.783
27229WAT     H281930   5.988   6.293   3.777
27230WAT      O81931   6.435   5.749   2.788
27230WAT     H181932   6.415   5.651   2.784
27230WAT     H281933   6.399   5.786   2.874
27231WAT      O81934   8.955   7.250   2.019
27231WAT     H181935   8.942   7.270   1.922
27231WAT     H281936   9.006   7.324   2.062
27232WAT      O81937   0.135   4.471   7.186
27232WAT     H181938   0.043   4.431   7.181
27232WAT     H281939   0.202   4.405   7.152
27233WAT      O81940   7.722   0.697   1.405
27233WAT     H181941   7.697   0.781   1.357
27233WAT     H281942   7.767   0.720   1.491
27234WAT      O81943   3.890   8.499   0.975
27234WAT     H181944   3.887   8.591   0.936
27234WAT     H281945   3.984   8.476   0.999
27235WAT      O81946   6.952   6.477   4.610
27235WAT     H181947   6.950   6.531   4.693
27235WAT     H281948   6.860   6.472   4.571
27236WAT      O81949   3.236   0.968   8.228
27236WAT     H181950   3.177   0.897   8.192
27236WAT     H281951   3.249   1.039   8.158
27237WAT      O81952   2.179   4.361   0.838
27237WAT     H181953   2.231   4.438   0.803
27237WAT     H281954   2.098   4.347   0.781
27238WAT      O81955   3.331   7.869   2.220
27238WAT     H181956   3.316   7.936   2.292
27238WAT     H281957   3.398   7.904   2.155
27239WAT      O81958   7.722   8.406   9.165
27239WAT     H181959   7.666   8.479   9.127
27239WAT     H281960   7.767   8.438   9.248
27240WAT      O81961   7.788   9.704   1.083
27240WAT     H181962   7.710   9.649   1.054
27240WAT     H281963   7.873   9.659   1.055
27241WAT      O81964   5.949   6.096   0.436
27241WAT     H181965   5.861   6.049   0.426
27241WAT     H281966   5.943   6.162   0.510
27242WAT      O81967   4.369   8.095   1.750
27242WAT     H181968   4.370   8.033   1.672
27242WAT     H281969   4.453   8.149   1.750
27243WAT      O81970   6.084   8.640   5.997
27243WAT     H181971   6.051   8.699   5.923
27243WAT     H281972   6.178   8.667   6.021
27244WAT      O81973   9.115   3.127   8.211
27244WAT     H181974   9.183   3.092   8.146
27244WAT     H281975   9.135   3.222   8.233
27245WAT      O81976   9.045   6.675   4.238
27245WAT     H181977   8.969   6.637   4.185
27245WAT     H281978   9.124   6.614   4.232
27246WAT      O81979   6.843   9.020   6.002
27246WAT     H181980   6.761   9.022   6.059
27246WAT     H281981   6.821   8.986   5.911
27247WAT      O81982   2.410   5.305   1.417
27247WAT     H181983   2.502   5.340   1.435
27247WAT     H281984   2.416   5.220   1.365
27248WAT      O81985   5.143   2.233   7.666
27248WAT     H181986   5.146   2.327   7.698
27248WAT     H281987   5.149   2.231   7.566
27249WAT      O81988   9.422   3.631   1.866
27249WAT     H181989   9.348   3.564   1.860
27249WAT     H281990   9.383   3.723   1.877
27250WAT      O81991   5.529   2.111   6.790
27250WAT     H181992   5.510   2.205   6.819
27250WAT     H281993   5.627   2.094   6.797
27251WAT      O81994   8.203   5.876   8.955
27251WAT     H181995   8.242   5.929   9.031
27251WAT     H281996   8.151   5.937   8.895
27252WAT      O81997   6.079   2.397   0.485
27252WAT     H181998   6.158   2.393   0.547
27252WAT     H281999   6.031   2.483   0.498
27253WAT      O82000   0.528   0.036   0.674
27253WAT     H182001   0.433   0.055   0.696
27253WAT     H282002   0.587   0.064   0.750
27254WAT      O82003   1.314   3.713   7.431
27254WAT     H182004   1.410   3.703   7.404
27254WAT     H282005   1.270   3.780   7.372
27255WAT      O82006   1.770   8.933   6.916
27255WAT     H182007   1.734   8.877   6.990
27255WAT     H282008   1.809   8.874   6.846
27256WAT      O82009   7.694   1.104   3.754
27256WAT     H182010   7.651   1.015   3.736
27256WAT     H282011   7.628   1.177   3.739
27257WAT      O82012   8.757   1.550   5.156
27257WAT     H182013   8.853   1.574   5.173
27257WAT     H282014   8.747   1.450   5.159
27258WAT      O82015   0.371   0.567   8.799
27258WAT     H182016   0.369   0.467   8.802
27258WAT     H282017   0.311   0.599   8.726
27259WAT      O82018   8.075   4.704   1.301
27259WAT     H182019   8.137   4.754   1.361
27259WAT     H282020   8.007   4.766   1.263
27260WAT      O82021   1.243   9.096   6.741
27260WAT     H182022   1.223   9.053   6.652
27260WAT     H282023   1.302   9.176   6.726
27261WAT      O82024   9.274   1.085   9.045
27261WAT     H182025   9.245   1.160   9.105
27261WAT     H282026   9.344   1.118   8.982
27262WAT      O82027   9.196   7.665   7.955
27262WAT     H182028   9.189   7.565   7.964
27262WAT     H282029   9.106   7.706   7.965
27263WAT      O82030   6.282   0.452   1.127
27263WAT     H182031   6.347   0.528   1.122
27263WAT     H282032   6.229   0.447   1.043
27264WAT      O82033   6.374   3.082   1.528
27264WAT     H182034   6.393   3.150   1.598
27264WAT     H282035   6.368   3.128   1.439
27265WAT      O82036   4.098   1.285   4.570
27265WAT     H182037   4.001   1.273   4.586
27265WAT     H282038   4.151   1.242   4.643
27266WAT      O82039   9.708   5.423   6.968
27266WAT     H182040   9.772   5.411   7.044
27266WAT     H282041   9.731   5.359   6.895
27267WAT      O82042   9.136   1.259   5.728
27267WAT     H182043   9.134   1.245   5.629
27267WAT     H282044   9.070   1.198   5.772
27268WAT      O82045   1.938   4.942   0.518
27268WAT     H182046   1.929   4.900   0.608
27268WAT     H282047   1.848   4.948   0.475
27269WAT      O82048   9.634   2.450   0.514
27269WAT     H182049   9.722   2.405   0.527
27269WAT     H282050   9.648   2.542   0.478
27270WAT      O82051   1.802   6.761   1.128
27270WAT     H182052   1.769   6.773   1.035
27270WAT     H282053   1.782   6.668   1.159
27271WAT      O82054   1.307   9.012   8.164
27271WAT     H182055   1.339   9.036   8.072
27271WAT     H282056   1.246   8.933   8.157
27272WAT      O82057   3.937   2.548   6.978
27272WAT     H182058   3.957   2.646   6.985
27272WAT     H282059   3.981   2.510   6.897
27273WAT      O82060   0.238   7.520   8.783
27273WAT     H182061   0.161   7.580   8.759
27273WAT     H282062   0.258   7.529   8.881
27274WAT      O82063   1.797   1.003   0.312
27274WAT     H182064   1.698   1.009   0.315
27274WAT     H282065   1.835   1.023   0.403
27275WAT      O82066   3.989   9.200   5.426
27275WAT     H182067   3.953   9.261   5.497
27275WAT     H282068   4.081   9.172   5.450
27276WAT      O82069   1.017   2.982   2.382
27276WAT     H182070   1.024   2.940   2.473
27276WAT     H282071   1.075   3.063   2.378
27277WAT      O82072   6.172   5.247   2.270
27277WAT     H182073   6.207   5.304   2.344
27277WAT     H282074   6.074   5.263   2.259
27278WAT      O82075   3.542   0.378   6.614
27278WAT     H182076   3.489   0.410   6.536
27278WAT     H282077   3.509   0.420   6.698
27279WAT      O82078   3.097   6.127   3.121
27279WAT     H182079   3.054   6.217   3.129
27279WAT     H282080   3.100   6.099   3.025
27280WAT      O82081   5.988   6.973   8.595
27280WAT     H182082   5.908   7.031   8.602
27280WAT     H282083   6.065   7.026   8.558
27281WAT      O82084   5.392   2.316   6.001
27281WAT     H182085   5.377   2.325   6.100
27281WAT     H282086   5.482   2.353   5.977
27282WAT      O82087   5.416   0.113   3.309
27282WAT     H182088   5.332   0.162   3.284
27282WAT     H282089   5.437   0.046   3.239
27283WAT      O82090   1.643   4.784   1.490
27283WAT     H182091   1.647   4.808   1.393
27283WAT     H282092   1.699   4.704   1.507
27284WAT      O82093   8.940   3.548   8.385
27284WAT     H182094   8.849   3.527   8.421
27284WAT     H282095   8.993   3.463   8.375
27285WAT      O82096   3.329   6.834   2.270
27285WAT     H182097   3.418   6.849   2.226
27285WAT     H282098   3.330   6.874   2.362
27286WAT      O82099   4.155   4.023   6.551
27286WAT     H182100   4.155   4.096   6.483
27286WAT     H282101   4.215   3.948   6.519
27287WAT      O82102   3.774   6.744   7.895
27287WAT     H182103   3.755   6.773   7.801
27287WAT     H282104   3.688   6.722   7.941
27288WAT      O82105   2.874   6.698   4.829
27288WAT     H182106   2.953   6.637   4.822
27288WAT     H282107   2.905   6.792   4.840
27289WAT      O82108   3.934   6.099   1.901
27289WAT     H182109   3.984   6.181   1.930
27289WAT     H282110   3.980   6.018   1.936
27290WAT      O82111   1.269   5.032   0.909
27290WAT     H182112   1.274   5.033   1.009
27290WAT     H282113   1.253   5.124   0.874
27291WAT      O82114   1.809   7.792   0.225
27291WAT     H182115   1.784   7.716   0.165
27291WAT     H282116   1.856   7.862   0.172
27292WAT      O82117   1.883   6.092   8.736
27292WAT     H182118   1.838   6.076   8.649
27292WAT     H282119   1.884   6.190   8.755
27293WAT      O82120   2.810   5.039   1.565
27293WAT     H182121   2.721   5.071   1.596
27293WAT     H282122   2.836   4.957   1.617
27294WAT      O82123   3.270   7.909   4.160
27294WAT     H182124   3.263   8.002   4.197
27294WAT     H282125   3.364   7.892   4.130
27295WAT      O82126   2.732   7.357   4.411
27295WAT     H182127   2.776   7.269   4.431
27295WAT     H282128   2.633   7.345   4.409
27296WAT      O82129   0.342   1.115   9.620
27296WAT     H182130   0.358   1.053   9.544
27296WAT     H282131   0.378   1.206   9.598
27297WAT      O82132   6.082   2.524   1.733
27297WAT     H182133   6.136   2.507   1.815
27297WAT     H282134   6.124   2.596   1.679
27298WAT      O82135   3.636   7.341   1.342
27298WAT     H182136   3.630   7.267   1.410
27298WAT     H282137   3.591   7.312   1.258
27299WAT      O82138   5.364   3.327   2.432
27299WAT     H182139   5.458   3.357   2.446
27299WAT     H282140   5.355   3.231   2.459
27300WAT      O82141   6.407   1.784   7.254
27300WAT     H182142   6.429   1.696   7.295
27300WAT     H282143   6.390   1.851   7.327
27301WAT      O82144   5.431   4.008   4.618
27301WAT     H182145   5.496   4.067   4.666
27301WAT     H282146   5.437   4.025   4.520
27302WAT      O82147   3.422   3.517   7.730
27302WAT     H182148   3.485   3.575   7.784
27302WAT     H282149   3.392   3.567   7.649
27303WAT      O82150   9.561   4.915   7.635
27303WAT     H182151   9.467   4.881   7.628
27303WAT     H282152   9.599   4.886   7.723
27304WAT      O82153   0.952   3.388   0.510
27304WAT     H182154   1.022   3.409   0.580
27304WAT     H282155   0.871   3.350   0.555
27305WAT      O82156   8.317   0.533   6.603
27305WAT     H182157   8.312   0.477   6.686
27305WAT     H282158   8.411   0.563   6.588
27306WAT      O82159   5.977   6.612   6.100
27306WAT     H182160   5.948   6.543   6.166
27306WAT     H282161   5.903   6.631   6.037
27307WAT      O82162   9.621   7.835   1.875
27307WAT     H182163   9.540   7.824   1.935
27307WAT     H282164   9.702   7.806   1.925
27308WAT      O82165   6.962   9.274   0.562
27308WAT     H182166   6.960   9.174   0.563
27308WAT     H282167   6.935   9.309   0.651
27309WAT      O82168   5.205   3.010   6.237
27309WAT     H182169   5.207   3.070   6.157
27309WAT     H282170   5.213   3.065   6.320
27310WAT      O82171   9.335   4.757   6.645
27310WAT     H182172   9.314   4.720   6.736
27310WAT     H282173   9.432   4.779   6.639
27311WAT      O82174   9.071   3.568   1.326
27311WAT     H182175   9.105   3.600   1.415
27311WAT     H282176   9.148   3.546   1.267
27312WAT      O82177   5.409   9.221   7.316
27312WAT     H182178   5.455   9.293   7.264
27312WAT     H282179   5.325   9.257   7.355
27313WAT      O82180   1.471   1.421   1.241
27313WAT     H182181   1.396   1.384   1.295
27313WAT     H282182   1.525   1.345   1.203
27314WAT      O82183   3.858   7.849   6.306
27314WAT     H182184   3.846   7.903   6.223
27314WAT     H282185   3.770   7.838   6.352
27315WAT      O82186   6.508   9.643   6.773
27315WAT     H182187   6.497   9.598   6.685
27315WAT     H282188   6.482   9.739   6.765
27316WAT      O82189   0.380   1.702   3.695
27316WAT     H182190   0.405   1.612   3.659
27316WAT     H282191   0.400   1.705   3.793
27317WAT      O82192   2.968   2.535   1.382
27317WAT     H182193   3.027   2.534   1.301
27317WAT     H282194   3.017   2.579   1.457
27318WAT      O82195   3.613   4.909   9.710
27318WAT     H182196   3.708   4.941   9.717
27318WAT     H282197   3.613   4.812   9.684
27319WAT      O82198   0.018   7.051   2.398
27319WAT     H182199   0.093   7.055   2.464
27319WAT     H282200   0.047   6.999   2.317
27320WAT      O82201   9.508   0.331   2.423
27320WAT     H182202   9.551   0.247   2.388
27320WAT     H282203   9.566   0.370   2.495
27321WAT      O82204   8.193   9.356   7.798
27321WAT     H182205   8.115   9.398   7.843
27321WAT     H282206   8.270   9.351   7.862
27322WAT      O82207   6.697   3.568   8.356
27322WAT     H182208   6.757   3.497   8.320
27322WAT     H282209   6.633   3.596   8.284
27323WAT      O82210   9.758   7.260   2.223
27323WAT     H182211   9.810   7.177   2.205
27323WAT     H282212   9.794   7.305   2.305
27324WAT      O82213   2.720   2.384   8.522
27324WAT     H182214   2.791   2.409   8.588
27324WAT     H282215   2.657   2.319   8.565
27325WAT      O82216   3.334   9.699   0.940
27325WAT     H182217   3.258   9.751   0.977
27325WAT     H282218   3.319   9.682   0.842
27326WAT      O82219   8.477   6.402   8.616
27326WAT     H182220   8.381   6.428   8.604
27326WAT     H282221   8.528   6.423   8.533
27327WAT      O82222   2.750   6.248   9.081
27327WAT     H182223   2.834   6.280   9.037
27327WAT     H282224   2.748   6.278   9.176
27328WAT      O82225   5.446   7.034   3.912
27328WAT     H182226   5.431   7.046   3.814
27328WAT     H282227   5.478   7.121   3.951
27329WAT      O82228   0.025   7.357   9.006
27329WAT     H182229  -0.020   7.298   8.938
27329WAT     H282230  -0.023   7.445   9.011
27330WAT      O82231   8.810   0.876   5.699
27330WAT     H182232   8.800   0.971   5.728
27330WAT     H282233   8.755   0.861   5.617
27331WAT      O82234   4.457   7.513   6.907
27331WAT     H182235   4.446   7.604   6.946
27331WAT     H282236   4.527   7.515   6.836
27332WAT      O82237   4.541   9.267   6.002
27332WAT     H182238   4.567   9.361   5.978
27332WAT     H282239   4.622   9.209   6.002
27333WAT      O82240   2.843   4.295   5.825
27333WAT     H182241   2.934   4.266   5.796
27333WAT     H282242   2.810   4.368   5.765
27334WAT      O82243   5.532   9.254   6.968
27334WAT     H182244   5.460   9.315   6.933
27334WAT     H282245   5.551   9.277   7.063
27335WAT      O82246   7.700   4.965   3.543
27335WAT     H182247   7.781   4.961   3.601
27335WAT     H282248   7.661   5.057   3.547
27336WAT      O82249   8.981   7.631   3.973
27336WAT     H182250   8.884   7.610   3.984
27336WAT     H282251   9.036   7.559   4.014
27337WAT      O82252   2.026   9.371   9.348
27337WAT     H182253   1.977   9.284   9.354
27337WAT     H282254   2.122   9.353   9.325
27338WAT      O82255   5.014   9.703   9.782
27338WAT     H182256   5.076   9.681   9.857
27338WAT     H282257   4.946   9.768   9.813
27339WAT      O82258   4.923   8.265   5.511
27339WAT     H182259   4.977   8.182   5.523
27339WAT     H282260   4.968   8.325   5.445
27340WAT      O82261   1.235   8.695   9.124
27340WAT     H182262   1.140   8.686   9.095
27340WAT     H282263   1.279   8.605   9.124
27341WAT      O82264   8.567   6.828   4.444
27341WAT     H182265   8.502   6.882   4.392
27341WAT     H282266   8.528   6.738   4.464
27342WAT      O82267   0.578   6.138   8.453
27342WAT     H182268   0.588   6.197   8.373
27342WAT     H282269   0.559   6.194   8.533
27343WAT      O82270   0.023   8.396   0.016
27343WAT     H182271   0.120   8.376   0.024
27343WAT     H282272   0.009   8.495   0.025
27344WAT      O82273   1.522   5.778   1.256
27344WAT     H182274   1.619   5.787   1.236
27344WAT     H282275   1.496   5.845   1.327
27345WAT      O82276   0.989   5.924   2.630
27345WAT     H182277   0.981   5.983   2.711
27345WAT     H282278   0.913   5.944   2.568
27346WAT      O82279   5.291   0.329   2.742
27346WAT     H182280   5.249   0.396   2.682
27346WAT     H282281   5.391   0.332   2.731
27347WAT      O82282   0.057   9.500   0.747
27347WAT     H182283  -0.035   9.463   0.760
27347WAT     H282284   0.122   9.425   0.739
27348WAT      O82285   4.790   2.408   5.793
27348WAT     H182286   4.833   2.360   5.717
27348WAT     H282287   4.697   2.435   5.768
27349WAT      O82288   1.812   8.822   2.627
27349WAT     H182289   1.827   8.727   2.600
27349WAT     H282290   1.896   8.875   2.612
27350WAT      O82291   1.532   7.179   5.882
27350WAT     H182292   1.457   7.161   5.818
27350WAT     H282293   1.616   7.199   5.831
27351WAT      O82294   9.763   8.316   8.825
27351WAT     H182295   9.703   8.320   8.746
27351WAT     H282296   9.844   8.262   8.803
27352WAT      O82297   2.207   4.195   5.544
27352WAT     H182298   2.213   4.185   5.445
27352WAT     H282299   2.112   4.210   5.571
27353WAT      O82300   6.048   6.160   9.276
27353WAT     H182301   5.996   6.092   9.226
27353WAT     H282302   6.116   6.115   9.334
27354WAT      O82303   2.195   0.277   0.765
27354WAT     H182304   2.264   0.222   0.812
27354WAT     H282305   2.104   0.243   0.788
27355WAT      O82306   9.147   7.388   7.728
27355WAT     H182307   9.181   7.413   7.819
27355WAT     H282308   9.072   7.449   7.703
27356WAT      O82309   9.720   6.366   2.516
27356WAT     H182310   9.718   6.402   2.423
27356WAT     H282311   9.665   6.425   2.576
27357WAT      O82312   1.674   0.699   4.083
27357WAT     H182313   1.628   0.624   4.132
27357WAT     H282314   1.676   0.780   4.142
27358WAT      O82315   5.166   3.036   4.857
27358WAT     H182316   5.102   3.095   4.906
27358WAT     H282317   5.125   3.009   4.769
27359WAT      O82318   4.676   0.438   2.644
27359WAT     H182319   4.625   0.510   2.692
27359WAT     H282320   4.774   0.459   2.647
27360WAT      O82321   7.664   0.632   7.200
27360WAT     H182322   7.602   0.707   7.176
27360WAT     H282323   7.617   0.569   7.261
27361WAT      O82324   5.457   7.623   7.517
27361WAT     H182325   5.541   7.569   7.530
27361WAT     H282326   5.468   7.712   7.560
27362WAT      O82327   0.931   7.409   4.536
27362WAT     H182328   0.931   7.495   4.586
27362WAT     H282329   0.888   7.421   4.447
27363WAT      O82330   0.828   5.176   2.312
27363WAT     H182331   0.884   5.095   2.294
27363WAT     H282332   0.804   5.179   2.409
27364WAT      O82333   0.127   9.104   8.477
27364WAT     H182334   0.117   9.185   8.535
27364WAT     H282335   0.066   9.112   8.398
27365WAT      O82336   3.714   8.757   5.128
27365WAT     H182337   3.727   8.665   5.091
27365WAT     H282338   3.617   8.776   5.137
27366WAT      O82339   4.430   9.372   6.889
27366WAT     H182340   4.441   9.329   6.799
27366WAT     H282341   4.510   9.427   6.909
27367WAT      O82342   2.785   1.994   0.726
27367WAT     H182343   2.784   2.031   0.633
27367WAT     H282344   2.829   2.058   0.788
27368WAT      O82345   1.437   3.667   1.501
27368WAT     H182346   1.519   3.627   1.461
27368WAT     H282347   1.378   3.595   1.536
27369WAT      O82348   6.724   6.849   0.944
27369WAT     H182349   6.745   6.795   0.863
27369WAT     H282350   6.808   6.886   0.983
27370WAT      O82351   8.699   4.853   9.603
27370WAT     H182352   8.684   4.756   9.583
27370WAT     H282353   8.644   4.880   9.682
27371WAT      O82354   3.741   7.812   4.244
27371WAT     H182355   3.735   7.845   4.338
27371WAT     H282356   3.819   7.750   4.235
27372WAT      O82357   4.402   2.118   3.625
27372WAT     H182358   4.374   2.035   3.577
27372WAT     H282359   4.493   2.146   3.593
27373WAT      O82360   4.917   4.310   7.522
27373WAT     H182361   4.938   4.341   7.614
27373WAT     H282362   4.823   4.274   7.520
27374WAT      O82363   3.826   7.248   2.422
27374WAT     H182364   3.916   7.291   2.415
27374WAT     H282365   3.762   7.296   2.361
27375WAT      O82366   5.008   7.520   4.559
27375WAT     H182367   4.965   7.513   4.649
27375WAT     H282368   4.940   7.499   4.488
27376WAT      O82369   8.440   1.178   6.180
27376WAT     H182370   8.381   1.105   6.145
27376WAT     H282371   8.400   1.216   6.263
27377WAT      O82372   5.874   4.053   3.888
27377WAT     H182373   5.940   4.018   3.955
27377WAT     H282374   5.876   3.994   3.806
27378WAT      O82375   1.736   7.524   4.229
27378WAT     H182376   1.807   7.456   4.211
27378WAT     H282377   1.728   7.585   4.150
27379WAT      O82378   5.136   4.676   8.931
27379WAT     H182379   5.143   4.709   9.025
27379WAT     H282380   5.191   4.593   8.920
27380WAT      O82381   3.502   8.946   8.634
27380WAT     H182382   3.415   8.986   8.662
27380WAT     H282383   3.571   9.019   8.624
27381WAT      O82384   6.994   3.964   8.328
27381WAT     H182385   7.081   3.914   8.323
27381WAT     H282386   6.924   3.905   8.368
27382WAT      O82387   4.517   4.476   1.937
27382WAT     H182388   4.437   4.514   1.892
27382WAT     H282389   4.490   4.437   2.026
27383WAT      O82390   1.078   3.947   3.072
27383WAT     H182391   1.086   3.966   2.975
27383WAT     H282392   0.997   3.890   3.089
27384WAT      O82393   2.462   8.373   3.186
27384WAT     H182394   2.409   8.370   3.271
27384WAT     H282395   2.543   8.315   3.195
27385WAT      O82396   4.486   7.268   7.055
27385WAT     H182397   4.421   7.244   7.127
27385WAT     H282398   4.461   7.356   7.016
27386WAT      O82399   6.464   3.824   9.177
27386WAT     H182400   6.390   3.887   9.154
27386WAT     H282401   6.425   3.738   9.210
27387WAT      O82402   7.001   3.768   2.375
27387WAT     H182403   7.040   3.703   2.311
27387WAT     H282404   6.936   3.722   2.435
27388WAT      O82405   2.192   8.287   0.657
27388WAT     H182406   2.123   8.215   0.665
27388WAT     H282407   2.190   8.343   0.740
27389WAT      O82408   5.774   2.616   1.324
27389WAT     H182409   5.764   2.715   1.331
27389WAT     H282410   5.718   2.572   1.395
27390WAT      O82411   4.699   3.873   1.499
27390WAT     H182412   4.733   3.966   1.514
27390WAT     H282413   4.771   3.819   1.454
27391WAT      O82414   5.868   1.828   8.630
27391WAT     H182415   5.939   1.783   8.576
27391WAT     H282416   5.861   1.784   8.719
27392WAT      O82417   3.462   9.507   1.086
27392WAT     H182418   3.405   9.581   1.051
27392WAT     H282419   3.510   9.463   1.010
27393WAT      O82420   2.014   7.619   2.685
27393WAT     H182421   1.960   7.550   2.636
27393WAT     H282422   2.080   7.660   2.622
27394WAT      O82423   9.843   1.244   9.764
27394WAT     H182424   9.910   1.309   9.728
27394WAT     H282425   9.754   1.290   9.773
27395WAT      O82426   3.099   2.106   2.053
27395WAT     H182427   3.131   2.167   2.126
27395WAT     H282428   3.177   2.056   2.016
27396WAT      O82429   5.004   8.865   7.564
27396WAT     H182430   5.032   8.939   7.503
27396WAT     H282431   4.905   8.869   7.579
27397WAT      O82432   7.172   9.000   3.585
27397WAT     H182433   7.158   9.099   3.583
27397WAT     H282434   7.163   8.966   3.678
27398WAT      O82435   1.339   0.433   4.653
27398WAT     H182436   1.435   0.455   4.672
27398WAT     H282437   1.280   0.499   4.698
27399WAT      O82438   6.818   1.656   7.879
27399WAT     H182439   6.758   1.655   7.960
27399WAT     H282440   6.768   1.620   7.801
27400WAT      O82441   6.371   6.916   9.457
27400WAT     H182442   6.300   6.905   9.527
27400WAT     H282443   6.375   6.835   9.400
27401WAT      O82444   0.203   9.150   4.951
27401WAT     H182445   0.300   9.134   4.934
27401WAT     H282446   0.155   9.155   4.863
27402WAT      O82447   7.366   2.307   0.155
27402WAT     H182448   7.336   2.245   0.083
27402WAT     H282449   7.403   2.254   0.231
27403WAT      O82450   1.770   4.882   2.814
27403WAT     H182451   1.714   4.799   2.816
27403WAT     H282452   1.712   4.961   2.793
27404WAT      O82453   3.524   2.740   7.386
27404WAT     H182454   3.578   2.702   7.311
27404WAT     H282455   3.583   2.754   7.466
27405WAT      O82456   3.404   1.644   9.022
27405WAT     H182457   3.435   1.635   9.117
27405WAT     H282458   3.345   1.567   8.999
27406WAT      O82459   2.634   1.743   5.796
27406WAT     H182460   2.675   1.818   5.743
27406WAT     H282461   2.664   1.655   5.759
27407WAT      O82462   8.522   0.169   4.537
27407WAT     H182463   8.490   0.087   4.489
27407WAT     H282464   8.503   0.160   4.635
27408WAT      O82465   8.079   1.036   5.156
27408WAT     H182466   8.142   1.108   5.183
27408WAT     H282467   8.056   1.046   5.059
27409WAT      O82468   1.222   2.336   1.302
27409WAT     H182469   1.148   2.325   1.236
27409WAT     H282470   1.259   2.429   1.296
27410WAT      O82471   0.291   8.784   8.760
27410WAT     H182472   0.307   8.866   8.815
27410WAT     H282473   0.231   8.807   8.683
27411WAT      O82474   9.767   7.989   4.771
27411WAT     H182475   9.781   7.963   4.676
27411WAT     H282476   9.852   8.027   4.808
27412WAT      O82477   2.963   6.733   5.840
27412WAT     H182478   2.965   6.767   5.935
27412WAT     H282479   2.987   6.636   5.839
27413WAT      O82480   3.503   8.341   2.678
27413WAT     H182481   3.492   8.246   2.650
27413WAT     H282482   3.600   8.359   2.695
27414WAT      O82483   3.384   8.291   8.934
27414WAT     H182484   3.472   8.244   8.937
27414WAT     H282485   3.373   8.337   8.846
27415WAT      O82486   8.925   5.207   6.690
27415WAT     H182487   8.912   5.286   6.751
27415WAT     H282488   8.949   5.239   6.599
27416WAT      O82489   9.257   8.058   9.592
27416WAT     H182490   9.274   7.960   9.591
27416WAT     H282491   9.159   8.075   9.605
27417WAT      O82492   7.956   0.925   4.396
27417WAT     H182493   7.902   0.905   4.314
27417WAT     H282494   7.908   0.992   4.453
27418WAT      O82495   4.875   6.112   7.803
27418WAT     H182496   4.941   6.061   7.748
27418WAT     H282497   4.866   6.070   7.893
27419WAT      O82498   6.398   8.382   3.114
27419WAT     H182499   6.308   8.422   3.131
27419WAT     H282500   6.415   8.380   3.015
27420WAT      O82501   7.415   9.129   1.523
27420WAT     H182502   7.433   9.156   1.618
27420WAT     H282503   7.502   9.110   1.477
27421WAT      O82504   8.889   4.213   4.683
27421WAT     H182505   8.879   4.210   4.583
27421WAT     H282506   8.985   4.209   4.707
27422WAT      O82507   4.019   8.096   3.418
27422WAT     H182508   3.996   7.999   3.422
27422WAT     H282509   3.975   8.143   3.495
27423WAT      O82510   1.415   3.360   2.553
27423WAT     H182511   1.438   3.377   2.649
27423WAT     H282512   1.340   3.293   2.548
27424WAT      O82513   2.360   5.711   5.188
27424WAT     H182514   2.389   5.667   5.274
27424WAT     H282515   2.293   5.782   5.208
27425WAT      O82516   9.133   3.021   7.491
27425WAT     H182517   9.162   3.056   7.580
27425WAT     H282518   9.149   3.091   7.421
27426WAT      O82519   2.454   5.637   8.475
27426WAT     H182520   2.456   5.631   8.375
27426WAT     H282521   2.547   5.642   8.510
27427WAT      O82522   2.124   4.699   6.404
27427WAT     H182523   2.145   4.619   6.348
27427WAT     H282524   2.208   4.749   6.424
27428WAT      O82525   2.468   4.214   5.275
27428WAT     H182526   2.382   4.255   5.245
27428WAT     H282527   2.541   4.239   5.212
27429WAT      O82528   6.006   6.129   1.972
27429WAT     H182529   6.035   6.037   1.946
27429WAT     H282530   5.945   6.123   2.050
27430WAT      O82531   8.190   3.574   9.563
27430WAT     H182532   8.249   3.534   9.492
27430WAT     H282533   8.099   3.531   9.559
27431WAT      O82534   9.869   3.439   1.641
27431WAT     H182535   9.937   3.370   1.617
27431WAT     H282536   9.777   3.399   1.634
27432WAT      O82537   5.747   3.768   0.857
27432WAT     H182538   5.663   3.726   0.822
27432WAT     H282539   5.808   3.697   0.893
27433WAT      O82540   2.311   9.778   7.118
27433WAT     H182541   2.308   9.878   7.126
27433WAT     H282542   2.218   9.741   7.122
27434WAT      O82543   5.886   7.136   1.582
27434WAT     H182544   5.861   7.083   1.501
27434WAT     H282545   5.984   7.130   1.597
27435WAT      O82546   3.084   3.802   0.191
27435WAT     H182547   3.183   3.811   0.192
27435WAT     H282548   3.057   3.720   0.141
27436WAT      O82549   9.761   3.317   5.776
27436WAT     H182550   9.856   3.289   5.791
27436WAT     H282551   9.735   3.296   5.682
27437WAT      O82552   4.870   1.849   9.820
27437WAT     H182553   4.899   1.892   9.906
27437WAT     H282554   4.934   1.775   9.797
27438WAT      O82555   8.794   2.779   9.825
27438WAT     H182556   8.801   2.875   9.851
27438WAT     H282557   8.725   2.770   9.752
27439WAT      O82558   4.181   0.601   5.318
27439WAT     H182559   4.194   0.695   5.351
27439WAT     H282560   4.265   0.569   5.274
27440WAT      O82561   7.010   4.916   3.348
27440WAT     H182562   6.973   4.865   3.425
27440WAT     H282563   6.999   5.014   3.366
27441WAT      O82564   4.070   2.177   1.613
27441WAT     H182565   4.063   2.267   1.570
27441WAT     H282566   4.079   2.107   1.543
27442WAT      O82567   5.246   4.025   1.110
27442WAT     H182568   5.331   3.972   1.105
27442WAT     H282569   5.184   3.994   1.038
27443WAT      O82570   4.477   0.095   6.818
27443WAT     H182571   4.549   0.080   6.886
27443WAT     H282572   4.469   0.014   6.760
27444WAT      O82573   7.283   1.909   8.327
27444WAT     H182574   7.234   1.895   8.413
27444WAT     H282575   7.287   2.007   8.306
27445WAT      O82576   1.333   3.818   9.618
27445WAT     H182577   1.253   3.798   9.675
27445WAT     H282578   1.305   3.831   9.523
27446WAT      O82579   4.790   2.756   3.101
27446WAT     H182580   4.695   2.787   3.104
27446WAT     H282581   4.824   2.742   3.194
27447WAT      O82582   5.024   3.789   4.455
27447WAT     H182583   5.108   3.734   4.455
27447WAT     H282584   5.025   3.850   4.535
27448WAT      O82585   3.946   9.158   1.281
27448WAT     H182586   3.907   9.148   1.190
27448WAT     H282587   3.937   9.254   1.311
27449WAT      O82588   5.201   4.920   7.360
27449WAT     H182589   5.102   4.911   7.351
27449WAT     H282590   5.240   4.950   7.273
27450WAT      O82591   0.766   5.020   3.908
27450WAT     H182592   0.683   5.058   3.867
27450WAT     H282593   0.835   5.091   3.916
27451WAT      O82594   4.725   5.698   7.457
27451WAT     H182595   4.774   5.627   7.408
27451WAT     H282596   4.771   5.786   7.443
27452WAT      O82597   8.122   0.548   8.234
27452WAT     H182598   8.174   0.621   8.190
27452WAT     H282599   8.024   0.565   8.221
27453WAT      O82600   5.546   6.815   1.842
27453WAT     H182601   5.618   6.883   1.827
27453WAT     H282602   5.544   6.752   1.765
27454WAT      O82603   8.989   6.628   8.890
27454WAT     H182604   9.067   6.593   8.942
27454WAT     H282605   8.941   6.552   8.847
27455WAT      O82606   8.400   2.482   2.816
27455WAT     H182607   8.435   2.534   2.895
27455WAT     H282608   8.336   2.413   2.848
27456WAT      O82609   5.852   0.614   0.300
27456WAT     H182610   5.832   0.653   0.211
27456WAT     H282611   5.922   0.544   0.291
27457WAT      O82612   2.237   3.977   8.840
27457WAT     H182613   2.162   3.914   8.819
27457WAT     H282614   2.213   4.069   8.807
27458WAT      O82615   8.538   7.743   6.948
27458WAT     H182616   8.516   7.727   7.045
27458WAT     H282617   8.611   7.681   6.920
27459WAT      O82618   3.504   2.432   4.177
27459WAT     H182619   3.406   2.449   4.187
27459WAT     H282620   3.540   2.487   4.102
27460WAT      O82621   3.745   7.962   2.285
27460WAT     H182622   3.746   8.028   2.359
27460WAT     H282623   3.715   7.873   2.319
27461WAT      O82624   5.695   0.957   3.932
27461WAT     H182625   5.640   1.029   3.889
27461WAT     H282626   5.642   0.872   3.935
27462WAT      O82627   0.914   7.005   7.978
27462WAT     H182628   0.889   7.078   7.915
27462WAT     H282629   1.000   7.029   8.025
27463WAT      O82630   4.014   9.322   4.894
27463WAT     H182631   4.012   9.232   4.853
27463WAT     H282632   4.002   9.392   4.824
27464WAT      O82633   4.885   6.390   0.817
27464WAT     H182634   4.970   6.336   0.816
27464WAT     H282635   4.816   6.342   0.871
27465WAT      O82636   5.494   6.695   3.568
27465WAT     H182637   5.546   6.708   3.484
27465WAT     H282638   5.499   6.599   3.595
27466WAT      O82639   3.343   9.054   9.377
27466WAT     H182640   3.246   9.080   9.382
27466WAT     H282641   3.352   8.965   9.333
27467WAT      O82642   3.992   4.093   9.183
27467WAT     H182643   3.923   4.081   9.111
27467WAT     H282644   4.065   4.026   9.172
27468WAT      O82645   3.225   0.615   7.065
27468WAT     H182646   3.275   0.535   7.098
27468WAT     H282647   3.199   0.600   6.969
27469WAT      O82648   0.937   8.453   4.597
27469WAT     H182649   0.865   8.484   4.536
27469WAT     H282650   0.983   8.532   4.637
27470WAT      O82651   0.458   4.957   1.531
27470WAT     H182652   0.426   4.890   1.597
27470WAT     H282653   0.458   4.916   1.439
27471WAT      O82654   5.744   6.996   9.816
27471WAT     H182655   5.651   7.028   9.829
27471WAT     H282656   5.800   7.070   9.779
27472WAT      O82657   8.245   9.492   0.915
27472WAT     H182658   8.293   9.421   0.967
27472WAT     H282659   8.307   9.533   0.849
27473WAT      O82660   9.414   4.992   1.839
27473WAT     H182661   9.374   4.921   1.896
27473WAT     H282662   9.385   4.979   1.744
27474WAT      O82663   4.760   8.956   9.405
27474WAT     H182664   4.835   9.020   9.393
27474WAT     H282665   4.795   8.862   9.404
27475WAT      O82666   8.293   5.658   6.237
27475WAT     H182667   8.211   5.605   6.215
27475WAT     H282668   8.269   5.735   6.294
27476WAT      O82669   7.008   0.256   9.887
27476WAT     H182670   6.998   0.278   9.790
27476WAT     H282671   7.023   0.157   9.897
27477WAT      O82672   8.147   3.278   1.107
27477WAT     H182673   8.094   3.280   1.022
27477WAT     H282674   8.162   3.371   1.139
27478WAT      O82675   4.092   9.054   0.064
27478WAT     H182676   4.171   8.993   0.065
27478WAT     H282677   4.119   9.145   0.094
27479WAT      O82678   1.472   1.948   1.949
27479WAT     H182679   1.465   1.852   1.923
27479WAT     H282680   1.539   1.958   2.023
27480WAT      O82681   7.573   8.811   0.574
27480WAT     H182682   7.476   8.788   0.567
27480WAT     H282683   7.584   8.894   0.628
27481WAT      O82684   5.151   0.085   7.841
27481WAT     H182685   5.166   0.159   7.775
27481WAT     H282686   5.077   0.026   7.808
27482WAT      O82687   1.895   4.389   3.453
27482WAT     H182688   1.831   4.346   3.517
27482WAT     H282689   1.892   4.340   3.366
27483WAT      O82690   2.529   2.020   6.972
27483WAT     H182691   2.573   2.109   6.957
27483WAT     H282692   2.599   1.951   6.988
27484WAT      O82693   7.351   3.333   5.562
27484WAT     H182694   7.302   3.254   5.598
27484WAT     H282695   7.437   3.345   5.612
27485WAT      O82696   3.598   9.289   2.677
27485WAT     H182697   3.651   9.291   2.762
27485WAT     H282698   3.504   9.260   2.697
27486WAT      O82699   6.523   8.208   8.983
27486WAT     H182700   6.502   8.275   8.912
27486WAT     H282701   6.617   8.219   9.013
27487WAT      O82702   3.558   0.641   2.339
27487WAT     H182703   3.480   0.691   2.302
27487WAT     H282704   3.546   0.543   2.322
27488WAT      O82705   8.580   7.641   1.160
27488WAT     H182706   8.526   7.717   1.196
27488WAT     H282707   8.660   7.677   1.112
27489WAT      O82708   8.225   8.778   2.322
27489WAT     H182709   8.135   8.750   2.290
27489WAT     H282710   8.216   8.828   2.408
27490WAT      O82711   8.855   7.869   7.060
27490WAT     H182712   8.805   7.812   7.126
27490WAT     H282713   8.820   7.962   7.064
27491WAT      O82714   8.056   4.140   3.243
27491WAT     H182715   8.143   4.188   3.255
27491WAT     H282716   7.981   4.199   3.273
27492WAT      O82717   1.453   7.290   4.499
27492WAT     H182718   1.419   7.381   4.524
27492WAT     H282719   1.473   7.288   4.401
27493WAT      O82720   2.646   5.238   0.847
27493WAT     H182721   2.563   5.194   0.878
27493WAT     H282722   2.631   5.277   0.755
27494WAT      O82723   2.675   0.848   0.898
27494WAT     H182724   2.766   0.808   0.905
27494WAT     H282725   2.639   0.865   0.990
27495WAT      O82726   0.543   7.605   8.974
27495WAT     H182727   0.548   7.699   8.939
27495WAT     H282728   0.450   7.586   9.006
27496WAT      O82729   7.332   9.596   5.182
27496WAT     H182730   7.367   9.536   5.254
27496WAT     H282731   7.249   9.556   5.142
27497WAT      O82732   0.359   0.536   4.683
27497WAT     H182733   0.279   0.562   4.737
27497WAT     H282734   0.441   0.579   4.721
27498WAT      O82735   8.556   4.710   2.497
27498WAT     H182736   8.617   4.736   2.422
27498WAT     H282737   8.463   4.740   2.476
27499WAT      O82738   2.393   6.180   2.666
27499WAT     H182739   2.319   6.117   2.690
27499WAT     H282740   2.436   6.215   2.749
27500WAT      O82741   7.785   3.097   3.267
27500WAT     H182742   7.716   3.040   3.312
27500WAT     H282743   7.833   3.044   3.198
27501WAT      O82744   2.167   5.884   5.259
27501WAT     H182745   2.162   5.964   5.320
27501WAT     H282746   2.112   5.902   5.178
27502WAT      O82747   5.992   2.567   1.165
27502WAT     H182748   5.905   2.584   1.210
27502WAT     H282749   5.976   2.536   1.071
27503WAT      O82750   2.185   1.732   2.723
27503WAT     H182751   2.216   1.817   2.766
27503WAT     H282752   2.223   1.725   2.631
27504WAT      O82753   9.729   4.003   0.864
27504WAT     H182754   9.754   4.091   0.905
27504WAT     H282755   9.632   3.985   0.882
27505WAT      O82756   3.399   9.600   1.561
27505WAT     H182757   3.312   9.604   1.513
27505WAT     H282758   3.474   9.598   1.495
27506WAT      O82759   7.296   5.162   0.657
27506WAT     H182760   7.280   5.123   0.747
27506WAT     H282761   7.391   5.147   0.630
27507WAT      O82762   1.813   3.416   2.475
27507WAT     H182763   1.809   3.513   2.451
27507WAT     H282764   1.746   3.364   2.422
27508WAT      O82765   3.061   2.302   6.248
27508WAT     H182766   2.977   2.315   6.195
27508WAT     H282767   3.057   2.357   6.331
27509WAT      O82768   4.296   4.087   1.853
27509WAT     H182769   4.334   4.031   1.927
27509WAT     H282770   4.258   4.027   1.782
27510WAT      O82771   1.522   4.202   3.410
27510WAT     H182772   1.569   4.147   3.342
27510WAT     H282773   1.438   4.156   3.439
27511WAT      O82774   9.586   8.268   1.291
27511WAT     H182775   9.532   8.238   1.212
27511WAT     H282776   9.556   8.359   1.318
27512WAT      O82777   6.022   5.833   2.140
27512WAT     H182778   6.065   5.745   2.119
27512WAT     H282779   6.052   5.865   2.230
27513WAT      O82780   7.927   7.228   8.716
27513WAT     H182781   7.928   7.148   8.776
27513WAT     H282782   7.904   7.310   8.768
27514WAT      O82783   2.322   4.764   4.225
27514WAT     H182784   2.319   4.788   4.322
27514WAT     H282785   2.396   4.814   4.180
27515WAT      O82786   0.439   8.772   4.769
27515WAT     H182787   0.533   8.752   4.797
27515WAT     H282788   0.382   8.783   4.850
27516WAT      O82789   2.164   4.633   7.119
27516WAT     H182790   2.153   4.546   7.071
27516WAT     H282791   2.103   4.701   7.079
27517WAT      O82792   4.855   2.795   3.352
27517WAT     H182793   4.794   2.808   3.430
27517WAT     H282794   4.944   2.837   3.371
27518WAT      O82795   6.044   9.677   2.297
27518WAT     H182796   5.965   9.696   2.239
27518WAT     H282797   6.016   9.683   2.393
27519WAT      O82798   9.885   4.411   8.248
27519WAT     H182799   9.954   4.420   8.321
27519WAT     H282800   9.796   4.394   8.289
27520WAT      O82801   5.441   7.142   7.168
27520WAT     H182802   5.517   7.206   7.170
27520WAT     H282803   5.384   7.160   7.088
27521WAT      O82804   3.295   4.390   9.053
27521WAT     H182805   3.348   4.447   8.991
27521WAT     H282806   3.240   4.325   9.000
27522WAT      O82807   4.170   8.266   5.068
27522WAT     H182808   4.102   8.201   5.102
27522WAT     H282809   4.211   8.231   4.984
27523WAT      O82810   4.058   5.072   3.010
27523WAT     H182811   3.982   5.105   3.065
27523WAT     H282812   4.126   5.030   3.070
27524WAT      O82813   1.276   4.127   2.557
27524WAT     H182814   1.312   4.075   2.480
27524WAT     H282815   1.263   4.222   2.530
27525WAT      O82816   5.821   8.393   1.026
27525WAT     H182817   5.870   8.307   1.008
27525WAT     H282818   5.876   8.450   1.087
27526WAT      O82819   6.544   1.084   1.484
27526WAT     H182820   6.531   1.072   1.582
27526WAT     H282821   6.582   1.174   1.465
27527WAT      O82822   7.502   4.229   0.542
27527WAT     H182823   7.458   4.279   0.616
27527WAT     H282824   7.435   4.211   0.470
27528WAT      O82825   7.730   9.351   9.444
27528WAT     H182826   7.793   9.376   9.517
27528WAT     H282827   7.735   9.252   9.427
27529WAT      O82828   7.189   2.556   6.313
27529WAT     H182829   7.282   2.557   6.278
27529WAT     H282830   7.130   2.506   6.250
27530WAT      O82831   5.118   8.533   6.605
27530WAT     H182832   5.163   8.452   6.566
27530WAT     H282833   5.187   8.603   6.623
27531WAT      O82834   3.451   2.847   4.084
27531WAT     H182835   3.509   2.784   4.033
27531WAT     H282836   3.356   2.839   4.052
27532WAT      O82837   9.089   0.284   0.293
27532WAT     H182838   9.085   0.255   0.389
27532WAT     H282839   8.999   0.318   0.265
27533WAT      O82840   0.784   5.493   1.075
27533WAT     H182841   0.753   5.423   1.010
27533WAT     H282842   0.858   5.455   1.130
27534WAT      O82843   4.354   3.049   4.455
27534WAT     H182844   4.414   3.102   4.515
27534WAT     H282845   4.260   3.082   4.465
27535WAT      O82846   0.556   5.498   1.696
27535WAT     H182847   0.508   5.413   1.717
27535WAT     H282848   0.565   5.507   1.597
27536WAT      O82849   0.915   3.785   1.475
27536WAT     H182850   0.904   3.773   1.377
27536WAT     H282851   0.989   3.726   1.509
27537WAT      O82852   7.123   4.558   5.103
27537WAT     H182853   7.180   4.637   5.077
27537WAT     H282854   7.109   4.499   5.023
27538WAT      O82855   9.615   0.728   9.661
27538WAT     H182856   9.647   0.782   9.739
27538WAT     H282857   9.515   0.733   9.657
27539WAT      O82858   1.539   8.484   9.842
27539WAT     H182859   1.604   8.420   9.883
27539WAT     H282860   1.504   8.545   9.913
27540WAT      O82861   8.369   7.402   6.852
27540WAT     H182862   8.463   7.433   6.863
27540WAT     H282863   8.357   7.362   6.761
27541WAT      O82864   3.116   2.311   7.266
27541WAT     H182865   3.077   2.236   7.320
27541WAT     H282866   3.173   2.272   7.193
27542WAT      O82867   0.996   7.835   5.369
27542WAT     H182868   1.082   7.843   5.421
27542WAT     H282869   0.931   7.904   5.402
27543WAT      O82870   1.652   6.401   8.957
27543WAT     H182871   1.646   6.306   8.927
27543WAT     H282872   1.673   6.460   8.879
27544WAT      O82873   0.417   8.918   2.527
27544WAT     H182874   0.380   9.000   2.483
27544WAT     H282875   0.497   8.885   2.476
27545WAT      O82876   3.219   0.686   1.998
27545WAT     H182877   3.302   0.687   1.943
27545WAT     H282878   3.203   0.778   2.036
27546WAT      O82879   6.264   3.895   5.300
27546WAT     H182880   6.298   3.872   5.209
27546WAT     H282881   6.175   3.851   5.314
27547WAT      O82882   6.342   8.911   4.018
27547WAT     H182883   6.314   8.819   3.989
27547WAT     H282884   6.435   8.929   3.986
27548WAT      O82885   9.468   6.771   7.691
27548WAT     H182886   9.508   6.803   7.776
27548WAT     H282887   9.369   6.783   7.694
27549WAT      O82888   0.376   8.946   9.377
27549WAT     H182889   0.302   8.899   9.425
27549WAT     H282890   0.434   8.993   9.444
27550WAT      O82891   4.181   4.654   3.762
27550WAT     H182892   4.252   4.724   3.753
27550WAT     H282893   4.160   4.640   3.859
27551WAT      O82894   8.301   8.370   0.551
27551WAT     H182895   8.322   8.373   0.649
27551WAT     H282896   8.302   8.463   0.514
27552WAT      O82897   5.719   8.985   9.578
27552WAT     H182898   5.688   9.066   9.628
27552WAT     H282899   5.809   8.958   9.611
27553WAT      O82900   0.745   4.135   2.490
27553WAT     H182901   0.657   4.165   2.452
27553WAT     H282902   0.756   4.171   2.582
27554WAT      O82903   5.541   2.325   3.795
27554WAT     H182904   5.637   2.296   3.791
27554WAT     H282905   5.526   2.399   3.729
27555WAT      O82906   1.352   0.282   4.420
27555WAT     H182907   1.332   0.350   4.350
27555WAT     H282908   1.328   0.319   4.510
27556WAT      O82909   6.375   1.752   0.753
27556WAT     H182910   6.354   1.662   0.714
27556WAT     H282911   6.460   1.747   0.804
27557WAT      O82912   0.129   7.945   4.100
27557WAT     H182913   0.117   8.041   4.074
27557WAT     H282914   0.158   7.893   4.020
27558WAT      O82915   4.269   7.065   1.527
27558WAT     H182916   4.266   6.988   1.590
27558WAT     H282917   4.236   7.147   1.573
27559WAT      O82918   0.978   6.578   4.629
27559WAT     H182919   0.949   6.504   4.690
27559WAT     H282920   1.073   6.602   4.649
27560WAT      O82921   3.450   1.906   4.538
27560WAT     H182922   3.524   1.973   4.537
27560WAT     H282923   3.382   1.931   4.470
27561WAT      O82924   8.042   3.138   4.925
27561WAT     H182925   8.119   3.078   4.948
27561WAT     H282926   8.000   3.106   4.840
27562WAT      O82927   2.976   4.462   4.442
27562WAT     H182928   2.986   4.368   4.475
27562WAT     H282929   2.879   4.487   4.441
27563WAT      O82930   8.109   9.614   5.218
27563WAT     H182931   8.114   9.672   5.299
27563WAT     H282932   8.147   9.663   5.140
27564WAT      O82933   2.177   6.096   0.451
27564WAT     H182934   2.231   6.038   0.390
27564WAT     H282935   2.115   6.153   0.397
27565WAT      O82936   2.586   2.855   5.840
27565WAT     H182937   2.675   2.848   5.885
27565WAT     H282938   2.566   2.952   5.822
27566WAT      O82939   8.228   4.423   2.827
27566WAT     H182940   8.244   4.373   2.742
27566WAT     H282941   8.129   4.435   2.840
27567WAT      O82942   0.550   2.306   6.234
27567WAT     H182943   0.565   2.342   6.326
27567WAT     H282944   0.541   2.382   6.170
27568WAT      O82945   9.658   5.455   2.134
27568WAT     H182946   9.647   5.502   2.221
27568WAT     H282947   9.752   5.467   2.101
27569WAT      O82948   6.347   2.330   8.379
27569WAT     H182949   6.385   2.359   8.467
27569WAT     H282950   6.421   2.321   8.312
27570WAT      O82951   2.913   1.378   1.203
27570WAT     H182952   2.925   1.279   1.211
27570WAT     H282953   2.816   1.400   1.209
27571WAT      O82954   3.946   4.050   8.176
27571WAT     H182955   3.966   4.039   8.273
27571WAT     H282956   3.853   4.085   8.165
27572WAT      O82957   0.100   4.745   0.552
27572WAT     H182958   0.194   4.774   0.566
27572WAT     H282959   0.098   4.663   0.495
27573WAT      O82960   5.831   2.456   1.661
27573WAT     H182961   5.819   2.361   1.631
27573WAT     H282962   5.928   2.475   1.671
27574WAT      O82963   2.432   3.268   2.202
27574WAT     H182964   2.438   3.260   2.102
27574WAT     H282965   2.448   3.178   2.243
27575WAT      O82966   7.796   0.836   5.550
27575WAT     H182967   7.884   0.880   5.566
27575WAT     H282968   7.805   0.737   5.563
27576WAT      O82969   5.546   5.326   4.777
27576WAT     H182970   5.479   5.278   4.833
27576WAT     H282971   5.608   5.378   4.836
27577WAT      O82972   7.182   2.694   1.239
27577WAT     H182973   7.092   2.702   1.283
27577WAT     H282974   7.198   2.774   1.182
27578WAT      O82975   1.037   1.019   1.078
27578WAT     H182976   1.130   0.984   1.062
27578WAT     H282977   0.970   0.955   1.039
27579WAT      O82978   3.123   7.369   1.362
27579WAT     H182979   3.157   7.275   1.356
27579WAT     H282980   3.044   7.380   1.302
27580WAT      O82981   2.591   3.395   9.198
27580WAT     H182982   2.553   3.479   9.160
27580WAT     H282983   2.683   3.412   9.233
27581WAT      O82984   6.916   1.891   3.858
27581WAT     H182985   6.877   1.938   3.938
27581WAT     H282986   6.949   1.801   3.886
27582WAT      O82987   5.910   7.619   6.747
27582WAT     H182988   5.946   7.655   6.833
27582WAT     H282989   5.811   7.604   6.756
27583WAT      O82990   2.757   3.000   6.386
27583WAT     H182991   2.778   3.068   6.315
27583WAT     H282992   2.684   3.036   6.445
27584WAT      O82993   1.078   3.233   0.324
27584WAT     H182994   1.018   3.284   0.385
27584WAT     H282995   1.037   3.228   0.233
27585WAT      O82996   3.670   1.672   6.850
27585WAT     H182997   3.716   1.590   6.883
27585WAT     H282998   3.675   1.675   6.750
27586WAT      O82999   1.514   5.999   1.727
27586WAT     H183000   1.578   5.930   1.691
27586WAT     H283001   1.519   5.999   1.827
27587WAT      O83002   5.098   6.202   4.675
27587WAT     H183003   5.014   6.221   4.725
27587WAT     H283004   5.075   6.166   4.584
27588WAT      O83005   1.399   6.671   1.423
27588WAT     H183006   1.321   6.617   1.392
27588WAT     H283007   1.483   6.637   1.379
27589WAT      O83008   0.887   2.448   5.503
27589WAT     H183009   0.973   2.497   5.490
27589WAT     H283010   0.814   2.515   5.519
27590WAT      O83011   9.442   8.541   1.321
27590WAT     H183012   9.498   8.566   1.242
27590WAT     H283013   9.355   8.504   1.288
27591WAT      O83014   1.712   6.026   4.773
27591WAT     H183015   1.785   5.959   4.786
27591WAT     H283016   1.623   5.981   4.783
27592WAT      O83017   7.805   1.674   9.594
27592WAT     H183018   7.814   1.773   9.608
27592WAT     H283019   7.709   1.648   9.603
27593WAT      O83020   1.566   4.644   3.221
27593WAT     H183021   1.653   4.605   3.189
27593WAT     H283022   1.578   4.741   3.240
27594WAT      O83023   6.767   3.573   7.982
27594WAT     H183024   6.749   3.475   7.991
27594WAT     H283025   6.697   3.624   8.032
27595WAT      O83026   5.533   0.416   9.046
27595WAT     H183027   5.613   0.398   8.989
27595WAT     H283028   5.562   0.456   9.132
27596WAT      O83029   1.457   0.611   1.561
27596WAT     H183030   1.465   0.710   1.545
27596WAT     H283031   1.486   0.562   1.479
27597WAT      O83032   4.890   9.787   6.071
27597WAT     H183033   4.794   9.802   6.096
27597WAT     H283034   4.924   9.868   6.022
27598WAT      O83035   8.221   6.729   6.150
27598WAT     H183036   8.241   6.653   6.088
27598WAT     H283037   8.228   6.816   6.100
27599WAT      O83038   7.236   9.201   3.129
27599WAT     H183039   7.262   9.243   3.216
27599WAT     H283040   7.256   9.103   3.133
27600WAT      O83041   9.718   1.035   3.732
27600WAT     H183042   9.804   1.049   3.780
27600WAT     H283043   9.692   1.119   3.685
27601WAT      O83044   1.661   7.631   5.110
27601WAT     H183045   1.755   7.627   5.076
27601WAT     H283046   1.600   7.584   5.046
27602WAT      O83047   7.040   6.839   7.767
27602WAT     H183048   7.102   6.897   7.714
27602WAT     H283049   7.075   6.746   7.769
27603WAT      O83050   2.824   8.313   3.513
27603WAT     H183051   2.864   8.312   3.421
27603WAT     H283052   2.746   8.375   3.514
27604WAT      O83053   9.687   5.520   6.611
27604WAT     H183054   9.772   5.547   6.566
27604WAT     H283055   9.675   5.571   6.696
27605WAT      O83056   9.240   6.043   4.399
27605WAT     H183057   9.152   6.065   4.442
27605WAT     H283058   9.275   6.124   4.351
27606WAT      O83059   1.029   8.744   6.800
27606WAT     H183060   1.089   8.697   6.736
27606WAT     H283061   0.991   8.825   6.757
27607WAT      O83062   4.074   5.848   2.003
27607WAT     H183063   4.103   5.781   1.935
27607WAT     H283064   4.019   5.803   2.074
27608WAT      O83065   0.815   6.655   1.055
27608WAT     H183066   0.812   6.558   1.078
27608WAT     H283067   0.721   6.691   1.052
27609WAT      O83068   7.872   6.274   1.135
27609WAT     H183069   7.964   6.235   1.126
27609WAT     H283070   7.846   6.277   1.231
27610WAT      O83071   0.213   4.313   1.106
27610WAT     H183072   0.211   4.223   1.150
27610WAT     H283073   0.156   4.377   1.158
27611WAT      O83074   1.271   9.431   7.336
27611WAT     H183075   1.287   9.410   7.433
27611WAT     H283076   1.357   9.462   7.294
27612WAT      O83077   1.999   0.976   7.339
27612WAT     H183078   1.931   0.905   7.318
27612WAT     H283079   1.982   1.012   7.430
27613WAT      O83080   1.041   0.773   3.342
27613WAT     H183081   1.067   0.799   3.249
27613WAT     H283082   1.074   0.680   3.361
27614WAT      O83083   5.933   7.436   4.515
27614WAT     H183084   5.973   7.346   4.533
27614WAT     H283085   5.993   7.487   4.453
27615WAT      O83086   0.234   5.145   9.385
27615WAT     H183087   0.173   5.212   9.428
27615WAT     H283088   0.253   5.071   9.450
27616WAT      O83089   3.547   1.004   5.639
27616WAT     H183090   3.543   1.051   5.550
27616WAT     H283091   3.642   0.992   5.666
27617WAT      O83092   2.767   3.969   8.614
27617WAT     H183093   2.792   3.909   8.690
27617WAT     H283094   2.792   3.925   8.528
27618WAT      O83095   7.588   2.076   3.889
27618WAT     H183096   7.645   2.151   3.852
27618WAT     H283097   7.502   2.114   3.922
27619WAT      O83098   3.503   6.652   8.397
27619WAT     H183099   3.486   6.555   8.416
27619WAT     H283100   3.460   6.708   8.469
27620WAT      O83101   5.259   7.275   6.625
27620WAT     H183102   5.273   7.370   6.652
27620WAT     H283103   5.317   7.254   6.546
27621WAT      O83104   9.087   6.571   7.506
27621WAT     H183105   9.090   6.483   7.554
27621WAT     H283106   9.074   6.555   7.409
27622WAT      O83107   6.923   4.020   7.615
27622WAT     H183108   6.932   4.027   7.714
27622WAT     H283109   6.877   3.934   7.592
27623WAT      O83110   0.577   2.036   5.856
27623WAT     H183111   0.494   2.088   5.835
27623WAT     H283112   0.638   2.037   5.777
27624WAT      O83113   0.595   5.297   7.469
27624WAT     H183114   0.532   5.231   7.511
27624WAT     H283115   0.593   5.382   7.520
27625WAT      O83116   4.627   2.585   5.100
27625WAT     H183117   4.536   2.594   5.061
27625WAT     H283118   4.693   2.634   5.042
27626WAT      O83119   2.161   2.687   8.271
27626WAT     H183120   2.151   2.631   8.188
27626WAT     H283121   2.213   2.637   8.340
27627WAT      O83122   1.756   9.635   3.739
27627WAT     H183123   1.855   9.631   3.757
27627WAT     H283124   1.706   9.626   3.825
27628WAT      O83125   2.521   4.935   2.267
27628WAT     H183126   2.603   4.988   2.283
27628WAT     H283127   2.533   4.877   2.186
27629WAT      O83128   3.631   0.753   0.179
27629WAT     H183129   3.565   0.750   0.255
27629WAT     H283130   3.722   0.730   0.213
27630WAT      O83131   4.729   1.110   7.204
27630WAT     H183132   4.675   1.193   7.215
27630WAT     H283133   4.763   1.104   7.110
27631WAT      O83134   2.143   1.808   6.398
27631WAT     H183135   2.158   1.716   6.363
27631WAT     H283136   2.230   1.848   6.426
27632WAT      O83137   8.818   6.676   8.490
27632WAT     H183138   8.859   6.767   8.479
27632WAT     H283139   8.885   6.606   8.465
27633WAT      O83140   7.251   1.632   9.625
27633WAT     H183141   7.159   1.607   9.595
27633WAT     H283142   7.277   1.576   9.703
27634WAT      O83143   6.767   1.175   4.796
27634WAT     H183144   6.840   1.107   4.809
27634WAT     H283145   6.804   1.255   4.747
27635WAT      O83146   7.363   2.183   6.471
27635WAT     H183147   7.362   2.085   6.491
27635WAT     H283148   7.457   2.212   6.452
27636WAT      O83149   3.107   7.153   7.681
27636WAT     H183150   3.074   7.174   7.773
27636WAT     H283151   3.193   7.202   7.664
27637WAT      O83152   0.199   0.880   7.792
27637WAT     H183153   0.243   0.864   7.703
27637WAT     H283154   0.123   0.945   7.780
27638WAT      O83155   1.312   2.580   1.256
27638WAT     H183156   1.287   2.603   1.350
27638WAT     H283157   1.344   2.662   1.209
27639WAT      O83158   5.010   9.213   3.617
27639WAT     H183159   4.994   9.270   3.698
27639WAT     H283160   4.957   9.129   3.625
27640WAT      O83161   8.576   8.628   5.079
27640WAT     H183162   8.605   8.553   5.020
27640WAT     H283163   8.526   8.696   5.025
27641WAT      O83164   4.203   9.525   0.856
27641WAT     H183165   4.180   9.537   0.760
27641WAT     H283166   4.199   9.428   0.880
27642WAT      O83167   2.702   0.945   5.276
27642WAT     H183168   2.695   1.013   5.350
27642WAT     H283169   2.738   0.860   5.313
27643WAT      O83170   0.021   7.071   6.710
27643WAT     H183171   0.079   7.086   6.790
27643WAT     H283172   0.071   7.097   6.627
27644WAT      O83173   7.871   8.048   0.599
27644WAT     H183174   7.942   8.030   0.531
27644WAT     H283175   7.789   7.996   0.577
27645WAT      O83176   8.897   2.361   2.244
27645WAT     H183177   8.846   2.418   2.308
27645WAT     H283178   8.880   2.392   2.151
27646WAT      O83179   3.833   8.600   3.794
27646WAT     H183180   3.922   8.636   3.822
27646WAT     H283181   3.829   8.593   3.694
27647WAT      O83182   4.907   1.920   6.591
27647WAT     H183183   4.889   1.935   6.494
27647WAT     H283184   4.951   1.831   6.604
27648WAT      O83185   0.650   1.058   4.306
27648WAT     H183186   0.618   1.054   4.211
27648WAT     H283187   0.575   1.087   4.365
27649WAT      O83188   2.435   6.104   5.826
27649WAT     H183189   2.407   6.046   5.750
27649WAT     H283190   2.487   6.182   5.791
27650WAT      O83191   1.446   1.387   9.367
27650WAT     H183192   1.389   1.468   9.376
27650WAT     H283193   1.450   1.338   9.454
27651WAT      O83194   8.274   9.355   5.299
27651WAT     H183195   8.293   9.261   5.328
27651WAT     H283196   8.197   9.355   5.235
27652WAT      O83197   5.744   2.300   7.153
27652WAT     H183198   5.812   2.373   7.153
27652WAT     H283199   5.658   2.335   7.190
27653WAT      O83200   4.361   6.966   5.546
27653WAT     H183201   4.406   7.048   5.509
27653WAT     H283202   4.388   6.954   5.642
27654WAT      O83203   3.330   5.987   5.575
27654WAT     H183204   3.291   6.047   5.645
27654WAT     H283205   3.274   5.904   5.568
27655WAT      O83206   2.168   6.894   8.142
27655WAT     H183207   2.197   6.800   8.125
27655WAT     H283208   2.074   6.895   8.175
27656WAT      O83209   6.016   2.518   4.765
27656WAT     H183210   5.938   2.578   4.784
27656WAT     H283211   6.093   2.573   4.732
27657WAT      O83212   6.903   9.204   3.450
27657WAT     H183213   6.837   9.261   3.499
27657WAT     H283214   6.958   9.262   3.389
27658WAT      O83215   8.575   4.081   3.433
27658WAT     H183216   8.477   4.093   3.450
27658WAT     H283217   8.601   3.986   3.452
27659WAT      O83218   1.350   4.078   3.767
27659WAT     H183219   1.429   4.018   3.757
27659WAT     H283220   1.334   4.096   3.864
27660WAT      O83221   5.825   9.091   3.699
27660WAT     H183222   5.740   9.040   3.684
27660WAT     H283223   5.807   9.189   3.691
27661WAT      O83224   2.913   2.231   1.873
27661WAT     H183225   2.944   2.223   1.968
27661WAT     H283226   2.992   2.236   1.812
27662WAT      O83227   0.846   8.418   8.766
27662WAT     H183228   0.857   8.474   8.684
27662WAT     H283229   0.929   8.364   8.781
27663WAT      O83230   4.611   0.134   0.480
27663WAT     H183231   4.636   0.194   0.557
27663WAT     H283232   4.515   0.109   0.488
27664WAT      O83233   4.903   0.719   2.674
27664WAT     H183234   4.991   0.726   2.627
27664WAT     H283235   4.916   0.671   2.761
27665WAT      O83236   8.835   6.070   8.753
27665WAT     H183237   8.864   6.092   8.847
27665WAT     H283238   8.860   6.146   8.693
27666WAT      O83239   5.446   1.049   0.812
27666WAT     H183240   5.491   0.960   0.817
27666WAT     H283241   5.509   1.120   0.844
27667WAT      O83242   4.983   5.634   3.433
27667WAT     H183243   4.955   5.604   3.524
27667WAT     H283244   4.981   5.557   3.370
27668WAT      O83245   2.672   2.689   5.064
27668WAT     H183246   2.611   2.766   5.047
27668WAT     H283247   2.701   2.690   5.159
27669WAT      O83248   5.540   7.851   5.206
27669WAT     H183249   5.506   7.797   5.283
27669WAT     H283250   5.613   7.800   5.160
27670WAT      O83251   4.206   3.597   8.298
27670WAT     H183252   4.200   3.695   8.319
27670WAT     H283253   4.287   3.558   8.343
27671WAT      O83254   4.491   3.122   8.111
27671WAT     H183255   4.583   3.112   8.150
27671WAT     H283256   4.424   3.086   8.176
27672WAT      O83257   5.629   9.736   8.763
27672WAT     H183258   5.543   9.784   8.750
27672WAT     H283259   5.658   9.744   8.858
27673WAT      O83260   2.417   0.624   5.986
27673WAT     H183261   2.427   0.540   6.040
27673WAT     H283262   2.321   0.639   5.965
27674WAT      O83263   4.663   9.385   1.852
27674WAT     H183264   4.725   9.327   1.905
27674WAT     H283265   4.614   9.446   1.913
27675WAT      O83266   2.862   8.470   4.192
27675WAT     H183267   2.833   8.389   4.242
27675WAT     H283268   2.958   8.490   4.212
27676WAT      O83269   5.555   9.500   3.446
27676WAT     H183270   5.470   9.496   3.499
27676WAT     H283271   5.563   9.417   3.391
27677WAT      O83272   7.504   0.517   8.027
27677WAT     H183273   7.506   0.418   8.041
27677WAT     H283274   7.550   0.562   8.104
27678WAT      O83275   7.831   3.199   5.932
27678WAT     H183276   7.807   3.162   5.842
27678WAT     H283277   7.930   3.193   5.944
27679WAT      O83278   4.696   7.888   5.649
27679WAT     H183279   4.758   7.849   5.580
27679WAT     H283280   4.644   7.815   5.692
27680WAT      O83281   3.645   8.268   3.823
27680WAT     H183282   3.706   8.323   3.880
27680WAT     H283283   3.649   8.172   3.852
27681WAT      O83284   9.146   9.479   2.713
27681WAT     H183285   9.160   9.418   2.635
27681WAT     H283286   9.190   9.440   2.794
27682WAT      O83287   5.858   2.320   2.567
27682WAT     H183288   5.832   2.229   2.598
27682WAT     H283289   5.954   2.337   2.588
27683WAT      O83290   3.956   4.769   1.330
27683WAT     H183291   3.987   4.790   1.423
27683WAT     H283292   4.032   4.780   1.266
27684WAT      O83293   2.782   6.387   1.993
27684WAT     H183294   2.709   6.322   2.015
27684WAT     H283295   2.839   6.349   1.920
27685WAT      O83296   1.533   5.399   5.927
27685WAT     H183297   1.598   5.468   5.896
27685WAT     H283298   1.556   5.311   5.886
27686WAT      O83299   0.448   4.425   4.233
27686WAT     H183300   0.540   4.461   4.250
27686WAT     H283301   0.387   4.452   4.308
27687WAT      O83302   6.448   5.011   4.390
27687WAT     H183303   6.384   4.947   4.432
27687WAT     H283304   6.513   4.961   4.332
27688WAT      O83305   5.936   4.583   8.368
27688WAT     H183306   6.001   4.652   8.401
27688WAT     H283307   5.843   4.610   8.391
27689WAT      O83308   0.035   0.224   7.942
27689WAT     H183309   0.030   0.180   8.031
27689WAT     H283310  -0.041   0.288   7.932
27690WAT      O83311   4.532   1.628   0.403
27690WAT     H183312   4.456   1.666   0.456
27690WAT     H283313   4.589   1.703   0.369
27691WAT      O83314   9.039   7.957   7.732
27691WAT     H183315   8.966   7.891   7.715
27691WAT     H283316   9.072   7.945   7.826
27692WAT      O83317   3.302   5.037   2.247
27692WAT     H183318   3.303   4.937   2.235
27692WAT     H283319   3.209   5.071   2.234
27693WAT      O83320   1.209   2.140   3.423
27693WAT     H183321   1.112   2.151   3.444
27693WAT     H283322   1.262   2.152   3.507
27694WAT      O83323   3.353   5.780   4.282
27694WAT     H183324   3.404   5.756   4.200
27694WAT     H283325   3.262   5.812   4.257
27695WAT      O83326   5.767   1.956   7.854
27695WAT     H183327   5.742   1.917   7.943
27695WAT     H283328   5.776   1.882   7.787
27696WAT      O83329   0.445   8.295   8.913
27696WAT     H183330   0.509   8.344   8.973
27696WAT     H283331   0.367   8.263   8.968
27697WAT      O83332   1.915   7.739   9.736
27697WAT     H183333   1.993   7.705   9.789
27697WAT     H283334   1.947   7.789   9.657
27698WAT      O83335   8.654   0.398   2.566
27698WAT     H183336   8.741   0.376   2.610
27698WAT     H283337   8.668   0.474   2.503
27699WAT      O83338   0.088   4.529   7.487
27699WAT     H183339   0.096   4.509   7.389
27699WAT     H283340  -0.002   4.500   7.519
27700WAT      O83341   9.481   1.576   3.324
27700WAT     H183342   9.383   1.592   3.333
27700WAT     H283343   9.508   1.500   3.385
27701WAT      O83344   8.708   0.314   5.809
27701WAT     H183345   8.704   0.400   5.758
27701WAT     H283346   8.734   0.240   5.746
27702WAT      O83347   6.622   4.595   9.468
27702WAT     H183348   6.522   4.596   9.474
27702WAT     H283349   6.655   4.687   9.448
27703WAT      O83350   2.261   9.461   6.199
27703WAT     H183351   2.297   9.374   6.232
27703WAT     H283352   2.226   9.449   6.106
27704WAT      O83353   3.493   0.815   1.543
27704WAT     H183354   3.412   0.845   1.491
27704WAT     H283355   3.474   0.727   1.587
27705WAT      O83356   1.870   0.398   4.669
27705WAT     H183357   1.940   0.351   4.615
27705WAT     H283358   1.842   0.340   4.745
27706WAT      O83359   5.123   8.208   9.847
27706WAT     H183360   5.087   8.177   9.935
27706WAT     H283361   5.087   8.299   9.827
27707WAT      O83362   5.306   4.600   4.625
27707WAT     H183363   5.316   4.699   4.626
27707WAT     H283364   5.331   4.565   4.534
27708WAT      O83365   4.692   7.276   3.728
27708WAT     H183366   4.656   7.369   3.734
27708WAT     H283367   4.713   7.242   3.820
27709WAT      O83368   7.836   2.918   2.846
27709WAT     H183369   7.866   2.914   2.941
27709WAT     H283370   7.813   2.827   2.814
27710WAT      O83371   5.855   5.313   3.361
27710WAT     H183372   5.772   5.350   3.404
27710WAT     H283373   5.847   5.214   3.354
27711WAT      O83374   0.705   1.575   8.169
27711WAT     H183375   0.610   1.605   8.178
27711WAT     H283376   0.763   1.628   8.231
27712WAT      O83377   7.611   9.196   5.478
27712WAT     H183378   7.658   9.115   5.445
27712WAT     H283379   7.659   9.232   5.558
27713WAT      O83380   9.312   5.166   3.174
27713WAT     H183381   9.306   5.070   3.145
27713WAT     H283382   9.362   5.170   3.261
27714WAT      O83383   6.571   2.022   0.244
27714WAT     H183384   6.540   2.065   0.159
27714WAT     H283385   6.505   2.040   0.316
27715WAT      O83386   1.010   1.764   6.786
27715WAT     H183387   1.101   1.731   6.761
27715WAT     H283388   0.968   1.808   6.706
27716WAT      O83389   4.068   1.598   2.452
27716WAT     H183390   4.159   1.558   2.443
27716WAT     H283391   4.054   1.663   2.377
27717WAT      O83392   8.093   8.697   3.391
27717WAT     H183393   8.008   8.745   3.375
27717WAT     H283394   8.091   8.655   3.482
27718WAT      O83395   1.493   7.370   7.194
27718WAT     H183396   1.511   7.304   7.267
27718WAT     H283397   1.445   7.324   7.120
27719WAT      O83398   3.839   2.767   0.781
27719WAT     H183399   3.872   2.797   0.871
27719WAT     H283400   3.739   2.761   0.782
27720WAT      O83401   3.092   2.676   8.475
27720WAT     H183402   3.166   2.719   8.527
27720WAT     H283403   3.125   2.590   8.437
27721WAT      O83404   4.506   2.330   0.435
27721WAT     H183405   4.570   2.394   0.392
27721WAT     H283406   4.544   2.296   0.520
27722WAT      O83407   7.399   7.942   9.246
27722WAT     H183408   7.350   7.904   9.324
27722WAT     H283409   7.439   8.030   9.271
27723WAT      O83410   7.605   8.895   8.284
27723WAT     H183411   7.557   8.841   8.354
27723WAT     H283412   7.681   8.944   8.326
27724WAT      O83413   1.421   3.100   3.299
27724WAT     H183414   1.471   3.015   3.284
27724WAT     H283415   1.331   3.079   3.339
27725WAT      O83416   4.618   2.649   8.219
27725WAT     H183417   4.588   2.694   8.303
27725WAT     H283418   4.705   2.604   8.235
27726WAT      O83419   2.922   5.217   2.837
27726WAT     H183420   3.015   5.241   2.808
27726WAT     H283421   2.922   5.122   2.871
27727WAT      O83422   1.585   4.738   7.891
27727WAT     H183423   1.535   4.824   7.901
27727WAT     H283424   1.645   4.744   7.811
27728WAT      O83425   8.959   5.030   5.266
27728WAT     H183426   8.942   5.123   5.234
27728WAT     H283427   8.881   4.972   5.244
27729WAT      O83428   0.168   6.337   0.818
27729WAT     H183429   0.225   6.368   0.742
27729WAT     H283430   0.227   6.317   0.897
27730WAT      O83431   9.644   8.411   0.106
27730WAT     H183432   9.655   8.503   0.142
27730WAT     H283433   9.734   8.371   0.086
27731WAT      O83434   2.681   2.087   1.903
27731WAT     H183435   2.604   2.129   1.854
27731WAT     H283436   2.763   2.141   1.887
27732WAT      O83437   8.758   2.489   2.931
27732WAT     H183438   8.663   2.500   2.960
27732WAT     H283439   8.793   2.401   2.963
27733WAT      O83440   5.478   4.820   6.746
27733WAT     H183441   5.432   4.789   6.829
27733WAT     H283442   5.484   4.920   6.747
27734WAT      O83443   9.653   4.001   8.807
27734WAT     H183444   9.698   3.973   8.892
27734WAT     H283445   9.657   3.925   8.742
27735WAT      O83446   6.773   4.511   8.617
27735WAT     H183447   6.844   4.442   8.627
27735WAT     H283448   6.747   4.519   8.521
27736WAT      O83449   5.365   9.257   0.735
27736WAT     H183450   5.289   9.322   0.734
27736WAT     H283451   5.336   9.173   0.781
27737WAT      O83452   7.741   1.862   3.884
27737WAT     H183453   7.649   1.897   3.870
27737WAT     H283454   7.807   1.938   3.880
27738WAT      O83455   6.952   0.970   1.396
27738WAT     H183456   6.910   1.004   1.312
27738WAT     H283457   7.049   0.953   1.380
27739WAT      O83458   4.674   5.461   9.253
27739WAT     H183459   4.767   5.483   9.284
27739WAT     H283460   4.666   5.482   9.155
27740WAT      O83461   3.024   6.278   8.230
27740WAT     H183462   2.960   6.325   8.292
27740WAT     H283463   3.041   6.336   8.150
27741WAT      O83464   2.183   3.615   4.069
27741WAT     H183465   2.147   3.693   4.018
27741WAT     H283466   2.282   3.621   4.075
27742WAT      O83467   4.928   5.366   6.192
27742WAT     H183468   4.986   5.286   6.180
27742WAT     H283469   4.950   5.434   6.122
27743WAT      O83470   6.319   6.896   4.115
27743WAT     H183471   6.395   6.838   4.085
27743WAT     H283472   6.333   6.924   4.210
27744WAT      O83473   1.567   0.667   8.700
27744WAT     H183474   1.551   0.669   8.799
27744WAT     H283475   1.580   0.760   8.667
27745WAT      O83476   9.169   4.962   2.564
27745WAT     H183477   9.113   5.004   2.493
27745WAT     H283478   9.117   4.957   2.649
27746WAT      O83479   0.179   5.251   0.985
27746WAT     H183480   0.138   5.341   0.997
27746WAT     H283481   0.131   5.202   0.912
27747WAT      O83482   5.848   9.746   9.700
27747WAT     H183483   5.891   9.773   9.785
27747WAT     H283484   5.763   9.697   9.719
27748WAT      O83485   3.753   5.454   8.524
27748WAT     H183486   3.717   5.367   8.558
27748WAT     H283487   3.833   5.436   8.467
27749WAT      O83488   2.477   1.445   7.184
27749WAT     H183489   2.388   1.417   7.221
27749WAT     H283490   2.542   1.454   7.260
27750WAT      O83491   3.087   3.077   3.601
27750WAT     H183492   3.057   3.147   3.665
27750WAT     H283493   3.059   2.987   3.635
27751WAT      O83494   1.480   2.130   0.076
27751WAT     H183495   1.403   2.169   0.026
27751WAT     H283496   1.465   2.033   0.091
27752WAT      O83497   4.005   5.647   9.748
27752WAT     H183498   3.941   5.636   9.672
27752WAT     H283499   4.097   5.660   9.713
27753WAT      O83500   6.501   7.599   8.864
27753WAT     H183501   6.478   7.507   8.832
27753WAT     H283502   6.429   7.663   8.835
27754WAT      O83503   8.816   3.870   5.523
27754WAT     H183504   8.852   3.779   5.504
27754WAT     H283505   8.716   3.867   5.519
27755WAT      O83506   3.542   4.088   8.923
27755WAT     H183507   3.485   4.007   8.913
27755WAT     H283508   3.540   4.119   9.018
27756WAT      O83509   7.884   4.982   3.289
27756WAT     H183510   7.858   4.921   3.365
27756WAT     H283511   7.887   4.930   3.204
27757WAT      O83512   0.508   1.089   4.066
27757WAT     H183513   0.564   1.057   3.989
27757WAT     H283514   0.411   1.087   4.040
27758WAT      O83515   7.997   7.994   3.875
27758WAT     H183516   8.008   8.017   3.779
27758WAT     H283517   7.981   8.078   3.928
27759WAT      O83518   3.351   2.010   1.317
27759WAT     H183519   3.303   2.055   1.391
27759WAT     H283520   3.333   2.058   1.231
27760WAT      O83521   2.744   6.601   8.197
27760WAT     H183522   2.792   6.675   8.245
27760WAT     H283523   2.799   6.572   8.119
27761WAT      O83524   2.406   2.952   0.598
27761WAT     H183525   2.448   2.867   0.568
27761WAT     H283526   2.350   2.934   0.679
27762WAT      O83527   7.782   5.338   9.764
27762WAT     H183528   7.839   5.369   9.688
27762WAT     H283529   7.840   5.318   9.843
27763WAT      O83530   6.818   3.419   5.507
27763WAT     H183531   6.859   3.478   5.577
27763WAT     H283532   6.771   3.343   5.551
27764WAT      O83533   9.064   5.008   3.018
27764WAT     H183534   9.160   4.984   3.034
27764WAT     H283535   9.016   5.012   3.105
27765WAT      O83536   5.156   1.082   8.556
27765WAT     H183537   5.188   1.136   8.634
27765WAT     H283538   5.209   1.106   8.475
27766WAT      O83539   3.326   3.151   6.518
27766WAT     H183540   3.241   3.153   6.570
27766WAT     H283541   3.339   3.061   6.477
27767WAT      O83542   3.944   9.140   4.003
27767WAT     H183543   3.869   9.082   4.035
27767WAT     H283544   3.936   9.231   4.044
27768WAT      O83545   3.459   0.883   8.731
27768WAT     H183546   3.427   0.800   8.778
27768WAT     H283547   3.435   0.878   8.634
27769WAT      O83548   5.849   6.667   8.086
27769WAT     H183549   5.817   6.721   8.008
27769WAT     H283550   5.782   6.595   8.107
27770WAT      O83551   2.379   7.363   5.131
27770WAT     H183552   2.420   7.433   5.191
27770WAT     H283553   2.305   7.317   5.180
27771WAT      O83554   0.047   4.562   4.296
27771WAT     H183555   0.137   4.537   4.331
27771WAT     H283556  -0.006   4.604   4.369
27772WAT      O83557   6.791   8.510   6.577
27772WAT     H183558   6.740   8.578   6.629
27772WAT     H283559   6.881   8.497   6.618
27773WAT      O83560   8.271   2.974   7.676
27773WAT     H183561   8.290   3.056   7.622
27773WAT     H283562   8.356   2.939   7.714
27774WAT      O83563   4.964   8.725   9.697
27774WAT     H183564   4.992   8.698   9.605
27774WAT     H283565   4.867   8.703   9.710
27775WAT      O83566   2.197   8.293   5.418
27775WAT     H183567   2.191   8.392   5.431
27775WAT     H283568   2.291   8.269   5.394
27776WAT      O83569   6.449   7.400   2.765
27776WAT     H183570   6.371   7.447   2.724
27776WAT     H283571   6.427   7.376   2.860
27777WAT      O83572   1.774   7.378   8.286
27777WAT     H183573   1.841   7.305   8.276
27777WAT     H283574   1.775   7.411   8.380
27778WAT      O83575   7.513   8.050   7.073
27778WAT     H183576   7.430   8.006   7.040
27778WAT     H283577   7.554   8.104   7.000
27779WAT      O83578   5.688   7.773   1.090
27779WAT     H183579   5.759   7.706   1.114
27779WAT     H283580   5.731   7.859   1.062
27780WAT      O83581   1.724   8.608   1.385
27780WAT     H183582   1.649   8.586   1.448
27780WAT     H283583   1.728   8.707   1.371
27781WAT      O83584   0.122   7.841   1.955
27781WAT     H183585   0.129   7.897   1.872
27781WAT     H283586   0.183   7.878   2.025
27782WAT      O83587   5.633   7.333   9.205
27782WAT     H183588   5.635   7.431   9.223
27782WAT     H283589   5.671   7.284   9.283
27783WAT      O83590   2.000   9.385   1.252
27783WAT     H183591   2.018   9.295   1.212
27783WAT     H283592   2.083   9.418   1.298
27784WAT      O83593   4.999   2.212   4.013
27784WAT     H183594   5.019   2.117   4.038
27784WAT     H283595   5.071   2.271   4.048
27785WAT      O83596   7.496   1.771   1.934
27785WAT     H183597   7.563   1.808   1.869
27785WAT     H283598   7.418   1.833   1.941
27786WAT      O83599   8.206   4.048   9.355
27786WAT     H183600   8.228   4.145   9.359
27786WAT     H283601   8.204   4.018   9.260
27787WAT      O83602   8.330   7.935   9.822
27787WAT     H183603   8.308   7.999   9.896
27787WAT     H283604   8.430   7.929   9.812
27788WAT      O83605   2.864   3.824   3.206
27788WAT     H183606   2.863   3.854   3.110
27788WAT     H283607   2.941   3.762   3.220
27789WAT      O83608   7.446   1.610   1.117
27789WAT     H183609   7.522   1.589   1.057
27789WAT     H283610   7.366   1.637   1.063
27790WAT      O83611   5.379   4.328   5.488
27790WAT     H183612   5.385   4.236   5.526
27790WAT     H283613   5.286   4.363   5.500
27791WAT      O83614   7.210   1.157   1.123
27791WAT     H183615   7.174   1.067   1.147
27791WAT     H283616   7.139   1.226   1.139
27792WAT      O83617   2.686   5.883   3.518
27792WAT     H183618   2.714   5.967   3.471
27792WAT     H283619   2.640   5.907   3.604
27793WAT      O83620   0.413   7.786   6.721
27793WAT     H183621   0.379   7.697   6.690
27793WAT     H283622   0.341   7.832   6.774
27794WAT      O83623   8.123   7.312   4.583
27794WAT     H183624   8.070   7.303   4.667
27794WAT     H283625   8.068   7.281   4.505
27795WAT      O83626   1.352   5.681   6.896
27795WAT     H183627   1.366   5.705   6.800
27795WAT     H283628   1.414   5.606   6.921
27796WAT      O83629   0.436   5.859   3.644
27796WAT     H183630   0.421   5.855   3.742
27796WAT     H283631   0.356   5.899   3.599
27797WAT      O83632   5.797   4.639   8.764
27797WAT     H183633   5.816   4.715   8.701
27797WAT     H283634   5.728   4.668   8.830
27798WAT      O83635   9.242   1.660   2.681
27798WAT     H183636   9.241   1.653   2.582
27798WAT     H283637   9.323   1.712   2.710
27799WAT      O83638   2.448   7.807   7.390
27799WAT     H183639   2.518   7.869   7.354
27799WAT     H283640   2.443   7.817   7.490
27800WAT      O83641   5.515   2.794   4.169
27800WAT     H183642   5.431   2.800   4.116
27800WAT     H283643   5.507   2.722   4.238
27801WAT      O83644   2.726   9.818   5.036
27801WAT     H183645   2.675   9.833   5.120
27801WAT     H283646   2.824   9.815   5.057
27802WAT      O83647   0.094   9.163   5.824
27802WAT     H183648   0.145   9.238   5.783
27802WAT     H283649   0.027   9.127   5.759
27803WAT      O83650   7.497   0.986   0.267
27803WAT     H183651   7.511   0.897   0.223
27803WAT     H283652   7.399   0.999   0.285
27804WAT      O83653   1.231   0.843   0.231
27804WAT     H183654   1.245   0.933   0.190
27804WAT     H283655   1.137   0.835   0.263
27805WAT      O83656   6.172   8.476   8.236
27805WAT     H183657   6.216   8.515   8.155
27805WAT     H283658   6.219   8.509   8.318
27806WAT      O83659   4.620   6.245   7.726
27806WAT     H183660   4.534   6.217   7.769
27806WAT     H283661   4.693   6.241   7.794
27807WAT      O83662   8.968   2.538   5.393
27807WAT     H183663   9.051   2.593   5.391
27807WAT     H283664   8.933   2.533   5.486
27808WAT      O83665   4.711   5.188   6.178
27808WAT     H183666   4.722   5.186   6.078
27808WAT     H283667   4.785   5.242   6.218
27809WAT      O83668   3.250   1.919   1.915
27809WAT     H183669   3.339   1.941   1.874
27809WAT     H283670   3.228   1.823   1.897
27810WAT      O83671   7.586   3.634   4.433
27810WAT     H183672   7.537   3.716   4.464
27810WAT     H283673   7.520   3.569   4.395
27811WAT      O83674   5.365   6.209   4.717
27811WAT     H183675   5.390   6.215   4.813
27811WAT     H283676   5.267   6.196   4.708
27812WAT      O83677   5.982   5.162   4.140
27812WAT     H183678   6.006   5.178   4.236
27812WAT     H283679   6.057   5.190   4.081
27813WAT      O83680   4.228   5.893   6.657
27813WAT     H183681   4.150   5.956   6.652
27813WAT     H283682   4.197   5.799   6.642
27814WAT      O83683   0.821   7.849   2.062
27814WAT     H183684   0.872   7.925   2.104
27814WAT     H283685   0.748   7.886   2.005
27815WAT      O83686   1.336   2.588   9.091
27815WAT     H183687   1.430   2.605   9.063
27815WAT     H283688   1.320   2.489   9.100
27816WAT      O83689   6.833   4.313   9.108
27816WAT     H183690   6.741   4.337   9.138
27816WAT     H283691   6.844   4.214   9.107
27817WAT      O83692   2.837   3.120   8.921
27817WAT     H183693   2.819   3.023   8.937
27817WAT     H283694   2.750   3.169   8.917
27818WAT      O83695   4.606   9.623   2.544
27818WAT     H183696   4.667   9.675   2.604
27818WAT     H283697   4.569   9.544   2.593
27819WAT      O83698   9.694   2.877   1.226
27819WAT     H183699   9.678   2.870   1.324
27819WAT     H283700   9.750   2.957   1.207
27820WAT      O83701   4.122   5.489   4.931
27820WAT     H183702   4.058   5.522   5.000
27820WAT     H283703   4.131   5.558   4.859
27821WAT      O83704   7.006   7.312   4.750
27821WAT     H183705   7.057   7.320   4.664
27821WAT     H283706   6.962   7.399   4.771
27822WAT      O83707   8.772   5.443   5.378
27822WAT     H183708   8.690   5.442   5.435
27822WAT     H283709   8.820   5.530   5.389
27823WAT      O83710   0.813   6.064   4.941
27823WAT     H183711   0.729   6.030   4.984
27823WAT     H283712   0.838   6.152   4.981
27824WAT      O83713   4.945   0.364   0.472
27824WAT     H183714   4.895   0.440   0.432
27824WAT     H283715   5.043   0.377   0.456
27825WAT      O83716   6.836   8.617   3.222
27825WAT     H183717   6.832   8.614   3.322
27825WAT     H283718   6.911   8.678   3.194
27826WAT      O83719   9.316   8.712   6.352
27826WAT     H183720   9.318   8.634   6.289
27826WAT     H283721   9.369   8.787   6.315
27827WAT      O83722   1.499   0.218   6.909
27827WAT     H183723   1.590   0.238   6.873
27827WAT     H283724   1.490   0.120   6.926
27828WAT      O83725   4.003   4.182   2.126
27828WAT     H183726   4.078   4.216   2.069
27828WAT     H283727   4.005   4.082   2.127
27829WAT      O83728   7.323   8.368   7.842
27829WAT     H183729   7.253   8.362   7.771
27829WAT     H283730   7.319   8.458   7.885
27830WAT      O83731   3.340   9.635   8.909
27830WAT     H183732   3.359   9.575   8.831
27830WAT     H283733   3.242   9.648   8.918
27831WAT      O83734   0.700   9.408   3.905
27831WAT     H183735   0.610   9.421   3.864
27831WAT     H283736   0.707   9.314   3.941
27832WAT      O83737   7.476   1.483   1.845
27832WAT     H183738   7.464   1.583   1.842
27832WAT     H283739   7.568   1.460   1.816
27833WAT      O83740   8.305   2.661   3.176
27833WAT     H183741   8.210   2.640   3.199
27833WAT     H283742   8.312   2.757   3.150
27834WAT      O83743   0.827   3.361   5.117
27834WAT     H183744   0.853   3.432   5.183
27834WAT     H283745   0.756   3.303   5.157
27835WAT      O83746   6.002   3.768   9.561
27835WAT     H183747   6.015   3.679   9.605
27835WAT     H283748   6.084   3.793   9.510
27836WAT      O83749   3.270   0.730   8.596
27836WAT     H183750   3.191   0.694   8.546
27836WAT     H283751   3.354   0.687   8.561
27837WAT      O83752   7.723   7.968   3.491
27837WAT     H183753   7.719   7.902   3.416
27837WAT     H283754   7.709   7.920   3.578
27838WAT      O83755   0.774   0.089   3.416
27838WAT     H183756   0.872   0.097   3.397
27838WAT     H283757   0.755   0.121   3.509
27839WAT      O83758   9.452   0.106   9.855
27839WAT     H183759   9.394   0.027   9.838
27839WAT     H283760   9.481   0.146   9.768
27840WAT      O83761   9.550   7.326   3.986
27840WAT     H183762   9.451   7.337   3.996
27840WAT     H283763   9.595   7.414   4.000
27841WAT      O83764   2.887   9.804   1.903
27841WAT     H183765   2.832   9.766   1.978
27841WAT     H283766   2.925   9.892   1.932
27842WAT      O83767   1.075   9.668   9.852
27842WAT     H183768   1.119   9.698   9.768
27842WAT     H283769   1.015   9.590   9.833
27843WAT      O83770   4.296   6.624   3.823
27843WAT     H183771   4.354   6.602   3.744
27843WAT     H283772   4.328   6.573   3.903
27844WAT      O83773   4.600   3.264   7.170
27844WAT     H183774   4.567   3.220   7.086
27844WAT     H283775   4.561   3.216   7.249
27845WAT      O83776   1.420   0.658   9.442
27845WAT     H183777   1.403   0.621   9.533
27845WAT     H283778   1.367   0.742   9.430
27846WAT      O83779   4.083   8.323   1.071
27846WAT     H183780   4.009   8.255   1.073
27846WAT     H283781   4.167   8.280   1.037
27847WAT      O83782   0.455   9.587   1.471
27847WAT     H183783   0.469   9.494   1.436
27847WAT     H283784   0.384   9.632   1.417
27848WAT      O83785   1.749   4.311   8.969
27848WAT     H183786   1.695   4.283   9.049
27848WAT     H283787   1.845   4.320   8.995
27849WAT      O83788   8.594   0.829   6.319
27849WAT     H183789   8.570   0.870   6.407
27849WAT     H283790   8.512   0.791   6.277
27850WAT      O83791   3.936   8.058   6.850
27850WAT     H183792   3.961   8.012   6.764
27850WAT     H283793   3.928   8.156   6.834
27851WAT      O83794   6.502   2.334   8.161
27851WAT     H183795   6.601   2.348   8.169
27851WAT     H283796   6.472   2.363   8.070
27852WAT      O83797   0.163   6.170   5.470
27852WAT     H183798   0.251   6.187   5.424
27852WAT     H283799   0.159   6.223   5.554
27853WAT      O83800   1.648   2.453   3.318
27853WAT     H183801   1.556   2.464   3.279
27853WAT     H283802   1.679   2.359   3.304
27854WAT      O83803   7.844   1.810   1.038
27854WAT     H183804   7.922   1.871   1.057
27854WAT     H283805   7.879   1.719   1.014
27855WAT      O83806   4.248   5.148   2.657
27855WAT     H183807   4.345   5.132   2.641
27855WAT     H283808   4.206   5.184   2.573
27856WAT      O83809   3.811   7.467   4.867
27856WAT     H183810   3.800   7.539   4.935
27856WAT     H283811   3.842   7.508   4.781
27857WAT      O83812   2.775   3.845   5.464
27857WAT     H183813   2.786   3.918   5.531
27857WAT     H283814   2.730   3.881   5.382
27858WAT      O83815   5.872   7.791   6.468
27858WAT     H183816   5.832   7.872   6.511
27858WAT     H283817   5.971   7.805   6.456
27859WAT      O83818   5.675   2.302   5.776
27859WAT     H183819   5.585   2.258   5.781
27859WAT     H283820   5.679   2.379   5.840
27860WAT      O83821   4.501   9.682   9.292
27860WAT     H183822   4.426   9.686   9.226
27860WAT     H283823   4.545   9.592   9.288
27861WAT      O83824   6.484   7.018   7.884
27861WAT     H183825   6.467   7.024   7.785
27861WAT     H283826   6.528   6.930   7.904
27862WAT      O83827   3.313   4.185   1.154
27862WAT     H183828   3.378   4.111   1.171
27862WAT     H283829   3.362   4.272   1.149
27863WAT      O83830   8.719   7.379   3.290
27863WAT     H183831   8.751   7.463   3.246
27863WAT     H283832   8.798   7.327   3.324
27864WAT      O83833   1.030   8.493   0.934
27864WAT     H183834   1.039   8.400   0.971
27864WAT     H283835   1.027   8.489   0.834
27865WAT      O83836   7.162   3.640   4.094
27865WAT     H183837   7.144   3.545   4.071
27865WAT     H283838   7.161   3.651   4.194
27866WAT      O83839   3.492   9.762   9.244
27866WAT     H183840   3.544   9.771   9.159
27866WAT     H283841   3.412   9.704   9.228
27867WAT      O83842   5.055   0.065   0.657
27867WAT     H183843   5.120   0.135   0.688
27867WAT     H283844   4.993   0.104   0.590
27868WAT      O83845   7.321   2.705   8.123
27868WAT     H183846   7.241   2.653   8.155
27868WAT     H283847   7.398   2.690   8.185
27869WAT      O83848   3.861   8.778   7.239
27869WAT     H183849   3.895   8.787   7.146
27869WAT     H283850   3.836   8.869   7.275
27870WAT      O83851   2.760   6.937   2.511
27870WAT     H183852   2.788   6.859   2.455
27870WAT     H283853   2.671   6.969   2.479
27871WAT      O83854   2.878   0.237   6.695
27871WAT     H183855   2.852   0.334   6.695
27871WAT     H283856   2.978   0.230   6.695
27872WAT      O83857   9.543   9.410   2.003
27872WAT     H183858   9.501   9.497   1.975
27872WAT     H283859   9.474   9.353   2.049
27873WAT      O83860   8.125   1.790   9.336
27873WAT     H183861   8.032   1.753   9.343
27873WAT     H283862   8.182   1.750   9.407
27874WAT      O83863   1.412   7.741   7.035
27874WAT     H183864   1.326   7.727   7.084
27874WAT     H283865   1.408   7.695   6.946
27875WAT      O83866   6.950   3.106   5.704
27875WAT     H183867   7.028   3.105   5.641
27875WAT     H283868   6.870   3.144   5.658
27876WAT      O83869   2.413   0.744   2.799
27876WAT     H183870   2.459   0.728   2.712
27876WAT     H283871   2.468   0.703   2.873
27877WAT      O83872   2.958   5.385   8.267
27877WAT     H183873   3.040   5.331   8.250
27877WAT     H283874   2.898   5.336   8.330
27878WAT      O83875   0.628   3.101   1.672
27878WAT     H183876   0.693   3.046   1.724
27878WAT     H283877   0.655   3.198   1.678
27879WAT      O83878   1.902   0.760   6.030
27879WAT     H183879   1.815   0.755   5.981
27879WAT     H283880   1.913   0.679   6.086
27880WAT      O83881   3.041   6.577   3.249
27880WAT     H183882   3.080   6.642   3.185
27880WAT     H283883   2.966   6.620   3.299
27881WAT      O83884   9.242   7.950   6.630
27881WAT     H183885   9.151   7.982   6.606
27881WAT     H283886   9.237   7.891   6.710
27882WAT      O83887   8.760   2.464   9.820
27882WAT     H183888   8.798   2.552   9.793
27882WAT     H283889   8.690   2.436   9.755
27883WAT      O83890   5.758   5.584   8.158
27883WAT     H183891   5.741   5.677   8.191
27883WAT     H283892   5.855   5.564   8.163
27884WAT      O83893   8.840   8.691   0.424
27884WAT     H183894   8.900   8.764   0.388
27884WAT     H283895   8.761   8.732   0.470
27885WAT      O83896   5.907   2.794   8.656
27885WAT     H183897   6.005   2.811   8.648
27885WAT     H283898   5.877   2.736   8.580
27886WAT      O83899   0.373   5.391   5.866
27886WAT     H183900   0.437   5.394   5.942
27886WAT     H283901   0.385   5.306   5.815
27887WAT      O83902   5.365   0.304   9.482
27887WAT     H183903   5.295   0.326   9.550
27887WAT     H283904   5.329   0.234   9.419
27888WAT      O83905   7.130   4.028   8.807
27888WAT     H183906   7.132   4.121   8.771
27888WAT     H283907   7.062   3.974   8.756
27889WAT      O83908   3.115   6.303   3.526
27889WAT     H183909   3.169   6.310   3.609
27889WAT     H283910   3.045   6.375   3.525
27890WAT      O83911   2.952   1.712   8.013
27890WAT     H183912   2.900   1.797   8.013
27890WAT     H283913   3.043   1.728   8.052
27891WAT      O83914   0.822   0.349   8.523
27891WAT     H183915   0.853   0.408   8.449
27891WAT     H283916   0.896   0.287   8.550
27892WAT      O83917   3.669   9.137   8.556
27892WAT     H183918   3.611   9.198   8.502
27892WAT     H283919   3.690   9.180   8.644
27893WAT      O83920   9.315   7.677   3.752
27893WAT     H183921   9.301   7.632   3.664
27893WAT     H283922   9.385   7.628   3.804
27894WAT      O83923   6.026   9.183   2.928
27894WAT     H183924   6.092   9.162   2.999
27894WAT     H283925   6.022   9.108   2.862
27895WAT      O83926   1.830   9.064   2.952
27895WAT     H183927   1.777   9.055   2.867
27895WAT     H283928   1.887   9.146   2.946
27896WAT      O83929   0.042   6.422   3.692
27896WAT     H183930   0.073   6.332   3.661
27896WAT     H283931   0.111   6.491   3.670
27897WAT      O83932   4.815   4.331   9.594
27897WAT     H183933   4.732   4.277   9.583
27897WAT     H283934   4.797   4.427   9.571
27898WAT      O83935   7.332   3.843   8.753
27898WAT     H183936   7.429   3.867   8.762
27898WAT     H283937   7.276   3.916   8.790
27899WAT      O83938   2.028   0.796   6.445
27899WAT     H183939   2.089   0.824   6.519
27899WAT     H283940   2.076   0.805   6.358
27900WAT      O83941   3.434   1.569   3.554
27900WAT     H183942   3.513   1.533   3.504
27900WAT     H283943   3.382   1.630   3.495
27901WAT      O83944   9.656   7.062   0.292
27901WAT     H183945   9.678   6.969   0.260
27901WAT     H283946   9.600   7.056   0.374
27902WAT      O83947   6.438   8.381   8.777
27902WAT     H183948   6.372   8.349   8.709
27902WAT     H283949   6.503   8.444   8.733
27903WAT      O83950   5.493   1.077   3.431
27903WAT     H183951   5.562   1.088   3.503
27903WAT     H283952   5.504   0.987   3.387
27904WAT      O83953   1.044   2.113   8.356
27904WAT     H183954   0.993   2.059   8.423
27904WAT     H283955   1.006   2.206   8.353
27905WAT      O83956   9.030   6.307   2.567
27905WAT     H183957   9.012   6.277   2.473
27905WAT     H283958   8.945   6.307   2.619
27906WAT      O83959   3.397   8.891   4.825
27906WAT     H183960   3.414   8.846   4.912
27906WAT     H283961   3.345   8.975   4.840
27907WAT      O83962   7.173   4.345   1.728
27907WAT     H183963   7.267   4.332   1.759
27907WAT     H283964   7.171   4.414   1.655
27908WAT      O83965   4.488   4.448   3.565
27908WAT     H183966   4.542   4.367   3.589
27908WAT     H283967   4.433   4.428   3.484
27909WAT      O83968   3.724   3.264   7.576
27909WAT     H183969   3.719   3.252   7.477
27909WAT     H283970   3.636   3.242   7.617
27910WAT      O83971   3.269   1.079   6.018
27910WAT     H183972   3.231   1.074   5.926
27910WAT     H283973   3.291   0.987   6.050
27911WAT      O83974   1.902   1.799   9.039
27911WAT     H183975   1.817   1.748   9.048
27911WAT     H283976   1.959   1.757   8.968
27912WAT      O83977   3.802   2.608   4.962
27912WAT     H183978   3.724   2.570   4.913
27912WAT     H283979   3.882   2.607   4.902
27913WAT      O83980   5.237   4.860   9.695
27913WAT     H183981   5.300   4.918   9.643
27913WAT     H283982   5.231   4.770   9.652
27914WAT      O83983   9.404   5.931   1.806
27914WAT     H183984   9.467   5.983   1.865
27914WAT     H283985   9.331   5.892   1.862
27915WAT      O83986   5.386   0.028   8.768
27915WAT     H183987   5.386   0.111   8.712
27915WAT     H283988   5.355   0.051   8.860
27916WAT      O83989   1.731   4.065   8.082
27916WAT     H183990   1.637   4.084   8.052
27916WAT     H283991   1.769   3.990   8.028
27917WAT      O83992   6.104   0.683   1.077
27917WAT     H183993   6.059   0.624   1.144
27917WAT     H283994   6.192   0.712   1.113
27918WAT      O83995   7.559   2.066   5.137
27918WAT     H183996   7.607   1.983   5.165
27918WAT     H283997   7.461   2.051   5.142
27919WAT      O83998   4.671   7.986   4.405
27919WAT     H183999   4.714   8.075   4.391
27919WAT     H284000   4.723   7.934   4.473
27920WAT      O84001   4.744   8.296   0.909
27920WAT     H184002   4.818   8.276   0.845
27920WAT     H284003   4.662   8.322   0.857
27921WAT      O84004   6.172   4.355   8.031
27921WAT     H184005   6.116   4.277   8.058
27921WAT     H284006   6.119   4.439   8.042
27922WAT      O84007   6.635   9.263   0.465
27922WAT     H184008   6.680   9.232   0.382
27922WAT     H284009   6.704   9.287   0.533
27923WAT      O84010   2.565   4.885   0.878
27923WAT     H184011   2.511   4.956   0.923
27923WAT     H284012   2.616   4.924   0.802
27924WAT      O84013   2.098   4.419   1.084
27924WAT     H184014   2.114   4.396   0.988
27924WAT     H284015   2.128   4.513   1.101
27925WAT      O84016   5.097   0.141   5.152
27925WAT     H184017   5.005   0.143   5.112
27925WAT     H284018   5.160   0.189   5.092
27926WAT      O84019   7.931   6.987   5.696
27926WAT     H184020   7.900   6.930   5.771
27926WAT     H284021   8.002   6.939   5.644
27927WAT      O84022   3.195   2.234   5.023
27927WAT     H184023   3.218   2.225   5.120
27927WAT     H284024   3.105   2.279   5.014
27928WAT      O84025   0.799   6.096   7.494
27928WAT     H184026   0.718   6.142   7.532
27928WAT     H284027   0.814   6.126   7.400
27929WAT      O84028   9.449   8.351   4.841
27929WAT     H184029   9.451   8.251   4.835
27929WAT     H284030   9.401   8.388   4.762
27930WAT      O84031   1.281   8.169   8.164
27930WAT     H184032   1.356   8.116   8.124
27930WAT     H284033   1.205   8.108   8.186
27931WAT      O84034   3.934   1.527   2.678
27931WAT     H184035   3.971   1.541   2.586
27931WAT     H284036   3.853   1.469   2.674
27932WAT      O84037   5.759   1.052   7.444
27932WAT     H184038   5.737   1.113   7.368
27932WAT     H284039   5.846   1.081   7.485
27933WAT      O84040   6.472   9.786   8.965
27933WAT     H184041   6.456   9.767   8.868
27933WAT     H284042   6.406   9.736   9.021
27934WAT      O84043   5.014   2.284   5.090
27934WAT     H184044   5.000   2.354   5.020
27934WAT     H284045   4.931   2.276   5.146
27935WAT      O84046   3.240   5.588   7.805
27935WAT     H184047   3.296   5.506   7.818
27935WAT     H284048   3.252   5.621   7.711
27936WAT      O84049   1.370   9.078   0.352
27936WAT     H184050   1.373   9.002   0.418
27936WAT     H284051   1.392   9.043   0.261
27937WAT      O84052   0.874   8.277   6.721
27937WAT     H184053   0.960   8.238   6.690
27937WAT     H284054   0.798   8.220   6.688
27938WAT      O84055   5.038   6.000   7.617
27938WAT     H184056   5.018   6.068   7.546
27938WAT     H284057   5.019   5.908   7.580
27939WAT      O84058   7.527   7.121   0.235
27939WAT     H184059   7.464   7.127   0.159
27939WAT     H284060   7.517   7.032   0.280
27940WAT      O84061   2.458   5.697   9.155
27940WAT     H184062   2.377   5.649   9.189
27940WAT     H284063   2.435   5.742   9.068
27941WAT      O84064   8.091   3.189   1.959
27941WAT     H184065   8.034   3.110   1.939
27941WAT     H284066   8.185   3.171   1.930
27942WAT      O84067   4.584   6.100   0.819
27942WAT     H184068   4.503   6.120   0.764
27942WAT     H284069   4.565   6.122   0.915
27943WAT      O84070   3.406   3.337   6.129
27943WAT     H184071   3.470   3.397   6.081
27943WAT     H284072   3.350   3.392   6.191
27944WAT      O84073   2.320   8.514   1.149
27944WAT     H184074   2.255   8.584   1.122
27944WAT     H284075   2.367   8.479   1.068
27945WAT      O84076   8.996   3.690   6.373
27945WAT     H184077   9.056   3.727   6.302
27945WAT     H284078   8.918   3.643   6.330
27946WAT      O84079   5.539   8.136   2.132
27946WAT     H184080   5.524   8.188   2.215
27946WAT     H284081   5.474   8.059   2.129
27947WAT      O84082   8.581   5.621   9.059
27947WAT     H184083   8.526   5.644   8.979
27947WAT     H284084   8.651   5.554   9.034
27948WAT      O84085   5.387   4.794   0.063
27948WAT     H184086   5.356   4.789  -0.032
27948WAT     H284087   5.321   4.846   0.117
27949WAT      O84088   7.916   1.424   6.152
27949WAT     H184089   8.010   1.396   6.132
27949WAT     H284090   7.914   1.522   6.168
27950WAT      O84091   1.525   0.489   4.155
27950WAT     H184092   1.494   0.434   4.078
27950WAT     H284093   1.447   0.511   4.214
27951WAT      O84094   5.248   7.536   0.359
27951WAT     H184095   5.322   7.604   0.363
27951WAT     H284096   5.231   7.512   0.263
27952WAT      O84097   3.826   7.754   0.353
27952WAT     H184098   3.918   7.791   0.358
27952WAT     H284099   3.805   7.728   0.259
27953WAT      O84100   7.644   7.885   0.598
27953WAT     H184101   7.613   7.863   0.690
27953WAT     H284102   7.609   7.817   0.534
27954WAT      O84103   0.342   7.594   0.632
27954WAT     H184104   0.281   7.609   0.710
27954WAT     H284105   0.435   7.578   0.664
27955WAT      O84106   9.050   7.916   4.034
27955WAT     H184107   9.013   7.827   4.061
27955WAT     H284108   8.976   7.982   4.025
27956WAT      O84109   8.834   4.493   9.043
27956WAT     H184110   8.871   4.445   9.123
27956WAT     H284111   8.753   4.444   9.010
27957WAT      O84112   3.579   5.635   6.590
27957WAT     H184113   3.595   5.624   6.492
27957WAT     H284114   3.591   5.547   6.636
27958WAT      O84115   1.634   8.108   0.647
27958WAT     H184116   1.604   8.085   0.554
27958WAT     H284117   1.682   8.030   0.687
27959WAT      O84118   2.952   1.998   7.782
27959WAT     H184119   3.049   1.973   7.788
27959WAT     H284120   2.940   2.093   7.811
27960WAT      O84121   8.770   6.476   8.226
27960WAT     H184122   8.684   6.465   8.275
27960WAT     H284123   8.759   6.442   8.132
27961WAT      O84124   6.897   9.056   0.947
27961WAT     H184125   6.973   9.019   1.002
27961WAT     H284126   6.911   9.031   0.851
27962WAT      O84127   7.197   7.064   2.455
27962WAT     H184128   7.286   7.107   2.439
27962WAT     H284129   7.156   7.101   2.537
27963WAT      O84130   8.092   0.065   4.201
27963WAT     H184131   7.999   0.042   4.174
27963WAT     H284132   8.157   0.027   4.135
27964WAT      O84133   3.550   1.885   7.521
27964WAT     H184134   3.602   1.800   7.524
27964WAT     H284135   3.602   1.954   7.472
27965WAT      O84136   1.765   4.366   9.822
27965WAT     H184137   1.858   4.344   9.792
27965WAT     H284138   1.724   4.285   9.864
27966WAT      O84139   2.815   2.318   2.283
27966WAT     H184140   2.768   2.400   2.314
27966WAT     H284141   2.749   2.246   2.264
27967WAT      O84142   6.920   3.633   2.126
27967WAT     H184143   6.875   3.545   2.110
27967WAT     H284144   6.942   3.676   2.038
27968WAT      O84145   1.024   6.685   6.137
27968WAT     H184146   1.021   6.597   6.183
27968WAT     H284147   1.025   6.671   6.038
27969WAT      O84148   6.727   4.269   7.186
27969WAT     H184149   6.718   4.250   7.283
27969WAT     H284150   6.636   4.262   7.143
27970WAT      O84151   4.304   2.776   2.352
27970WAT     H184152   4.268   2.809   2.265
27970WAT     H284153   4.274   2.836   2.426
27971WAT      O84154   1.427   9.058   2.785
27971WAT     H184155   1.402   9.123   2.714
27971WAT     H284156   1.399   9.094   2.874
27972WAT      O84157   1.954   4.907   6.128
27972WAT     H184158   1.949   4.833   6.195
27972WAT     H284159   2.049   4.921   6.101
27973WAT      O84160   0.693   7.523   0.195
27973WAT     H184161   0.620   7.540   0.261
27973WAT     H284162   0.656   7.477   0.115
27974WAT      O84163   1.433   6.710   1.072
27974WAT     H184164   1.339   6.709   1.107
27974WAT     H284165   1.462   6.805   1.059
27975WAT      O84166   5.253   9.514   2.605
27975WAT     H184167   5.228   9.463   2.687
27975WAT     H284168   5.324   9.581   2.628
27976WAT      O84169   8.321   8.081   8.670
27976WAT     H184170   8.310   8.012   8.742
27976WAT     H284171   8.395   8.054   8.608
27977WAT      O84172   7.785   3.632   0.494
27977WAT     H184173   7.828   3.613   0.582
27977WAT     H284174   7.706   3.572   0.482
27978WAT      O84175   3.378   0.811   7.205
27978WAT     H184176   3.420   0.860   7.128
27978WAT     H284177   3.321   0.737   7.170
27979WAT      O84178   7.683   7.300   1.945
27979WAT     H184179   7.753   7.371   1.937
27979WAT     H284180   7.728   7.212   1.962
27980WAT      O84181   7.547   8.513   4.645
27980WAT     H184182   7.574   8.418   4.660
27980WAT     H284183   7.480   8.540   4.714
27981WAT      O84184   1.316   2.453   5.832
27981WAT     H184185   1.242   2.520   5.818
27981WAT     H284186   1.404   2.501   5.830
27982WAT      O84187   7.351   7.235   3.111
27982WAT     H184188   7.269   7.206   3.159
27982WAT     H284189   7.400   7.154   3.077
27983WAT      O84190   3.372   8.993   6.734
27983WAT     H184191   3.430   8.923   6.692
27983WAT     H284192   3.340   9.056   6.664
27984WAT      O84193   9.446   9.399   4.322
27984WAT     H184194   9.404   9.432   4.407
27984WAT     H284195   9.531   9.449   4.306
27985WAT      O84196   0.750   3.163   4.614
27985WAT     H184197   0.671   3.107   4.592
27985WAT     H284198   0.795   3.127   4.696
27986WAT      O84199   7.479   6.934   4.669
27986WAT     H184200   7.484   7.011   4.605
27986WAT     H284201   7.387   6.897   4.670
27987WAT      O84202   3.009   0.260   0.906
27987WAT     H184203   2.929   0.221   0.861
27987WAT     H284204   3.045   0.193   0.971
27988WAT      O84205   1.837   3.126   0.249
27988WAT     H184206   1.879   3.047   0.205
27988WAT     H284207   1.769   3.167   0.187
27989WAT      O84208   6.384   3.986   9.706
27989WAT     H184209   6.470   4.036   9.714
27989WAT     H284210   6.389   3.923   9.629
27990WAT      O84211   1.310   9.167   3.024
27990WAT     H184212   1.275   9.097   3.087
27990WAT     H284213   1.330   9.251   3.075
27991WAT      O84214   2.869   8.906   3.770
27991WAT     H184215   2.876   8.806   3.764
27991WAT     H284216   2.942   8.942   3.827
27992WAT      O84217   6.841   4.356   3.631
27992WAT     H184218   6.847   4.257   3.647
27992WAT     H284219   6.748   4.381   3.607
27993WAT      O84220   8.029   7.004   4.365
27993WAT     H184221   8.044   7.094   4.322
27993WAT     H284222   8.093   6.993   4.441
27994WAT      O84223   6.239   2.996   3.786
27994WAT     H184224   6.303   3.063   3.824
27994WAT     H284225   6.225   3.017   3.689
27995WAT      O84226   5.563   7.203   4.332
27995WAT     H184227   5.609   7.121   4.299
27995WAT     H284228   5.468   7.202   4.302
27996WAT      O84229   2.123   5.312   0.711
27996WAT     H184230   2.155   5.218   0.727
27996WAT     H284231   2.182   5.375   0.761
27997WAT      O84232   3.343   1.676   7.292
27997WAT     H184233   3.298   1.601   7.242
27997WAT     H284234   3.438   1.683   7.263
27998WAT      O84235   9.148   4.969   0.101
27998WAT     H184236   9.196   4.883   0.082
27998WAT     H284237   9.214   5.044   0.105
27999WAT      O84238   3.068   3.638   3.286
27999WAT     H184239   3.159   3.595   3.294
27999WAT     H284240   3.007   3.577   3.236
28000WAT      O84241   4.877   4.768   6.327
28000WAT     H184242   4.829   4.833   6.269
28000WAT     H284243   4.868   4.676   6.290
28001WAT      O84244   0.693   4.741   5.358
28001WAT     H184245   0.614   4.683   5.336
28001WAT     H284246   0.742   4.702   5.435
28002WAT      O84247   0.439   4.524   6.920
28002WAT     H184248   0.364   4.457   6.921
28002WAT     H284249   0.501   4.506   6.996
28003WAT      O84250   5.615   9.118   0.245
28003WAT     H184251   5.652   9.098   0.155
28003WAT     H284252   5.536   9.058   0.263
28004WAT      O84253   7.418   0.574   6.820
28004WAT     H184254   7.425   0.496   6.883
28004WAT     H284255   7.440   0.658   6.869
28005WAT      O84256   9.810   0.544   4.772
28005WAT     H184257   9.808   0.644   4.764
28005WAT     H284258   9.729   0.505   4.727
28006WAT      O84259   9.362   0.534   4.944
28006WAT     H184260   9.390   0.604   4.877
28006WAT     H284261   9.309   0.578   5.017
28007WAT      O84262   7.057   3.650   9.786
28007WAT     H184263   7.055   3.552   9.806
28007WAT     H284264   7.149   3.677   9.759
28008WAT      O84265   5.851   7.429   9.537
28008WAT     H184266   5.916   7.472   9.601
28008WAT     H284267   5.876   7.455   9.443
28009WAT      O84268   8.380   1.405   0.169
28009WAT     H184269   8.400   1.503   0.160
28009WAT     H284270   8.463   1.352   0.153
28010WAT      O84271   9.183   0.708   1.573
28010WAT     H184272   9.152   0.688   1.666
28010WAT     H284273   9.112   0.681   1.508
28011WAT      O84274   1.147   9.484   5.686
28011WAT     H184275   1.150   9.513   5.782
28011WAT     H284276   1.092   9.549   5.634
28012WAT      O84277   8.328   2.730   3.670
28012WAT     H184278   8.365   2.813   3.712
28012WAT     H284279   8.305   2.663   3.741
28013WAT      O84280   2.130   0.487   8.969
28013WAT     H184281   2.181   0.463   9.051
28013WAT     H284282   2.175   0.564   8.923
28014WAT      O84283   8.484   5.962   9.380
28014WAT     H184284   8.461   5.999   9.470
28014WAT     H284285   8.569   5.910   9.386
28015WAT      O84286   2.961   8.163   4.200
28015WAT     H184287   2.873   8.177   4.246
28015WAT     H284288   2.978   8.065   4.191
28016WAT      O84289   0.212   6.651   3.947
28016WAT     H184290   0.226   6.553   3.957
28016WAT     H284291   0.114   6.670   3.935
28017WAT      O84292   9.760   7.523   0.280
28017WAT     H184293   9.670   7.567   0.277
28017WAT     H284294   9.752   7.434   0.326
28018WAT      O84295   2.691   2.409   4.944
28018WAT     H184296   2.664   2.499   4.979
28018WAT     H284297   2.657   2.338   5.005
28019WAT      O84298   6.891   3.082   2.628
28019WAT     H184299   6.800   3.081   2.669
28019WAT     H284300   6.902   3.001   2.570
28020WAT      O84301   8.888   7.377   5.842
28020WAT     H184302   8.831   7.449   5.883
28020WAT     H284303   8.875   7.292   5.892
28021WAT      O84304   0.279   3.848   1.178
28021WAT     H184305   0.345   3.796   1.233
28021WAT     H284306   0.191   3.802   1.179
28022WAT      O84307   1.697   4.237   2.961
28022WAT     H184308   1.763   4.177   2.914
28022WAT     H284309   1.651   4.294   2.893
28023WAT      O84310   1.072   2.649   2.944
28023WAT     H184311   1.052   2.655   2.846
28023WAT     H284312   1.095   2.740   2.979
28024WAT      O84313   1.257   0.259   8.766
28024WAT     H184314   1.353   0.231   8.778
28024WAT     H284315   1.221   0.290   8.854
28025WAT      O84316   5.738   7.996   6.618
28025WAT     H184317   5.794   8.043   6.686
28025WAT     H284318   5.659   7.954   6.663
28026WAT      O84319   4.309   4.223   2.786
28026WAT     H184320   4.363   4.281   2.724
28026WAT     H284321   4.367   4.188   2.858
28027WAT      O84322   3.401   4.804   9.190
28027WAT     H184323   3.466   4.838   9.259
28027WAT     H284324   3.385   4.707   9.204
28028WAT      O84325   3.958   3.289   2.384
28028WAT     H184326   3.928   3.194   2.373
28028WAT     H284327   3.986   3.326   2.295
28029WAT      O84328   2.237   8.691   8.463
28029WAT     H184329   2.256   8.615   8.401
28029WAT     H284330   2.139   8.697   8.479
28030WAT      O84331   6.028   0.513   6.392
28030WAT     H184332   6.088   0.442   6.429
28030WAT     H284333   6.077   0.566   6.323
28031WAT      O84334   9.014   5.781   8.485
28031WAT     H184335   9.050   5.842   8.414
28031WAT     H284336   9.021   5.826   8.574
28032WAT      O84337   4.060   1.856   5.486
28032WAT     H184338   4.154   1.851   5.452
28032WAT     H284339   4.030   1.951   5.487
28033WAT      O84340   5.923   1.340   9.424
28033WAT     H184341   5.858   1.274   9.461
28033WAT     H284342   6.016   1.309   9.443
28034WAT      O84343   2.608   4.168   2.978
28034WAT     H184344   2.690   4.170   3.035
28034WAT     H284345   2.538   4.113   3.022
28035WAT      O84346   2.173   7.772   7.395
28035WAT     H184347   2.154   7.674   7.388
28035WAT     H284348   2.264   7.790   7.357
28036WAT      O84349   6.953   8.982   9.337
28036WAT     H184350   6.893   8.916   9.292
28036WAT     H284351   6.984   8.945   9.425
28037WAT      O84352   0.932   7.093   7.569
28037WAT     H184353   0.887   7.020   7.620
28037WAT     H284354   1.007   7.054   7.516
28038WAT      O84355   5.854   9.538   7.826
28038WAT     H184356   5.901   9.449   7.828
28038WAT     H284357   5.798   9.544   7.743
28039WAT      O84358   3.995   0.111   5.805
28039WAT     H184359   3.997   0.195   5.858
28039WAT     H284360   3.900   0.085   5.788
28040WAT      O84361   7.374   2.459   0.703
28040WAT     H184362   7.317   2.536   0.729
28040WAT     H284363   7.334   2.413   0.624
28041WAT      O84364   5.353   6.592   6.620
28041WAT     H184365   5.398   6.573   6.532
28041WAT     H284366   5.308   6.680   6.615
28042WAT      O84367   9.158   7.676   7.481
28042WAT     H184368   9.064   7.708   7.465
28042WAT     H284369   9.198   7.647   7.394
28043WAT      O84370   8.432   7.052   3.137
28043WAT     H184371   8.434   7.148   3.111
28043WAT     H284372   8.448   6.995   3.057
28044WAT      O84373   5.197   7.900   2.669
28044WAT     H184374   5.284   7.853   2.687
28044WAT     H284375   5.122   7.848   2.709
28045WAT      O84376   6.495   1.083   9.068
28045WAT     H184377   6.528   1.175   9.050
28045WAT     H284378   6.412   1.066   9.014
28046WAT      O84379   4.446   1.897   7.434
28046WAT     H184380   4.409   1.805   7.447
28046WAT     H284381   4.496   1.900   7.347
28047WAT      O84382   5.581   0.687   1.673
28047WAT     H184383   5.619   0.666   1.763
28047WAT     H284384   5.625   0.768   1.635
28048WAT      O84385   9.262   2.612   7.603
28048WAT     H184386   9.328   2.546   7.640
28048WAT     H284387   9.209   2.568   7.530
28049WAT      O84388   7.532   9.681   8.818
28049WAT     H184389   7.627   9.652   8.806
28049WAT     H284390   7.517   9.704   8.915
28050WAT      O84391   4.854   2.256   4.258
28050WAT     H184392   4.769   2.306   4.244
28050WAT     H284393   4.892   2.230   4.170
28051WAT      O84394   5.178   7.238   0.875
28051WAT     H184395   5.126   7.319   0.846
28051WAT     H284396   5.241   7.263   0.949
28052WAT      O84397   3.356   1.346   4.050
28052WAT     H184398   3.364   1.250   4.077
28052WAT     H284399   3.381   1.355   3.954
28053WAT      O84400   1.044   9.502   0.305
28053WAT     H184401   1.015   9.589   0.265
28053WAT     H284402   1.053   9.434   0.233
28054WAT      O84403   9.432   4.562   2.484
28054WAT     H184404   9.448   4.614   2.567
28054WAT     H284405   9.378   4.480   2.505
28055WAT      O84406   1.488   8.338   9.571
28055WAT     H184407   1.503   8.411   9.503
28055WAT     H284408   1.512   8.372   9.662
28056WAT      O84409   1.811   5.299   3.594
28056WAT     H184410   1.756   5.232   3.644
28056WAT     H284411   1.809   5.277   3.496
28057WAT      O84412   0.346   5.844   2.990
28057WAT     H184413   0.273   5.797   2.940
28057WAT     H284414   0.432   5.834   2.941
28058WAT      O84415   3.144   6.372   1.670
28058WAT     H184416   3.173   6.333   1.582
28058WAT     H284417   3.081   6.309   1.715
28059WAT      O84418   0.970   5.915   9.046
28059WAT     H184419   1.022   5.894   8.963
28059WAT     H284420   0.877   5.942   9.021
28060WAT      O84421   7.481   4.349   0.932
28060WAT     H184422   7.476   4.250   0.946
28060WAT     H284423   7.425   4.374   0.852
28061WAT      O84424   8.738   1.272   7.323
28061WAT     H184425   8.705   1.294   7.231
28061WAT     H284426   8.696   1.186   7.353
28062WAT      O84427   3.642   4.066   4.364
28062WAT     H184428   3.655   3.968   4.378
28062WAT     H284429   3.562   4.081   4.306
28063WAT      O84430   4.232   9.224   8.697
28063WAT     H184431   4.182   9.285   8.757
28063WAT     H284432   4.172   9.149   8.668
28064WAT      O84433   0.445   0.308   0.451
28064WAT     H184434   0.433   0.306   0.351
28064WAT     H284435   0.366   0.265   0.495
28065WAT      O84436   2.408   4.172   9.330
28065WAT     H184437   2.503   4.162   9.300
28065WAT     H284438   2.403   4.159   9.429
28066WAT      O84439   1.526   8.564   4.670
28066WAT     H184440   1.460   8.572   4.595
28066WAT     H284441   1.588   8.642   4.669
28067WAT      O84442   7.135   5.512   4.229
28067WAT     H184443   7.165   5.508   4.133
28067WAT     H284444   7.215   5.508   4.289
28068WAT      O84445   1.508   2.315   6.631
28068WAT     H184446   1.436   2.381   6.608
28068WAT     H284447   1.567   2.354   6.701
28069WAT      O84448   4.783   2.703   7.046
28069WAT     H184449   4.882   2.716   7.036
28069WAT     H284450   4.739   2.714   6.957
28070WAT      O84451   0.651   0.156   7.107
28070WAT     H184452   0.594   0.150   7.189
28070WAT     H284453   0.650   0.250   7.072
28071WAT      O84454   9.544   6.667   3.921
28071WAT     H184455   9.637   6.688   3.948
28071WAT     H284456   9.512   6.585   3.969
28072WAT      O84457   5.045   2.801   1.997
28072WAT     H184458   5.092   2.830   2.081
28072WAT     H284459   5.078   2.856   1.920
28073WAT      O84460   3.848   4.081   6.217
28073WAT     H184461   3.856   4.126   6.306
28073WAT     H284462   3.916   4.120   6.154
28074WAT      O84463   6.489   5.222   3.787
28074WAT     H184464   6.439   5.308   3.785
28074WAT     H284465   6.451   5.159   3.719
28075WAT      O84466   8.833   7.848   4.567
28075WAT     H184467   8.820   7.749   4.570
28075WAT     H284468   8.744   7.894   4.578
28076WAT      O84469   6.492   8.226   5.525
28076WAT     H184470   6.496   8.290   5.448
28076WAT     H284471   6.558   8.254   5.595
28077WAT      O84472   9.467   8.812   7.456
28077WAT     H184473   9.376   8.852   7.460
28077WAT     H284474   9.477   8.744   7.528
28078WAT      O84475   4.862   9.271   4.412
28078WAT     H184476   4.944   9.313   4.372
28078WAT     H284477   4.866   9.278   4.512
28079WAT      O84478   5.936   6.704   1.475
28079WAT     H184479   5.855   6.759   1.459
28079WAT     H284480   5.910   6.618   1.519
28080WAT      O84481   4.616   6.545   7.633
28080WAT     H184482   4.603   6.447   7.651
28080WAT     H284483   4.703   6.558   7.586
28081WAT      O84484   1.363   9.738   3.058
28081WAT     H184485   1.402   9.684   2.983
28081WAT     H284486   1.298   9.804   3.021
28082WAT      O84487   2.351   7.998   5.966
28082WAT     H184488   2.368   7.903   5.940
28082WAT     H284489   2.282   8.000   6.039
28083WAT      O84490   6.123   9.830   1.293
28083WAT     H184491   6.168   9.742   1.308
28083WAT     H284492   6.190   9.904   1.302
28084WAT      O84493   7.118   4.263   4.455
28084WAT     H184494   7.112   4.328   4.530
28084WAT     H284495   7.174   4.185   4.483
28085WAT      O84496   8.303   0.599   7.316
28085WAT     H184497   8.233   0.670   7.330
28085WAT     H284498   8.260   0.509   7.318
28086WAT      O84499   6.356   4.921   6.619
28086WAT     H184500   6.282   4.986   6.637
28086WAT     H284501   6.330   4.831   6.655
28087WAT      O84502   9.036   5.002   1.615
28087WAT     H184503   8.993   5.091   1.599
28087WAT     H284504   9.134   5.008   1.598
28088WAT      O84505   2.319   1.965   5.437
28088WAT     H184506   2.400   1.908   5.421
28088WAT     H284507   2.348   2.058   5.458
28089WAT      O84508   2.042   8.847   5.417
28089WAT     H184509   2.100   8.928   5.408
28089WAT     H284510   1.946   8.876   5.420
28090WAT      O84511   1.245   8.872   7.170
28090WAT     H184512   1.187   8.948   7.201
28090WAT     H284513   1.314   8.853   7.239
28091WAT      O84514   9.591   1.793   5.688
28091WAT     H184515   9.671   1.816   5.632
28091WAT     H284516   9.556   1.704   5.660
28092WAT      O84517   0.534   3.580   7.318
28092WAT     H184518   0.634   3.590   7.318
28092WAT     H284519   0.493   3.654   7.370
28093WAT      O84520   3.374   7.626   6.058
28093WAT     H184521   3.451   7.583   6.105
28093WAT     H284522   3.290   7.574   6.077
28094WAT      O84523   2.314   6.537   3.373
28094WAT     H184524   2.343   6.559   3.280
28094WAT     H284525   2.266   6.616   3.412
28095WAT      O84526   3.149   0.032   1.091
28095WAT     H184527   3.219   0.095   1.124
28095WAT     H284528   3.105  -0.013   1.169
28096WAT      O84529   3.885   4.087   7.831
28096WAT     H184530   3.971   4.041   7.853
28096WAT     H284531   3.880   4.174   7.880
28097WAT      O84532   6.101   7.318   2.337
28097WAT     H184533   6.131   7.374   2.259
28097WAT     H284534   6.020   7.360   2.378
28098WAT      O84535   0.779   1.626   1.464
28098WAT     H184536   0.809   1.651   1.372
28098WAT     H284537   0.797   1.528   1.480
28099WAT      O84538   2.212   4.629   5.264
28099WAT     H184539   2.113   4.636   5.278
28099WAT     H284540   2.258   4.625   5.352
28100WAT      O84541   7.358   8.269   9.757
28100WAT     H184542   7.458   8.262   9.758
28100WAT     H284543   7.330   8.342   9.695
28101WAT      O84544   2.942   4.954   2.911
28101WAT     H184545   2.900   4.942   3.001
28101WAT     H284546   3.017   4.888   2.900
28102WAT      O84547   5.793   5.862   4.861
28102WAT     H184548   5.849   5.848   4.779
28102WAT     H284549   5.841   5.921   4.925
28103WAT      O84550   9.346   5.680   8.792
28103WAT     H184551   9.270   5.615   8.783
28103WAT     H284552   9.312   5.772   8.776
28104WAT      O84553   4.791   7.917   5.895
28104WAT     H184554   4.718   7.874   5.948
28104WAT     H284555   4.767   7.914   5.798
28105WAT      O84556   4.241   2.681   6.724
28105WAT     H184557   4.266   2.774   6.695
28105WAT     H284558   4.307   2.616   6.686
28106WAT      O84559   6.960   5.695   6.792
28106WAT     H184560   6.965   5.793   6.770
28106WAT     H284561   6.902   5.682   6.872
28107WAT      O84562   8.428   9.493   2.206
28107WAT     H184563   8.369   9.460   2.132
28107WAT     H284564   8.509   9.536   2.167
28108WAT      O84565   6.179   5.283   7.040
28108WAT     H184566   6.149   5.263   7.133
28108WAT     H284567   6.258   5.225   7.017
28109WAT      O84568   3.453   1.472   9.856
28109WAT     H184569   3.365   1.428   9.838
28109WAT     H284570   3.452   1.512   9.948
28110WAT      O84571   8.664   6.540   0.705
28110WAT     H184572   8.753   6.574   0.735
28110WAT     H284573   8.631   6.472   0.770
28111WAT      O84574   9.731   5.800   7.771
28111WAT     H184575   9.733   5.730   7.842
28111WAT     H284576   9.653   5.862   7.787
28112WAT      O84577   9.803   6.824   0.738
28112WAT     H184578   9.853   6.892   0.792
28112WAT     H284579   9.708   6.820   0.769
28113WAT      O84580   5.374   4.951   6.442
28113WAT     H184581   5.467   4.915   6.436
28113WAT     H284582   5.316   4.885   6.489
28114WAT      O84583   7.438   3.298   8.566
28114WAT     H184584   7.399   3.288   8.657
28114WAT     H284585   7.369   3.275   8.497
28115WAT      O84586   8.509   6.960   0.652
28115WAT     H184587   8.433   7.025   0.653
28115WAT     H284588   8.544   6.951   0.559
28116WAT      O84589   3.869   6.420   5.465
28116WAT     H184590   3.925   6.491   5.420
28116WAT     H284591   3.780   6.415   5.420
28117WAT      O84592   3.067   2.552   5.938
28117WAT     H184593   3.124   2.546   6.021
28117WAT     H284594   3.078   2.469   5.884
28118WAT      O84595   2.707   2.783   4.566
28118WAT     H184596   2.729   2.823   4.655
28118WAT     H284597   2.729   2.849   4.494
28119WAT      O84598   6.898   4.858   4.692
28119WAT     H184599   6.955   4.871   4.773
28119WAT     H284600   6.895   4.944   4.639
28120WAT      O84601   2.498   9.193   3.666
28120WAT     H184602   2.527   9.260   3.734
28120WAT     H284603   2.579   9.147   3.629
28121WAT      O84604   8.534   0.424   7.945
28121WAT     H184605   8.542   0.327   7.966
28121WAT     H284606   8.533   0.437   7.846
28122WAT      O84607   5.616   1.248   0.907
28122WAT     H184608   5.595   1.334   0.954
28122WAT     H284609   5.644   1.179   0.975
28123WAT      O84610   9.700   1.987   1.472
28123WAT     H184611   9.649   2.066   1.508
28123WAT     H284612   9.784   2.019   1.428
28124WAT      O84613   8.769   9.672   9.012
28124WAT     H184614   8.693   9.640   8.956
28124WAT     H284615   8.736   9.742   9.076
28125WAT      O84616   5.191   6.561   3.918
28125WAT     H184617   5.239   6.617   3.986
28125WAT     H284618   5.251   6.488   3.886
28126WAT      O84619   0.233   2.739   9.041
28126WAT     H184620   0.208   2.824   8.995
28126WAT     H284621   0.173   2.665   9.011
28127WAT      O84622   3.878   5.872   2.881
28127WAT     H184623   3.967   5.859   2.837
28127WAT     H284624   3.864   5.969   2.899
28128WAT      O84625   9.564   1.003   4.147
28128WAT     H184626   9.516   1.044   4.225
28128WAT     H284627   9.600   1.075   4.089
28129WAT      O84628   0.113   5.620   9.499
28129WAT     H184629   0.148   5.621   9.593
28129WAT     H284630   0.190   5.608   9.436
28130WAT      O84631   6.166   5.521   6.297
28130WAT     H184632   6.099   5.591   6.319
28130WAT     H284633   6.257   5.552   6.323
28131WAT      O84634   2.013   4.751   8.629
28131WAT     H184635   1.971   4.730   8.717
28131WAT     H284636   2.101   4.797   8.644
28132WAT      O84637   1.671   4.210   2.565
28132WAT     H184638   1.748   4.264   2.530
28132WAT     H284639   1.629   4.258   2.642
28133WAT      O84640   3.364   7.677   7.122
28133WAT     H184641   3.444   7.617   7.120
28133WAT     H284642   3.284   7.626   7.089
28134WAT      O84643   5.856   6.923   5.392
28134WAT     H184644   5.870   6.848   5.456
28134WAT     H284645   5.945   6.958   5.361
28135WAT      O84646   0.315   8.610   6.609
28135WAT     H184647   0.230   8.583   6.565
28135WAT     H284648   0.355   8.687   6.558
28136WAT      O84649   6.314   8.787   7.917
28136WAT     H184650   6.306   8.827   8.008
28136WAT     H284651   6.232   8.809   7.864
28137WAT      O84652   1.633   2.494   4.143
28137WAT     H184653   1.569   2.451   4.079
28137WAT     H284654   1.583   2.552   4.207
28138WAT      O84655   7.972   8.737   2.235
28138WAT     H184656   7.928   8.788   2.161
28138WAT     H284657   7.902   8.698   2.295
28139WAT      O84658   1.786   2.399   9.795
28139WAT     H184659   1.691   2.428   9.794
28139WAT     H284660   1.791   2.299   9.801
28140WAT      O84661   6.537   8.953   3.532
28140WAT     H184662   6.475   8.955   3.453
28140WAT     H284663   6.532   8.864   3.577
28141WAT      O84664   2.658   1.083   2.417
28141WAT     H184665   2.673   1.137   2.500
28141WAT     H284666   2.579   1.023   2.431
28142WAT      O84667   5.863   1.248   4.287
28142WAT     H184668   5.950   1.292   4.306
28142WAT     H284669   5.801   1.263   4.365
28143WAT      O84670   1.694   6.896   8.194
28143WAT     H184671   1.707   6.987   8.156
28143WAT     H284672   1.626   6.847   8.140
28144WAT      O84673   8.139   1.638   3.810
28144WAT     H184674   8.136   1.570   3.884
28144WAT     H284675   8.046   1.651   3.774
28145WAT      O84676   5.327   3.235   0.661
28145WAT     H184677   5.316   3.270   0.568
28145WAT     H284678   5.243   3.187   0.688
28146WAT      O84679   6.446   8.242   1.903
28146WAT     H184680   6.381   8.175   1.937
28146WAT     H284681   6.410   8.285   1.821
28147WAT      O84682   5.174   3.049   7.965
28147WAT     H184683   5.254   3.108   7.972
28147WAT     H284684   5.202   2.953   7.974
28148WAT      O84685   4.857   7.984   0.327
28148WAT     H184686   4.763   7.971   0.293
28148WAT     H284687   4.907   7.898   0.320
28149WAT      O84688   8.902   3.662   4.888
28149WAT     H184689   8.992   3.645   4.850
28149WAT     H284690   8.870   3.752   4.858
28150WAT      O84691   8.030   2.417   2.000
28150WAT     H184692   8.102   2.483   1.977
28150WAT     H284693   7.977   2.396   1.918
28151WAT      O84694   8.771   0.501   7.142
28151WAT     H184695   8.831   0.437   7.094
28151WAT     H284696   8.823   0.581   7.170
28152WAT      O84697   5.630   2.877   2.850
28152WAT     H184698   5.588   2.787   2.837
28152WAT     H284699   5.639   2.923   2.761
28153WAT      O84700   1.654   5.132   3.738
28153WAT     H184701   1.684   5.125   3.833
28153WAT     H284702   1.556   5.111   3.733
28154WAT      O84703   3.221   5.945   1.017
28154WAT     H184704   3.317   5.916   1.026
28154WAT     H284705   3.180   5.898   0.939
28155WAT      O84706   7.204   0.778   0.487
28155WAT     H184707   7.128   0.718   0.510
28155WAT     H284708   7.290   0.728   0.498
28156WAT      O84709   5.617   3.137   0.211
28156WAT     H184710   5.643   3.233   0.217
28156WAT     H284711   5.686   3.080   0.255
28157WAT      O84712   5.110   7.144   8.631
28157WAT     H184713   5.079   7.059   8.588
28157WAT     H284714   5.202   7.131   8.668
28158WAT      O84715   0.729   0.380   4.530
28158WAT     H184716   0.717   0.367   4.629
28158WAT     H284717   0.647   0.349   4.482
28159WAT      O84718   7.864   4.233   9.767
28159WAT     H184719   7.892   4.161   9.704
28159WAT     H284720   7.939   4.255   9.828
28160WAT      O84721   6.825   3.388   0.857
28160WAT     H184722   6.861   3.363   0.768
28160WAT     H284723   6.865   3.328   0.927
28161WAT      O84724   2.771   3.804   2.799
28161WAT     H184725   2.815   3.887   2.835
28161WAT     H284726   2.831   3.763   2.730
28162WAT      O84727   7.593   7.278   3.327
28162WAT     H184728   7.587   7.179   3.314
28162WAT     H284729   7.675   7.300   3.380
28163WAT      O84730   1.753   2.225   3.275
28163WAT     H184731   1.775   2.196   3.182
28163WAT     H284732   1.724   2.146   3.329
28164WAT      O84733   3.588   2.381   9.274
28164WAT     H184734   3.656   2.375   9.201
28164WAT     H284735   3.618   2.325   9.351
28165WAT      O84736   1.305   8.399   5.748
28165WAT     H184737   1.224   8.357   5.788
28165WAT     H284738   1.281   8.488   5.710
28166WAT      O84739   3.812   0.774   5.927
28166WAT     H184740   3.754   0.711   5.875
28166WAT     H284741   3.902   0.732   5.941
28167WAT      O84742   8.628   2.922   5.172
28167WAT     H184743   8.638   2.850   5.104
28167WAT     H284744   8.690   2.905   5.249
28168WAT      O84745   4.320   8.107   1.085
28168WAT     H184746   4.307   8.138   0.991
28168WAT     H284747   4.398   8.044   1.089
28169WAT      O84748   6.076   2.427   8.803
28169WAT     H184749   5.980   2.455   8.805
28169WAT     H284750   6.082   2.329   8.784
28170WAT      O84751   2.919   7.111   0.219
28170WAT     H184752   3.000   7.079   0.169
28170WAT     H284753   2.938   7.109   0.317
28171WAT      O84754   5.674   9.577   5.871
28171WAT     H184755   5.685   9.584   5.772
28171WAT     H284756   5.745   9.517   5.908
28172WAT      O84757   3.035   9.668   6.199
28172WAT     H184758   3.106   9.653   6.268
28172WAT     H284759   2.966   9.596   6.206
28173WAT      O84760   8.584   8.279   2.366
28173WAT     H184761   8.533   8.210   2.313
28173WAT     H284762   8.671   8.298   2.321
28174WAT      O84763   2.074   5.587   2.412
28174WAT     H184764   1.997   5.648   2.392
28174WAT     H284765   2.042   5.492   2.410
28175WAT      O84766   7.025   9.721   9.723
28175WAT     H184767   7.116   9.722   9.680
28175WAT     H284768   6.955   9.735   9.653
28176WAT      O84769   9.275   6.114   2.702
28176WAT     H184770   9.338   6.043   2.671
28176WAT     H284771   9.236   6.160   2.622
28177WAT      O84772   1.473   2.656   0.140
28177WAT     H184773   1.522   2.716   0.077
28177WAT     H284774   1.522   2.652   0.227
28178WAT      O84775   4.622   2.005   6.230
28178WAT     H184776   4.592   2.071   6.299
28178WAT     H284777   4.543   1.968   6.182
28179WAT      O84778   9.139   0.525   1.175
28179WAT     H184779   9.165   0.428   1.175
28179WAT     H284780   9.173   0.568   1.091
28180WAT      O84781   7.783   3.774   3.388
28180WAT     H184782   7.845   3.844   3.423
28180WAT     H284783   7.833   3.710   3.330
28181WAT      O84784   4.795   1.176   5.680
28181WAT     H184785   4.821   1.141   5.590
28181WAT     H284786   4.832   1.116   5.751
28182WAT      O84787   9.812   6.564   4.628
28182WAT     H184788   9.906   6.532   4.629
28182WAT     H284789   9.769   6.540   4.540
28183WAT      O84790   5.622   5.185   3.195
28183WAT     H184791   5.561   5.220   3.124
28183WAT     H284792   5.716   5.208   3.172
28184WAT      O84793   4.364   2.613   3.009
28184WAT     H184794   4.403   2.705   3.006
28184WAT     H284795   4.269   2.618   3.040
28185WAT      O84796   8.583   8.091   1.396
28185WAT     H184797   8.528   8.148   1.458
28185WAT     H284798   8.677   8.125   1.394
28186WAT      O84799   7.078   7.038   4.122
28186WAT     H184800   7.103   6.966   4.056
28186WAT     H284801   6.991   7.016   4.164
28187WAT      O84802   8.100   2.669   9.539
28187WAT     H184803   8.127   2.576   9.512
28187WAT     H284804   8.172   2.733   9.511
28188WAT      O84805   4.331   7.387   0.635
28188WAT     H184806   4.285   7.411   0.550
28188WAT     H284807   4.329   7.288   0.647
28189WAT      O84808   3.057   5.511   5.698
28189WAT     H184809   3.049   5.522   5.797
28189WAT     H284810   3.120   5.579   5.661
28190WAT      O84811   8.892   8.842   8.087
28190WAT     H184812   8.808   8.874   8.043
28190WAT     H284813   8.873   8.818   8.183
28191WAT      O84814   8.648   1.434   6.124
28191WAT     H184815   8.583   1.358   6.123
28191WAT     H284816   8.729   1.410   6.070
28192WAT      O84817   8.045   5.202   8.552
28192WAT     H184818   8.094   5.209   8.466
28192WAT     H284819   8.108   5.217   8.628
28193WAT      O84820   1.607   8.290   8.660
28193WAT     H184821   1.626   8.197   8.692
28193WAT     H284822   1.683   8.322   8.604
28194WAT      O84823   7.602   2.853   4.476
28194WAT     H184824   7.624   2.859   4.379
28194WAT     H284825   7.594   2.757   4.502
28195WAT      O84826   1.292   1.963   9.357
28195WAT     H184827   1.235   2.043   9.376
28195WAT     H284828   1.318   1.964   9.260
28196WAT      O84829   9.029   0.998   3.571
28196WAT     H184830   9.047   1.093   3.596
28196WAT     H284831   9.024   0.943   3.654
28197WAT      O84832   6.628   5.254   7.490
28197WAT     H184833   6.599   5.317   7.562
28197WAT     H284834   6.632   5.161   7.526
28198WAT      O84835   5.707   1.426   3.902
28198WAT     H184836   5.648   1.372   3.962
28198WAT     H284837   5.709   1.521   3.934
28199WAT      O84838   5.715   0.567   7.468
28199WAT     H184839   5.655   0.605   7.398
28199WAT     H284840   5.685   0.475   7.492
28200WAT      O84841   9.416   5.120   6.700
28200WAT     H184842   9.446   5.216   6.699
28200WAT     H284843   9.421   5.083   6.607
28201WAT      O84844   7.422   6.258   7.981
28201WAT     H184845   7.422   6.190   7.908
28201WAT     H284846   7.387   6.217   8.066
28202WAT      O84847   3.145   2.850   7.674
28202WAT     H184848   3.066   2.797   7.704
28202WAT     H284849   3.220   2.838   7.740
28203WAT      O84850   7.189   3.549   2.654
28203WAT     H184851   7.217   3.491   2.730
28203WAT     H284852   7.267   3.564   2.594
28204WAT      O84853   1.894   2.010   8.155
28204WAT     H184854   1.927   1.918   8.173
28204WAT     H284855   1.898   2.028   8.056
28205WAT      O84856   7.589   1.145   6.098
28205WAT     H184857   7.643   1.214   6.048
28205WAT     H284858   7.577   1.064   6.040
28206WAT      O84859   2.695   6.831   2.136
28206WAT     H184860   2.641   6.762   2.184
28206WAT     H284861   2.687   6.817   2.037
28207WAT      O84862   2.295   3.540   1.702
28207WAT     H184863   2.304   3.630   1.744
28207WAT     H284864   2.206   3.501   1.725
28208WAT      O84865   5.599   1.373   3.541
28208WAT     H184866   5.527   1.420   3.592
28208WAT     H284867   5.567   1.350   3.449
28209WAT      O84868   0.955   8.806   8.879
28209WAT     H184869   0.987   8.779   8.789
28209WAT     H284870   0.977   8.735   8.945
28210WAT      O84871   3.588   4.294   6.787
28210WAT     H184872   3.551   4.262   6.874
28210WAT     H284873   3.517   4.295   6.718
28211WAT      O84874   5.942   9.144   0.163
28211WAT     H184875   6.040   9.122   0.160
28211WAT     H284876   5.889   9.060   0.167
28212WAT      O84877   9.099   9.233   7.870
28212WAT     H184878   9.073   9.234   7.967
28212WAT     H284879   9.154   9.152   7.851
28213WAT      O84880   5.635   1.795   1.801
28213WAT     H184881   5.605   1.830   1.713
28213WAT     H284882   5.625   1.696   1.803
28214WAT      O84883   2.787   4.359   1.440
28214WAT     H184884   2.692   4.328   1.451
28214WAT     H284885   2.849   4.293   1.483
28215WAT      O84886   6.653   9.299   2.876
28215WAT     H184887   6.729   9.306   2.811
28215WAT     H284888   6.600   9.217   2.855
28216WAT      O84889   2.459   1.127   3.970
28216WAT     H184890   2.392   1.080   3.912
28216WAT     H284891   2.416   1.208   4.010
28217WAT      O84892   7.792   8.094   9.828
28217WAT     H184893   7.852   8.175   9.831
28217WAT     H284894   7.705   8.115   9.873
28218WAT      O84895   6.160   1.911   5.469
28218WAT     H184896   6.095   1.897   5.395
28218WAT     H284897   6.251   1.930   5.431
28219WAT      O84898   4.153   2.601   3.695
28219WAT     H184899   4.175   2.615   3.791
28219WAT     H284900   4.183   2.510   3.667
28220WAT      O84901   0.634   7.209   9.190
28220WAT     H184902   0.644   7.109   9.194
28220WAT     H284903   0.639   7.239   9.095
28221WAT      O84904   1.122   7.491   0.626
28221WAT     H184905   1.122   7.391   0.624
28221WAT     H284906   1.043   7.524   0.678
28222WAT      O84907   4.562   1.464   5.022
28222WAT     H184908   4.495   1.390   5.014
28222WAT     H284909   4.631   1.439   5.090
28223WAT      O84910   9.680   3.998   3.036
28223WAT     H184911   9.591   3.959   3.012
28223WAT     H284912   9.703   4.070   2.971
28224WAT      O84913   1.841   6.997   4.765
28224WAT     H184914   1.854   6.986   4.863
28224WAT     H284915   1.915   6.951   4.716
28225WAT      O84916   1.524   4.544   7.330
28225WAT     H184917   1.576   4.474   7.379
28225WAT     H284918   1.497   4.616   7.394
28226WAT      O84919   3.882   8.667   2.331
28226WAT     H184920   3.837   8.608   2.264
28226WAT     H284921   3.967   8.623   2.363
28227WAT      O84922   1.923   5.526   4.978
28227WAT     H184923   1.991   5.594   4.951
28227WAT     H284924   1.870   5.499   4.898
28228WAT      O84925   6.092   3.702   4.619
28228WAT     H184926   6.117   3.652   4.702
28228WAT     H284927   6.035   3.644   4.561
28229WAT      O84928   9.253   8.340   1.034
28229WAT     H184929   9.244   8.430   0.991
28229WAT     H284930   9.162   8.303   1.052
28230WAT      O84931   1.213   3.903   8.747
28230WAT     H184932   1.175   3.831   8.690
28230WAT     H284933   1.144   3.974   8.762
28231WAT      O84934   2.976   1.087   3.605
28231WAT     H184935   2.999   1.119   3.697
28231WAT     H284936   3.029   1.139   3.538
28232WAT      O84937   1.997   2.134   9.366
28232WAT     H184938   1.996   2.130   9.266
28232WAT     H284939   1.904   2.153   9.399
28233WAT      O84940   2.897   0.628   8.167
28233WAT     H184941   2.913   0.561   8.094
28233WAT     H284942   2.946   0.600   8.249
28234WAT      O84943   5.414   4.304   7.716
28234WAT     H184944   5.390   4.400   7.722
28234WAT     H284945   5.504   4.294   7.672
28235WAT      O84946   0.153   3.442   8.118
28235WAT     H184947   0.137   3.523   8.062
28235WAT     H284948   0.235   3.395   8.086
28236WAT      O84949   8.914   0.464   5.216
28236WAT     H184950   8.868   0.543   5.175
28236WAT     H284951   8.862   0.433   5.296
28237WAT      O84952   4.705   2.984   8.415
28237WAT     H184953   4.723   3.028   8.327
28237WAT     H284954   4.680   3.053   8.483
28238WAT      O84955   1.403   9.325   6.702
28238WAT     H184956   1.448   9.311   6.614
28238WAT     H284957   1.472   9.328   6.775
28239WAT      O84958   7.567   8.542   8.594
28239WAT     H184959   7.472   8.562   8.616
28239WAT     H284960   7.624   8.559   8.675
28240WAT      O84961   6.128   0.156   2.186
28240WAT     H184962   6.159   0.109   2.104
28240WAT     H284963   6.135   0.095   2.265
28241WAT      O84964   1.652   6.711   4.079
28241WAT     H184965   1.751   6.709   4.084
28241WAT     H284966   1.614   6.648   4.147
28242WAT      O84967   1.203   2.479   4.208
28242WAT     H184968   1.224   2.422   4.288
28242WAT     H284969   1.206   2.575   4.234
28243WAT      O84970   4.464   7.825   8.340
28243WAT     H184971   4.555   7.835   8.300
28243WAT     H284972   4.422   7.916   8.351
28244WAT      O84973   6.229   8.117   8.317
28244WAT     H184974   6.142   8.166   8.319
28244WAT     H284975   6.232   8.057   8.238
28245WAT      O84976   0.071   2.273   9.496
28245WAT     H184977  -0.005   2.339   9.494
28245WAT     H284978   0.155   2.321   9.522
28246WAT      O84979   9.600   2.362   0.827
28246WAT     H184980   9.611   2.380   0.729
28246WAT     H284981   9.529   2.422   0.864
28247WAT      O84982   6.895   7.430   9.018
28247WAT     H184983   6.943   7.342   9.010
28247WAT     H284984   6.927   7.478   9.099
28248WAT      O84985   4.788   8.742   3.479
28248WAT     H184986   4.775   8.676   3.553
28248WAT     H284987   4.702   8.755   3.431
28249WAT      O84988   9.886   6.246   5.270
28249WAT     H184989   9.944   6.249   5.351
28249WAT     H284990   9.848   6.337   5.253
28250WAT      O84991   8.251   3.240   0.614
28250WAT     H184992   8.164   3.191   0.613
28250WAT     H284993   8.293   3.232   0.704
28251WAT      O84994   7.217   0.882   1.368
28251WAT     H184995   7.260   0.891   1.458
28251WAT     H284996   7.287   0.890   1.297
28252WAT      O84997   4.415   0.205   8.809
28252WAT     H184998   4.512   0.182   8.819
28252WAT     H284999   4.396   0.224   8.712
28253WAT      O85000   0.250   7.466   0.143
28253WAT     H185001   0.262   7.447   0.241
28253WAT     H285002   0.160   7.434   0.114
28254WAT      O85003   1.502   0.228   8.913
28254WAT     H185004   1.553   0.143   8.923
28254WAT     H285005   1.499   0.276   9.001
28255WAT      O85006   3.081   3.223   8.862
28255WAT     H185007   3.001   3.167   8.882
28255WAT     H285008   3.109   3.272   8.945
28256WAT      O85009   4.808   5.269   7.897
28256WAT     H185010   4.845   5.176   7.897
28256WAT     H285011   4.737   5.277   7.966
28257WAT      O85012   2.299   3.509   2.250
28257WAT     H185013   2.357   3.430   2.227
28257WAT     H285014   2.333   3.590   2.203
28258WAT      O85015   1.409   4.765   9.159
28258WAT     H185016   1.311   4.771   9.176
28258WAT     H285017   1.453   4.851   9.185
28259WAT      O85018   0.918   3.208   8.167
28259WAT     H185019   0.843   3.162   8.215
28259WAT     H285020   0.892   3.303   8.148
28260WAT      O85021   6.798   8.874   7.458
28260WAT     H185022   6.726   8.906   7.396
28260WAT     H285023   6.766   8.792   7.506
28261WAT      O85024   0.628   4.996   2.573
28261WAT     H185025   0.687   5.076   2.586
28261WAT     H285026   0.546   5.007   2.628
28262WAT      O85027   9.068   5.075   2.065
28262WAT     H185028   9.148   5.120   2.027
28262WAT     H285029   9.026   5.134   2.134
28263WAT      O85030   8.037   5.724   4.746
28263WAT     H185031   8.069   5.641   4.699
28263WAT     H285032   7.939   5.715   4.765
28264WAT      O85033   3.622   9.405   0.882
28264WAT     H185034   3.709   9.430   0.925
28264WAT     H285035   3.613   9.305   0.881
28265WAT      O85036   7.823   8.535   9.403
28265WAT     H185037   7.869   8.475   9.468
28265WAT     H285038   7.890   8.574   9.340
28266WAT      O85039   6.943   4.406   1.869
28266WAT     H185040   7.032   4.390   1.826
28266WAT     H285041   6.886   4.325   1.860
28267WAT      O85042   1.284   7.919   6.850
28267WAT     H185043   1.300   8.018   6.846
28267WAT     H285044   1.360   7.875   6.898
28268WAT      O85045   8.495   3.598   4.718
28268WAT     H185046   8.548   3.545   4.652
28268WAT     H285047   8.469   3.538   4.795
28269WAT      O85048   1.057   0.801   3.088
28269WAT     H185049   1.115   0.749   3.025
28269WAT     H285050   1.004   0.868   3.036
28270WAT      O85051   0.800   8.909   1.209
28270WAT     H185052   0.900   8.917   1.210
28270WAT     H285053   0.772   8.862   1.126
28271WAT      O85054   4.663   8.353   6.911
28271WAT     H185055   4.584   8.291   6.916
28271WAT     H285056   4.730   8.326   6.980
28272WAT      O85057   7.718   1.516   0.698
28272WAT     H185058   7.741   1.613   0.710
28272WAT     H285059   7.620   1.507   0.681
28273WAT      O85060   8.271   9.297   9.697
28273WAT     H185061   8.187   9.308   9.751
28273WAT     H285062   8.304   9.203   9.704
28274WAT      O85063   4.873   1.359   0.613
28274WAT     H185064   4.830   1.298   0.547
28274WAT     H285065   4.862   1.323   0.705
28275WAT      O85066   2.174   2.278   7.085
28275WAT     H185067   2.230   2.351   7.047
28275WAT     H285068   2.087   2.316   7.117
28276WAT      O85069   3.228   3.718   8.915
28276WAT     H185070   3.314   3.676   8.943
28276WAT     H285071   3.152   3.663   8.949
28277WAT      O85072   1.721   8.833   1.824
28277WAT     H185073   1.732   8.769   1.900
28277WAT     H285074   1.811   8.871   1.801
28278WAT      O85075   2.591   6.723   6.061
28278WAT     H185076   2.625   6.811   6.028
28278WAT     H285077   2.666   6.671   6.100
28279WAT      O85078   5.231   1.761   5.089
28279WAT     H185079   5.310   1.816   5.114
28279WAT     H285080   5.246   1.666   5.118
28280WAT      O85081   2.149   6.913   1.363
28280WAT     H185082   2.058   6.900   1.403
28280WAT     H285083   2.180   6.828   1.321
28281WAT      O85084   9.329   7.342   2.445
28281WAT     H185085   9.274   7.284   2.505
28281WAT     H285086   9.407   7.378   2.496
28282WAT      O85087   3.547   8.851   5.437
28282WAT     H185088   3.461   8.800   5.429
28282WAT     H285089   3.617   8.792   5.477
28283WAT      O85090   4.124   9.253   1.924
28283WAT     H185091   4.141   9.200   2.007
28283WAT     H285092   4.082   9.195   1.855
28284WAT      O85093   2.593   9.540   4.118
28284WAT     H185094   2.619   9.623   4.167
28284WAT     H285095   2.579   9.466   4.184
28285WAT      O85096   5.256   8.714   0.308
28285WAT     H185097   5.349   8.734   0.337
28285WAT     H285098   5.192   8.746   0.378
28286WAT      O85099   4.699   6.040   8.343
28286WAT     H185100   4.714   6.094   8.425
28286WAT     H285101   4.712   6.097   8.262
28287WAT      O85102   7.955   8.839   9.445
28287WAT     H185103   7.927   8.852   9.350
28287WAT     H285104   8.041   8.788   9.448
28288WAT      O85105   0.592   1.666   3.443
28288WAT     H185106   0.549   1.594   3.497
28288WAT     H285107   0.532   1.693   3.368
28289WAT      O85108   9.734   9.159   0.691
28289WAT     H185109   9.690   9.073   0.718
28289WAT     H285110   9.668   9.234   0.697
28290WAT      O85111   1.955   2.891   7.547
28290WAT     H185112   2.053   2.875   7.536
28290WAT     H285113   1.932   2.984   7.519
28291WAT      O85114   7.213   3.845   4.907
28291WAT     H185115   7.294   3.802   4.867
28291WAT     H285116   7.236   3.880   4.998
28292WAT      O85117   1.346   4.630   1.661
28292WAT     H185118   1.429   4.580   1.685
28292WAT     H285119   1.361   4.683   1.578
28293WAT      O85120   5.189   3.530   9.598
28293WAT     H185121   5.219   3.522   9.693
28293WAT     H285122   5.092   3.504   9.592
28294WAT      O85123   4.756   1.342   6.952
28294WAT     H185124   4.802   1.254   6.958
28294WAT     H285125   4.789   1.402   7.025
28295WAT      O85126   1.855   1.338   6.553
28295WAT     H185127   1.871   1.300   6.644
28295WAT     H285128   1.818   1.431   6.561
28296WAT      O85129   0.147   1.558   5.076
28296WAT     H185130   0.105   1.520   5.159
28296WAT     H285131   0.195   1.485   5.027
28297WAT      O85132   6.792   5.797   5.614
28297WAT     H185133   6.888   5.794   5.585
28297WAT     H285134   6.735   5.825   5.537
28298WAT      O85135   6.300   6.418   8.165
28298WAT     H185136   6.290   6.493   8.100
28298WAT     H285137   6.290   6.330   8.118
28299WAT      O85138   8.694   3.088   3.702
28299WAT     H185139   8.643   3.105   3.618
28299WAT     H285140   8.741   3.172   3.731
28300WAT      O85141   1.615   2.068   8.176
28300WAT     H185142   1.596   2.112   8.263
28300WAT     H285143   1.710   2.036   8.175
28301WAT      O85144   8.728   2.756   1.589
28301WAT     H185145   8.632   2.732   1.575
28301WAT     H285146   8.776   2.753   1.501
28302WAT      O85147   1.403   5.399   6.163
28302WAT     H185148   1.461   5.369   6.238
28302WAT     H285149   1.445   5.373   6.076
28303WAT      O85150   4.611   2.684   5.934
28303WAT     H185151   4.636   2.714   5.842
28303WAT     H285152   4.694   2.661   5.985
28304WAT      O85153   1.508   8.907   5.232
28304WAT     H185154   1.568   8.877   5.158
28304WAT     H285155   1.416   8.868   5.219
28305WAT      O85156   9.665   2.702   0.423
28305WAT     H185157   9.727   2.745   0.489
28305WAT     H285158   9.680   2.744   0.333
28306WAT      O85159   5.013   1.199   0.277
28306WAT     H185160   5.042   1.248   0.194
28306WAT     H285161   5.087   1.139   0.307
28307WAT      O85162   0.436   6.116   1.604
28307WAT     H185163   0.511   6.078   1.658
28307WAT     H285164   0.359   6.051   1.603
28308WAT      O85165   9.244   4.948   9.216
28308WAT     H185166   9.164   4.962   9.158
28308WAT     H285167   9.319   4.913   9.161
28309WAT      O85168   2.755   7.225   3.988
28309WAT     H185169   2.810   7.191   4.064
28309WAT     H285170   2.667   7.256   4.022
28310WAT      O85171   1.662   2.721   7.049
28310WAT     H185172   1.718   2.745   7.129
28310WAT     H285173   1.600   2.646   7.073
28311WAT      O85174   4.111   8.692   3.191
28311WAT     H185175   4.136   8.702   3.095
28311WAT     H285176   4.048   8.615   3.201
28312WAT      O85177   1.310   8.605   2.973
28312WAT     H185178   1.376   8.675   2.943
28312WAT     H285179   1.218   8.634   2.948
28313WAT      O85180   6.943   3.626   5.104
28313WAT     H185181   6.892   3.669   5.029
28313WAT     H285182   6.989   3.697   5.158
28314WAT      O85183   4.537   2.214   6.438
28314WAT     H185184   4.441   2.189   6.429
28314WAT     H285185   4.582   2.153   6.503
28315WAT      O85186   5.632   8.982   8.126
28315WAT     H185187   5.536   9.000   8.149
28315WAT     H285188   5.637   8.938   8.037
28316WAT      O85189   5.258   4.464   1.630
28316WAT     H185190   5.205   4.397   1.682
28316WAT     H285191   5.275   4.429   1.538
28317WAT      O85192   0.790   3.762   0.740
28317WAT     H185193   0.775   3.663   0.739
28317WAT     H285194   0.859   3.786   0.672
28318WAT      O85195   0.271   7.041   4.020
28318WAT     H185196   0.368   7.051   4.044
28318WAT     H285197   0.262   6.978   3.943
28319WAT      O85198   5.216   2.986   3.842
28319WAT     H185199   5.116   2.986   3.847
28319WAT     H285200   5.250   3.079   3.857
28320WAT      O85201   4.005   9.557   9.491
28320WAT     H185202   4.054   9.643   9.477
28320WAT     H285203   3.911   9.567   9.457
28321WAT      O85204   1.660   8.512   5.742
28321WAT     H185205   1.732   8.573   5.709
28321WAT     H285206   1.577   8.566   5.761
28322WAT      O85207   0.487   0.608   1.306
28322WAT     H185208   0.467   0.673   1.379
28322WAT     H285209   0.574   0.562   1.325
28323WAT      O85210   6.372   9.050   4.738
28323WAT     H185211   6.316   9.076   4.660
28323WAT     H285212   6.376   9.126   4.803
28324WAT      O85213   3.621   1.117   0.321
28324WAT     H185214   3.697   1.066   0.362
28324WAT     H285215   3.538   1.061   0.323
28325WAT      O85216   6.226   4.796   2.341
28325WAT     H185217   6.256   4.712   2.295
28325WAT     H285218   6.127   4.806   2.332
28326WAT      O85219   0.538   6.934   6.202
28326WAT     H185220   0.497   6.941   6.111
28326WAT     H285221   0.605   6.859   6.202
28327WAT      O85222   6.017   1.848   9.465
28327WAT     H185223   5.977   1.768   9.421
28327WAT     H285224   6.056   1.822   9.553
28328WAT      O85225   4.904   3.577   4.604
28328WAT     H185226   4.949   3.647   4.549
28328WAT     H285227   4.830   3.619   4.657
28329WAT      O85228   6.226   9.281   6.498
28329WAT     H185229   6.141   9.322   6.531
28329WAT     H285230   6.264   9.222   6.569
28330WAT      O85231   2.155   6.285   3.736
28330WAT     H185232   2.078   6.224   3.756
28330WAT     H285233   2.198   6.313   3.821
28331WAT      O85234   3.179   9.786   2.333
28331WAT     H185235   3.216   9.869   2.375
28331WAT     H285236   3.196   9.708   2.394
28332WAT      O85237   4.318   0.635   0.726
28332WAT     H185238   4.288   0.692   0.802
28332WAT     H285239   4.241   0.580   0.694
28333WAT      O85240   4.804   8.492   8.523
28333WAT     H185241   4.833   8.584   8.549
28333WAT     H285242   4.729   8.498   8.456
28334WAT      O85243   2.334   0.801   2.142
28334WAT     H185244   2.406   0.838   2.084
28334WAT     H285245   2.263   0.759   2.084
28335WAT      O85246   3.834   1.594   9.548
28335WAT     H185247   3.743   1.627   9.569
28335WAT     H285248   3.828   1.517   9.484
28336WAT      O85249   5.957   8.635   3.670
28336WAT     H185250   5.918   8.543   3.671
28336WAT     H285251   6.033   8.639   3.605
28337WAT      O85252   2.628   4.781   8.692
28337WAT     H185253   2.616   4.862   8.635
28337WAT     H285254   2.558   4.714   8.670
28338WAT      O85255   6.850   8.605   2.913
28338WAT     H185256   6.869   8.552   2.996
28338WAT     H285257   6.937   8.637   2.874
28339WAT      O85258   6.190   6.361   6.705
28339WAT     H185259   6.123   6.434   6.715
28339WAT     H285260   6.236   6.368   6.617
28340WAT      O85261   8.145   5.262   1.963
28340WAT     H185262   8.243   5.249   1.979
28340WAT     H285263   8.093   5.208   2.029
28341WAT      O85264   4.615   1.855   7.183
28341WAT     H185265   4.653   1.943   7.154
28341WAT     H285266   4.690   1.792   7.203
28342WAT      O85267   5.880   9.411   9.278
28342WAT     H185268   5.966   9.456   9.303
28342WAT     H285269   5.900   9.323   9.235
28343WAT      O85270   5.196   3.875   3.538
28343WAT     H185271   5.272   3.940   3.526
28343WAT     H285272   5.175   3.833   3.450
28344WAT      O85273   9.875   4.478   6.920
28344WAT     H185274   9.841   4.446   6.832
28344WAT     H285275   9.942   4.413   6.956
28345WAT      O85276   1.770   1.547   9.444
28345WAT     H185277   1.719   1.510   9.522
28345WAT     H285278   1.714   1.617   9.399
28346WAT      O85279   2.739   4.616   8.262
28346WAT     H185280   2.790   4.619   8.176
28346WAT     H285281   2.771   4.539   8.317
28347WAT      O85282   5.687   5.914   9.857
28347WAT     H185283   5.751   5.896   9.782
28347WAT     H285284   5.615   5.845   9.857
28348WAT      O85285   0.397   5.354   2.290
28348WAT     H185286   0.312   5.406   2.280
28348WAT     H285287   0.456   5.400   2.357
28349WAT      O85288   6.494   4.078   4.900
28349WAT     H185289   6.448   4.063   4.988
28349WAT     H285290   6.479   4.000   4.840
28350WAT      O85291   6.642   2.622   2.173
28350WAT     H185292   6.618   2.665   2.260
28350WAT     H285293   6.566   2.633   2.108
28351WAT      O85294   5.383   5.256   3.952
28351WAT     H185295   5.301   5.261   4.010
28351WAT     H285296   5.444   5.184   3.986
28352WAT      O85297   5.243   8.722   8.729
28352WAT     H185298   5.237   8.658   8.653
28352WAT     H285299   5.211   8.678   8.813
28353WAT      O85300   1.972   2.826   5.905
28353WAT     H185301   1.933   2.734   5.894
28353WAT     H285302   1.972   2.850   6.002
28354WAT      O85303   6.349   4.600   9.408
28354WAT     H185304   6.282   4.550   9.462
28354WAT     H285305   6.315   4.691   9.388
28355WAT      O85306   8.298   5.007   3.112
28355WAT     H185307   8.254   5.025   3.200
28355WAT     H285308   8.308   5.092   3.061
28356WAT      O85309   6.991   0.256   5.326
28356WAT     H185310   6.974   0.158   5.315
28356WAT     H285311   6.953   0.287   5.414
28357WAT      O85312   3.368   8.392   6.647
28357WAT     H185313   3.306   8.324   6.687
28357WAT     H285314   3.314   8.462   6.600
28358WAT      O85315   0.566   5.036   5.577
28358WAT     H185316   0.545   5.126   5.615
28358WAT     H285317   0.590   4.974   5.652
28359WAT      O85318   9.737   3.477   4.783
28359WAT     H185319   9.690   3.556   4.743
28359WAT     H285320   9.767   3.500   4.875
28360WAT      O85321   2.331   1.680   2.479
28360WAT     H185322   2.289   1.768   2.458
28360WAT     H285323   2.324   1.620   2.399
28361WAT      O85324   2.945   7.172   6.469
28361WAT     H185325   2.996   7.142   6.549
28361WAT     H285326   2.916   7.093   6.416
28362WAT      O85327   5.127   3.829   1.393
28362WAT     H185328   5.104   3.911   1.339
28362WAT     H285329   5.093   3.748   1.346
28363WAT      O85330   7.882   3.185   2.466
28363WAT     H185331   7.845   3.093   2.453
28363WAT     H285332   7.939   3.209   2.388
28364WAT      O85333   5.086   5.826   6.522
28364WAT     H185334   5.003   5.856   6.568
28364WAT     H285335   5.062   5.769   6.443
28365WAT      O85336   7.292   3.646   0.610
28365WAT     H185337   7.226   3.642   0.684
28365WAT     H285338   7.385   3.637   0.646
28366WAT      O85339   0.038   9.331   2.206
28366WAT     H185340   0.037   9.232   2.220
28366WAT     H285341   0.124   9.357   2.160
28367WAT      O85342   8.000   8.730   8.697
28367WAT     H185343   8.092   8.695   8.716
28367WAT     H285344   7.939   8.707   8.773
28368WAT      O85345   7.388   4.215   7.407
28368WAT     H185346   7.443   4.132   7.412
28368WAT     H285347   7.291   4.191   7.415
28369WAT      O85348   3.149   7.096   9.270
28369WAT     H185349   3.094   7.013   9.263
28369WAT     H285350   3.098   7.165   9.320
28370WAT      O85351   2.933   5.359   9.319
28370WAT     H185352   2.915   5.436   9.380
28370WAT     H285353   2.946   5.393   9.226
28371WAT      O85354   8.527   1.562   1.514
28371WAT     H185355   8.522   1.476   1.464
28371WAT     H285356   8.552   1.544   1.610
28372WAT      O85357   4.463   2.585   8.560
28372WAT     H185358   4.364   2.581   8.550
28372WAT     H285359   4.498   2.669   8.518
28373WAT      O85360   5.559   9.428   1.926
28373WAT     H185361   5.486   9.426   1.858
28373WAT     H285362   5.539   9.362   1.999
28374WAT      O85363   4.933   7.149   8.024
28374WAT     H185364   4.891   7.078   7.968
28374WAT     H285365   4.990   7.208   7.967
28375WAT      O85366   9.126   0.409   6.325
28375WAT     H185367   9.172   0.341   6.269
28375WAT     H285368   9.051   0.366   6.375
28376WAT      O85369   0.052   6.480   1.713
28376WAT     H185370   0.120   6.447   1.778
28376WAT     H285371   0.092   6.552   1.656
28377WAT      O85372   6.213   9.299   1.555
28377WAT     H185373   6.290   9.297   1.619
28377WAT     H285374   6.221   9.225   1.489
28378WAT      O85375   2.722   2.554   5.612
28378WAT     H185376   2.723   2.514   5.521
28378WAT     H285377   2.639   2.609   5.624
28379WAT      O85378   0.949   8.796   4.484
28379WAT     H185379   0.858   8.775   4.519
28379WAT     H285380   0.974   8.889   4.510
28380WAT      O85381   0.780   7.588   3.234
28380WAT     H185382   0.780   7.669   3.175
28380WAT     H285383   0.747   7.613   3.325
28381WAT      O85384   9.543   3.526   8.818
28381WAT     H185385   9.547   3.571   8.906
28381WAT     H285386   9.605   3.447   8.817
28382WAT      O85387   3.512   5.882   6.917
28382WAT     H185388   3.435   5.819   6.911
28382WAT     H285389   3.508   5.932   7.004
28383WAT      O85390   0.837   0.097   4.255
28383WAT     H185391   0.843   0.124   4.351
28383WAT     H285392   0.915   0.040   4.231
28384WAT      O85393   7.927   7.545   0.965
28384WAT     H185394   7.848   7.585   1.011
28384WAT     H285395   7.899   7.513   0.874
28385WAT      O85396   5.438   2.895   9.481
28385WAT     H185397   5.530   2.867   9.453
28385WAT     H285398   5.445   2.961   9.555
28386WAT      O85399   9.308   7.336   5.244
28386WAT     H185400   9.321   7.372   5.152
28386WAT     H285401   9.234   7.269   5.244
28387WAT      O85402   1.513   7.975   1.985
28387WAT     H185403   1.592   8.011   2.034
28387WAT     H285404   1.487   7.887   2.026
28388WAT      O85405   5.000   1.305   2.602
28388WAT     H185406   4.904   1.284   2.582
28388WAT     H285407   5.006   1.391   2.652
28389WAT      O85408   4.134   6.580   3.412
28389WAT     H185409   4.087   6.492   3.411
28389WAT     H285410   4.223   6.570   3.457
28390WAT      O85411   3.464   7.099   1.425
28390WAT     H185412   3.371   7.076   1.395
28390WAT     H285413   3.514   7.016   1.448
28391WAT      O85414   6.047   8.802   6.950
28391WAT     H185415   6.013   8.711   6.972
28391WAT     H285416   6.109   8.796   6.871
28392WAT      O85417   7.305   2.271   2.157
28392WAT     H185418   7.373   2.328   2.111
28392WAT     H285419   7.292   2.303   2.251
28393WAT      O85420   3.160   2.127   3.435
28393WAT     H185421   3.093   2.054   3.418
28393WAT     H285422   3.209   2.108   3.519
28394WAT      O85423   2.417   0.645   3.453
28394WAT     H185424   2.361   0.565   3.477
28394WAT     H285425   2.409   0.662   3.355
28395WAT      O85426   4.693   9.731   9.668
28395WAT     H185427   4.707   9.669   9.591
28395WAT     H285428   4.694   9.679   9.753
28396WAT      O85429   5.339   8.642   4.115
28396WAT     H185430   5.362   8.545   4.113
28396WAT     H285431   5.390   8.687   4.189
28397WAT      O85432   5.624   7.101   7.917
28397WAT     H185433   5.525   7.095   7.925
28397WAT     H285434   5.654   7.194   7.937
28398WAT      O85435   4.357   7.995   3.500
28398WAT     H185436   4.440   7.969   3.451
28398WAT     H285437   4.354   8.095   3.509
28399WAT      O85438   4.747   2.371   6.060
28399WAT     H185439   4.775   2.385   5.965
28399WAT     H285440   4.649   2.392   6.069
28400WAT      O85441   8.850   7.872   1.351
28400WAT     H185442   8.919   7.926   1.302
28400WAT     H285443   8.775   7.931   1.379
28401WAT      O85444   7.161   1.291   3.375
28401WAT     H185445   7.169   1.385   3.407
28401WAT     H285446   7.112   1.290   3.288
28402WAT      O85447   7.879   3.868   0.819
28402WAT     H185448   7.840   3.909   0.901
28402WAT     H285449   7.976   3.851   0.833
28403WAT      O85450   9.294   7.885   4.180
28403WAT     H185451   9.208   7.898   4.131
28403WAT     H285452   9.278   7.892   4.278
28404WAT      O85453   3.806   9.475   2.011
28404WAT     H185454   3.740   9.446   2.081
28404WAT     H285455   3.781   9.434   1.923
28405WAT      O85456   6.384   9.812   2.185
28405WAT     H185457   6.474   9.772   2.203
28405WAT     H285458   6.334   9.821   2.271
28406WAT      O85459   6.369   7.961   0.155
28406WAT     H185460   6.288   7.963   0.096
28406WAT     H285461   6.340   7.969   0.250
28407WAT      O85462   4.323   6.798   8.357
28407WAT     H185463   4.375   6.757   8.282
28407WAT     H285464   4.369   6.777   8.444
28408WAT      O85465   3.082   3.039   6.120
28408WAT     H185466   3.073   3.102   6.196
28408WAT     H285467   3.008   3.054   6.055
28409WAT      O85468   9.547   1.669   9.759
28409WAT     H185469   9.601   1.749   9.733
28409WAT     H285470   9.524   1.675   9.857
28410WAT      O85471   7.019   9.504   5.568
28410WAT     H185472   7.022   9.421   5.511
28410WAT     H285473   6.941   9.560   5.540
28411WAT      O85474   4.871   1.238   4.576
28411WAT     H185475   4.842   1.198   4.663
28411WAT     H285476   4.808   1.210   4.504
28412WAT      O85477   3.824   6.570   4.735
28412WAT     H185478   3.876   6.625   4.801
28412WAT     H285479   3.887   6.530   4.669
28413WAT      O85480   1.452   3.554   2.241
28413WAT     H185481   1.475   3.457   2.253
28413WAT     H285482   1.447   3.598   2.331
28414WAT      O85483   5.565   4.305   8.419
28414WAT     H185484   5.651   4.255   8.406
28414WAT     H285485   5.529   4.333   8.330
28415WAT      O85486   6.610   9.011   6.183
28415WAT     H185487   6.576   8.917   6.190
28415WAT     H285488   6.561   9.058   6.110
28416WAT      O85489   2.997   0.422   3.896
28416WAT     H185490   2.941   0.486   3.950
28416WAT     H285491   3.089   0.459   3.886
28417WAT      O85492   5.233   9.359   2.865
28417WAT     H185493   5.331   9.343   2.848
28417WAT     H285494   5.223   9.425   2.939
28418WAT      O85495   6.436   5.426   9.388
28418WAT     H185496   6.469   5.429   9.294
28418WAT     H285497   6.461   5.511   9.435
28419WAT      O85498   3.185   1.901   2.333
28419WAT     H185499   3.266   1.939   2.288
28419WAT     H285500   3.115   1.972   2.341
28420WAT      O85501   2.962   8.693   4.689
28420WAT     H185502   3.005   8.701   4.599
28420WAT     H285503   3.025   8.725   4.760
28421WAT      O85504   6.432   9.275   1.712
28421WAT     H185505   6.456   9.182   1.684
28421WAT     H285506   6.503   9.339   1.683
28422WAT      O85507   5.936   9.042   9.792
28422WAT     H185508   5.994   9.003   9.721
28422WAT     H285509   5.942   9.141   9.789
28423WAT      O85510   8.292   9.555   6.276
28423WAT     H185511   8.290   9.650   6.307
28423WAT     H285512   8.386   9.529   6.255
28424WAT      O85513   4.688   0.276   9.727
28424WAT     H185514   4.692   0.309   9.821
28424WAT     H285515   4.756   0.203   9.715
28425WAT      O85516   8.355   1.060   1.227
28425WAT     H185517   8.274   1.104   1.267
28425WAT     H285518   8.364   1.088   1.131
28426WAT      O85519   4.687   7.536   0.931
28426WAT     H185520   4.654   7.477   1.005
28426WAT     H285521   4.611   7.593   0.897
28427WAT      O85522   2.582   9.391   6.668
28427WAT     H185523   2.591   9.485   6.701
28427WAT     H285524   2.493   9.379   6.624
28428WAT      O85525   1.019   6.392   4.861
28428WAT     H185526   0.924   6.375   4.885
28428WAT     H285527   1.058   6.459   4.925
28429WAT      O85528   1.744   7.519   2.928
28429WAT     H185529   1.649   7.549   2.935
28429WAT     H285530   1.752   7.425   2.963
28430WAT      O85531   7.598   3.264   3.580
28430WAT     H185532   7.526   3.322   3.619
28430WAT     H285533   7.627   3.197   3.648
28431WAT      O85534   9.861   2.111   5.470
28431WAT     H185535   9.835   2.172   5.545
28431WAT     H285536   9.938   2.054   5.499
28432WAT      O85537   7.344   7.312   3.892
28432WAT     H185538   7.385   7.253   3.961
28432WAT     H285539   7.392   7.300   3.805
28433WAT      O85540   2.605   3.094   7.366
28433WAT     H185541   2.533   3.037   7.404
28433WAT     H285542   2.644   3.049   7.285
28434WAT      O85543   8.499   6.656   2.637
28434WAT     H185544   8.466   6.741   2.678
28434WAT     H285545   8.585   6.672   2.591
28435WAT      O85546   9.070   1.276   3.579
28435WAT     H185547   9.004   1.266   3.504
28435WAT     H285548   9.080   1.373   3.601
28436WAT      O85549   9.221   2.670   0.296
28436WAT     H185550   9.184   2.579   0.278
28436WAT     H285551   9.147   2.737   0.295
28437WAT      O85552   4.431   8.831   2.864
28437WAT     H185553   4.445   8.917   2.817
28437WAT     H285554   4.505   8.817   2.930
28438WAT      O85555   4.113   4.685   0.442
28438WAT     H185556   4.200   4.723   0.475
28438WAT     H285557   4.037   4.738   0.479
28439WAT      O85558   5.543   4.201   5.027
28439WAT     H185559   5.508   4.289   5.059
28439WAT     H285560   5.640   4.193   5.051
28440WAT      O85561   4.510   4.981   1.717
28440WAT     H185562   4.466   4.940   1.797
28440WAT     H285563   4.591   4.928   1.693
28441WAT      O85564   6.644   2.596   3.254
28441WAT     H185565   6.593   2.663   3.201
28441WAT     H285566   6.580   2.540   3.308
28442WAT      O85567   1.307   1.632   9.344
28442WAT     H185568   1.327   1.713   9.399
28442WAT     H285569   1.229   1.650   9.285
28443WAT      O85570   9.465   6.984   0.445
28443WAT     H185571   9.504   6.897   0.475
28443WAT     H285572   9.377   6.968   0.401
28444WAT      O85573   9.327   0.454   0.299
28444WAT     H185574   9.252   0.392   0.325
28444WAT     H285575   9.334   0.457   0.200
28445WAT      O85576   4.866   3.556   7.100
28445WAT     H185577   4.803   3.524   7.029
28445WAT     H285578   4.851   3.505   7.184
28446WAT      O85579   3.327   5.448   1.511
28446WAT     H185580   3.367   5.473   1.423
28446WAT     H285581   3.286   5.529   1.553
28447WAT      O85582   0.513   3.020   9.891
28447WAT     H185583   0.470   2.930   9.884
28447WAT     H285584   0.611   3.012   9.879
28448WAT      O85585   1.337   0.263   5.924
28448WAT     H185586   1.387   0.290   5.842
28448WAT     H285587   1.357   0.167   5.945
28449WAT      O85588   7.006   2.789   2.920
28449WAT     H185589   6.927   2.751   2.872
28449WAT     H285590   7.090   2.751   2.879
28450WAT      O85591   7.931   1.847   7.275
28450WAT     H185592   8.027   1.822   7.262
28450WAT     H285593   7.925   1.943   7.301
28451WAT      O85594   1.723   1.042   1.856
28451WAT     H185595   1.735   1.132   1.899
28451WAT     H285596   1.750   1.047   1.760
28452WAT      O85597   5.143   2.255   6.701
28452WAT     H185598   5.224   2.303   6.666
28452WAT     H285599   5.166   2.160   6.719
28453WAT      O85600   0.309   0.866   7.540
28453WAT     H185601   0.337   0.775   7.510
28453WAT     H285602   0.301   0.926   7.461
28454WAT      O85603   7.457   3.367   0.071
28454WAT     H185604   7.520   3.443   0.061
28454WAT     H285605   7.444   3.321  -0.017
28455WAT      O85606   3.804   2.045   1.474
28455WAT     H185607   3.801   2.096   1.388
28455WAT     H285608   3.862   1.965   1.463
28456WAT      O85609   1.797   6.152   5.967
28456WAT     H185610   1.850   6.068   5.960
28456WAT     H285611   1.714   6.135   6.019
28457WAT      O85612   4.446   5.027   5.817
28457WAT     H185613   4.474   4.947   5.869
28457WAT     H285614   4.374   5.076   5.867
28458WAT      O85615   5.742   9.075   5.165
28458WAT     H185616   5.749   8.977   5.183
28458WAT     H285617   5.649   9.096   5.133
28459WAT      O85618   1.594   2.898   8.289
28459WAT     H185619   1.661   2.958   8.246
28459WAT     H285620   1.619   2.803   8.273
28460WAT      O85621   1.236   8.657   6.953
28460WAT     H185622   1.235   8.713   7.036
28460WAT     H285623   1.159   8.683   6.895
28461WAT      O85624   7.455   5.384   5.034
28461WAT     H185625   7.473   5.430   5.121
28461WAT     H285626   7.356   5.381   5.017
28462WAT      O85627   8.328   5.685   2.680
28462WAT     H185628   8.419   5.645   2.672
28462WAT     H285629   8.282   5.648   2.760
28463WAT      O85630   2.475   4.472   0.303
28463WAT     H185631   2.514   4.399   0.247
28463WAT     H285632   2.541   4.547   0.309
28464WAT      O85633   2.834   0.817   3.075
28464WAT     H185634   2.890   0.746   3.033
28464WAT     H285635   2.750   0.775   3.111
28465WAT      O85636   9.662   1.507   7.926
28465WAT     H185637   9.638   1.414   7.899
28465WAT     H285638   9.625   1.525   8.017
28466WAT      O85639   0.682   8.750   0.093
28466WAT     H185640   0.718   8.719   0.005
28466WAT     H285641   0.657   8.847   0.086
28467WAT      O85642   4.795   9.774   5.606
28467WAT     H185643   4.738   9.825   5.672
28467WAT     H285644   4.794   9.677   5.629
28468WAT      O85645   8.393   2.833   5.274
28468WAT     H185646   8.342   2.762   5.226
28468WAT     H285647   8.471   2.862   5.219
28469WAT      O85648   2.052   9.764   2.312
28469WAT     H185649   2.106   9.692   2.356
28469WAT     H285650   2.111   9.843   2.294
28470WAT      O85651   1.463   4.126   4.619
28470WAT     H185652   1.461   4.224   4.599
28470WAT     H285653   1.379   4.101   4.668
28471WAT      O85654   2.230   9.479   1.373
28471WAT     H185655   2.228   9.567   1.420
28471WAT     H285656   2.269   9.409   1.433
28472WAT      O85657   3.447   2.132   6.358
28472WAT     H185658   3.416   2.140   6.452
28472WAT     H285659   3.391   2.065   6.309
28473WAT      O85660   9.418   8.271   6.006
28473WAT     H185661   9.420   8.210   5.926
28473WAT     H285662   9.383   8.360   5.978
28474WAT      O85663   8.263   9.243   6.344
28474WAT     H185664   8.330   9.185   6.389
28474WAT     H285665   8.273   9.337   6.376
28475WAT      O85666   6.434   9.356   6.876
28475WAT     H185667   6.521   9.354   6.827
28475WAT     H285668   6.372   9.421   6.832
28476WAT      O85669   1.521   3.728   9.012
28476WAT     H185670   1.422   3.722   9.011
28476WAT     H285671   1.557   3.698   8.923
28477WAT      O85672   7.265   6.049   7.710
28477WAT     H185673   7.218   5.966   7.682
28477WAT     H285674   7.200   6.126   7.709
28478WAT      O85675   3.953   3.965   3.606
28478WAT     H185676   3.871   3.949   3.550
28478WAT     H285677   3.970   4.063   3.613
28479WAT      O85678   0.701   4.213   9.379
28479WAT     H185679   0.603   4.231   9.380
28479WAT     H285680   0.750   4.295   9.410
28480WAT      O85681   4.167   8.140   7.686
28480WAT     H185682   4.233   8.194   7.738
28480WAT     H285683   4.189   8.145   7.588
28481WAT      O85684   1.701   4.856   1.248
28481WAT     H185685   1.715   4.950   1.278
28481WAT     H285686   1.748   4.841   1.161
28482WAT      O85687   6.981   0.249   4.518
28482WAT     H185688   6.888   0.283   4.536
28482WAT     H285689   7.039   0.325   4.489
28483WAT      O85690   2.330   0.800   4.923
28483WAT     H185691   2.297   0.818   4.830
28483WAT     H285692   2.398   0.869   4.948
28484WAT      O85693   1.441   5.004   8.717
28484WAT     H185694   1.460   4.911   8.748
28484WAT     H285695   1.496   5.025   8.636
28485WAT      O85696   9.585   5.353   2.969
28485WAT     H185697   9.583   5.453   2.963
28485WAT     H285698   9.583   5.326   3.065
28486WAT      O85699   9.605   4.613   8.747
28486WAT     H185700   9.525   4.560   8.777
28486WAT     H285701   9.673   4.550   8.710
28487WAT      O85702   0.766   0.413   3.919
28487WAT     H185703   0.751   0.344   3.849
28487WAT     H285704   0.694   0.483   3.913
28488WAT      O85705   8.545   4.226   5.840
28488WAT     H185706   8.545   4.144   5.783
28488WAT     H285707   8.622   4.222   5.904
28489WAT      O85708   3.829   4.697   7.034
28489WAT     H185709   3.851   4.728   7.126
28489WAT     H285710   3.816   4.598   7.034
28490WAT      O85711   5.188   6.934   6.848
28490WAT     H185712   5.101   6.946   6.895
28490WAT     H285713   5.172   6.900   6.756
28491WAT      O85714   7.064   1.349   4.272
28491WAT     H185715   7.002   1.405   4.327
28491WAT     H285716   7.013   1.310   4.195
28492WAT      O85717   9.405   5.042   6.394
28492WAT     H185718   9.477   5.073   6.331
28492WAT     H285719   9.331   5.000   6.341
28493WAT      O85720   9.627   6.917   3.005
28493WAT     H185721   9.625   6.829   2.959
28493WAT     H285722   9.584   6.909   3.095
28494WAT      O85723   5.197   8.911   7.195
28494WAT     H185724   5.185   8.816   7.166
28494WAT     H285725   5.294   8.929   7.212
28495WAT      O85726   7.763   0.888   0.191
28495WAT     H185727   7.740   0.974   0.235
28495WAT     H285728   7.681   0.832   0.181
28496WAT      O85729   0.813   9.815   4.837
28496WAT     H185730   0.725   9.791   4.796
28496WAT     H285731   0.797   9.873   4.917
28497WAT      O85732   6.194   9.827   9.265
28497WAT     H185733   6.226   9.907   9.214
28497WAT     H285734   6.222   9.836   9.361
28498WAT      O85735   6.728   9.298   6.854
28498WAT     H185736   6.686   9.292   6.763
28498WAT     H285737   6.705   9.217   6.908
28499WAT      O85738   3.196   5.274   5.300
28499WAT     H185739   3.226   5.356   5.348
28499WAT     H285740   3.265   5.202   5.311
28500WAT      O85741   2.003   2.338   2.288
28500WAT     H185742   2.042   2.430   2.283
28500WAT     H285743   1.907   2.342   2.262
28501WAT      O85744   6.598   2.214   4.337
28501WAT     H185745   6.627   2.277   4.410
28501WAT     H285746   6.667   2.212   4.265
28502WAT      O85747   3.964   6.305   9.379
28502WAT     H185748   4.019   6.275   9.458
28502WAT     H285749   3.918   6.391   9.401
28503WAT      O85750   8.222   2.051   0.580
28503WAT     H185751   8.283   2.063   0.501
28503WAT     H285752   8.129   2.079   0.555
28504WAT      O85753   5.210   1.103   3.072
28504WAT     H185754   5.165   1.071   3.155
28504WAT     H285755   5.246   1.024   3.021
28505WAT      O85756   0.649   7.527   7.828
28505WAT     H185757   0.704   7.563   7.753
28505WAT     H285758   0.611   7.438   7.801
28506WAT      O85759   3.363   7.410   0.172
28506WAT     H185760   3.271   7.428   0.136
28506WAT     H285761   3.378   7.465   0.253
28507WAT      O85762   6.847   3.822   6.786
28507WAT     H185763   6.775   3.787   6.725
28507WAT     H285764   6.906   3.746   6.813
28508WAT      O85765   6.747   6.485   8.017
28508WAT     H185766   6.780   6.565   7.967
28508WAT     H285767   6.680   6.513   8.086
28509WAT      O85768   5.974   4.672   6.660
28509WAT     H185769   5.919   4.735   6.605
28509WAT     H285770   5.921   4.589   6.679
28510WAT      O85771   9.784   4.903   4.272
28510WAT     H185772   9.745   4.989   4.305
28510WAT     H285773   9.790   4.905   4.172
28511WAT      O85774   2.074   1.707   8.839
28511WAT     H185775   2.049   1.639   8.770
28511WAT     H285776   2.123   1.661   8.914
28512WAT      O85777   5.593   1.868   2.684
28512WAT     H185778   5.568   1.822   2.769
28512WAT     H285779   5.518   1.929   2.656
28513WAT      O85780   0.724   7.108   8.487
28513WAT     H185781   0.786   7.130   8.411
28513WAT     H285782   0.686   7.192   8.525
28514WAT      O85783   5.689   7.590   8.331
28514WAT     H185784   5.779   7.554   8.304
28514WAT     H285785   5.637   7.518   8.377
28515WAT      O85786   1.020   1.016   2.015
28515WAT     H185787   0.946   1.027   1.949
28515WAT     H285788   0.982   1.014   2.108
28516WAT      O85789   6.667   4.646   6.527
28516WAT     H185790   6.609   4.701   6.466
28516WAT     H285791   6.611   4.609   6.601
28517WAT      O85792   4.407   4.426   8.527
28517WAT     H185793   4.477   4.380   8.582
28517WAT     H285794   4.329   4.448   8.585
28518WAT      O85795   2.930   0.506   1.101
28518WAT     H185796   2.987   0.430   1.071
28518WAT     H285797   2.933   0.579   1.032
28519WAT      O85798   6.381   1.883   5.227
28519WAT     H185799   6.336   1.961   5.183
28519WAT     H285800   6.423   1.913   5.313
28520WAT      O85801   0.040   8.929   8.239
28520WAT     H185802   0.051   8.941   8.140
28520WAT     H285803   0.063   8.835   8.264
28521WAT      O85804   6.448   5.066   9.833
28521WAT     H185805   6.542   5.034   9.839
28521WAT     H285806   6.386   4.991   9.852
28522WAT      O85807   3.932   6.173   6.990
28522WAT     H185808   3.955   6.076   6.980
28522WAT     H285809   3.891   6.188   7.080
28523WAT      O85810   0.375   9.618   5.949
28523WAT     H185811   0.303   9.687   5.937
28523WAT     H285812   0.459   9.649   5.904
28524WAT      O85813   7.911   0.880   8.237
28524WAT     H185814   7.856   0.874   8.153
28524WAT     H285815   7.875   0.815   8.304
28525WAT      O85816   7.958   8.059   7.507
28525WAT     H185817   7.912   8.064   7.418
28525WAT     H285818   8.008   7.973   7.514
28526WAT      O85819   5.903   3.871   3.679
28526WAT     H185820   5.894   3.949   3.618
28526WAT     H285821   5.822   3.812   3.670
28527WAT      O85822   2.151   4.847   0.403
28527WAT     H185823   2.120   4.816   0.313
28527WAT     H285824   2.073   4.886   0.453
28528WAT      O85825   2.997   9.614   7.181
28528WAT     H185826   3.034   9.536   7.231
28528WAT     H285827   3.048   9.697   7.205
28529WAT      O85828   9.469   5.967   2.323
28529WAT     H185829   9.379   6.009   2.338
28529WAT     H285830   9.539   6.023   2.366
28530WAT      O85831   6.490   0.591   2.459
28530WAT     H185832   6.539   0.677   2.464
28530WAT     H285833   6.450   0.570   2.548
28531WAT      O85834   9.880   1.858   9.309
28531WAT     H185835   9.890   1.951   9.275
28531WAT     H285836   9.970   1.823   9.337
28532WAT      O85837   4.210   0.773   4.962
28532WAT     H185838   4.241   0.828   5.040
28532WAT     H285839   4.120   0.735   4.981
28533WAT      O85840   8.621   3.722   9.614
28533WAT     H185841   8.661   3.654   9.676
28533WAT     H285842   8.523   3.731   9.633
28534WAT      O85843   0.681   7.950   9.517
28534WAT     H185844   0.627   7.892   9.455
28534WAT     H285845   0.654   7.933   9.611
28535WAT      O85846   0.074   7.678   9.215
28535WAT     H185847   0.032   7.767   9.199
28535WAT     H285848   0.081   7.661   9.313
28536WAT      O85849   0.468   1.645   6.515
28536WAT     H185850   0.387   1.589   6.529
28536WAT     H285851   0.549   1.596   6.547
28537WAT      O85852   1.884   5.407   0.732
28537WAT     H185853   1.977   5.373   0.722
28537WAT     H285854   1.858   5.456   0.649
28538WAT      O85855   5.384   2.319   6.531
28538WAT     H185856   5.431   2.395   6.576
28538WAT     H285857   5.443   2.237   6.535
28539WAT      O85858   7.244   7.683   4.865
28539WAT     H185859   7.156   7.717   4.898
28539WAT     H285860   7.246   7.684   4.765
28540WAT      O85861   8.982   8.033   3.651
28540WAT     H185862   9.041   7.958   3.683
28540WAT     H285863   8.890   8.020   3.688
28541WAT      O85864   0.631   6.821   7.071
28541WAT     H185865   0.712   6.852   7.021
28541WAT     H285866   0.659   6.755   7.141
28542WAT      O85867   2.931   8.224   6.339
28542WAT     H185868   2.885   8.221   6.250
28542WAT     H285869   2.912   8.140   6.390
28543WAT      O85870   9.165   3.416   0.045
28543WAT     H185871   9.084   3.357   0.054
28543WAT     H285872   9.181   3.463   0.133
28544WAT      O85873   1.828   2.962   6.988
28544WAT     H185874   1.763   2.888   6.970
28544WAT     H285875   1.823   3.029   6.915
28545WAT      O85876   3.820   6.341   7.607
28545WAT     H185877   3.875   6.304   7.533
28545WAT     H285878   3.837   6.288   7.691
28546WAT      O85879   3.209   4.440   2.181
28546WAT     H185880   3.292   4.482   2.219
28546WAT     H285881   3.184   4.361   2.237
28547WAT      O85882   2.155   6.111   3.353
28547WAT     H185883   2.220   6.160   3.412
28547WAT     H285884   2.187   6.116   3.258
28548WAT      O85885   6.979   2.921   0.495
28548WAT     H185886   7.035   2.987   0.545
28548WAT     H285887   7.023   2.831   0.499
28549WAT      O85888   1.753   8.660   5.422
28549WAT     H185889   1.802   8.586   5.468
28549WAT     H285890   1.674   8.688   5.476
28550WAT      O85891   7.669   9.601   1.478
28550WAT     H185892   7.748   9.653   1.445
28550WAT     H285893   7.672   9.595   1.578
28551WAT      O85894   7.547   4.038   1.643
28551WAT     H185895   7.547   4.133   1.614
28551WAT     H285896   7.457   4.014   1.679
28552WAT      O85897   2.468   9.170   8.319
28552WAT     H185898   2.420   9.105   8.378
28552WAT     H285899   2.500   9.248   8.374
28553WAT      O85900   3.104   2.054   5.838
28553WAT     H185901   3.010   2.043   5.870
28553WAT     H285902   3.160   1.978   5.872
28554WAT      O85903   7.040   7.945   4.587
28554WAT     H185904   6.972   7.951   4.659
28554WAT     H285905   7.039   7.854   4.547
28555WAT      O85906   9.044   9.480   1.387
28555WAT     H185907   8.988   9.398   1.376
28555WAT     H285908   9.027   9.542   1.310
28556WAT      O85909   7.777   1.330   0.239
28556WAT     H185910   7.869   1.357   0.267
28556WAT     H285911   7.747   1.251   0.292
28557WAT      O85912   4.404   2.145   5.725
28557WAT     H185913   4.484   2.085   5.728
28557WAT     H285914   4.336   2.114   5.791
28558WAT      O85915   6.132   1.912   9.750
28558WAT     H185916   6.052   1.967   9.772
28558WAT     H285917   6.194   1.966   9.693
28559WAT      O85918   5.290   1.083   9.886
28559WAT     H185919   5.381   1.123   9.875
28559WAT     H285920   5.225   1.155   9.909
28560WAT      O85921   8.593   5.102   1.561
28560WAT     H185922   8.575   5.072   1.655
28560WAT     H285923   8.544   5.043   1.497
28561WAT      O85924   7.973   6.253   3.010
28561WAT     H185925   8.025   6.173   3.041
28561WAT     H285926   7.896   6.223   2.954
28562WAT      O85927   6.268   4.217   6.075
28562WAT     H185928   6.178   4.255   6.097
28562WAT     H285929   6.256   4.132   6.023
28563WAT      O85930   0.515   3.779   9.795
28563WAT     H185931   0.558   3.689   9.792
28563WAT     H285932   0.523   3.822   9.705
28564WAT      O85933   6.694   5.834   3.132
28564WAT     H185934   6.676   5.930   3.155
28564WAT     H285935   6.762   5.829   3.059
28565WAT      O85936   1.621   4.275   9.196
28565WAT     H185937   1.610   4.178   9.219
28565WAT     H285938   1.577   4.331   9.267
28566WAT      O85939   2.477   9.100   1.721
28566WAT     H185940   2.488   9.008   1.759
28566WAT     H285941   2.546   9.160   1.760
28567WAT      O85942   2.150   0.625   1.158
28567WAT     H185943   2.128   0.600   1.252
28567WAT     H285944   2.121   0.719   1.140
28568WAT      O85945   5.363   9.621   4.806
28568WAT     H185946   5.281   9.628   4.750
28568WAT     H285947   5.444   9.629   4.749
28569WAT      O85948   2.040   9.679   2.797
28569WAT     H185949   1.997   9.755   2.748
28569WAT     H285950   2.108   9.716   2.860
28570WAT      O85951   0.540   7.867   0.302
28570WAT     H185952   0.635   7.837   0.312
28570WAT     H285953   0.479   7.791   0.327
28571WAT      O85954   9.258   0.255   5.527
28571WAT     H185955   9.318   0.232   5.451
28571WAT     H285956   9.170   0.207   5.516
28572WAT      O85957   5.864   8.217   5.964
28572WAT     H185958   5.891   8.313   5.953
28572WAT     H285959   5.942   8.165   6.001
28573WAT      O85960   8.487   5.422   5.219
28573WAT     H185961   8.525   5.433   5.127
28573WAT     H285962   8.497   5.508   5.270
28574WAT      O85963   6.610   2.272   3.255
28574WAT     H185964   6.638   2.323   3.336
28574WAT     H285965   6.612   2.174   3.274
28575WAT      O85966   5.528   6.794   0.752
28575WAT     H185967   5.473   6.833   0.825
28575WAT     H285968   5.475   6.791   0.667
28576WAT      O85969   9.418   6.855   2.533
28576WAT     H185970   9.484   6.904   2.590
28576WAT     H285971   9.402   6.906   2.449
28577WAT      O85972   6.025   4.090   3.011
28577WAT     H185973   5.967   4.055   2.938
28577WAT     H285974   6.101   4.027   3.028
28578WAT      O85975   8.806   8.634   6.252
28578WAT     H185976   8.884   8.576   6.275
28578WAT     H285977   8.722   8.589   6.281
28579WAT      O85978   0.110   3.573   8.513
28579WAT     H185979   0.090   3.609   8.604
28579WAT     H285980   0.203   3.599   8.487
28580WAT      O85981   0.931   2.626   2.711
28580WAT     H185982   0.961   2.533   2.690
28580WAT     H285983   0.862   2.654   2.644
28581WAT      O85984   3.967   7.649   5.647
28581WAT     H185985   3.957   7.643   5.746
28581WAT     H285986   3.981   7.557   5.609
28582WAT      O85987   2.230   2.405   4.408
28582WAT     H185988   2.301   2.464   4.370
28582WAT     H285989   2.234   2.409   4.508
28583WAT      O85990   1.028   4.866   6.334
28583WAT     H185991   0.977   4.873   6.420
28583WAT     H285992   1.003   4.943   6.275
28584WAT      O85993   6.719   7.848   8.396
28584WAT     H185994   6.668   7.902   8.329
28584WAT     H285995   6.655   7.815   8.466
28585WAT      O85996   9.247   0.899   5.809
28585WAT     H185997   9.181   0.920   5.881
28585WAT     H285998   9.323   0.848   5.848
28586WAT      O85999   5.724   7.255   1.233
28586WAT     H186000   5.696   7.227   1.141
28586WAT     H286001   5.756   7.176   1.284
28587WAT      O86002   4.883   8.823   0.738
28587WAT     H186003   4.976   8.805   0.769
28587WAT     H286004   4.822   8.831   0.818
28588WAT      O86005   0.887   0.865   8.881
28588WAT     H186006   0.810   0.813   8.921
28588WAT     H286007   0.939   0.805   8.821
28589WAT      O86008   4.581   9.019   3.150
28589WAT     H186009   4.620   9.111   3.154
28589WAT     H286010   4.485   9.022   3.176
28590WAT      O86011   0.481   4.330   2.883
28590WAT     H186012   0.423   4.412   2.880
28590WAT     H286013   0.426   4.251   2.910
28591WAT      O86014   5.561   2.092   6.164
28591WAT     H186015   5.520   2.032   6.233
28591WAT     H286016   5.609   2.037   6.096
28592WAT      O86017   9.200   8.595   0.941
28592WAT     H186018   9.264   8.657   0.987
28592WAT     H286019   9.107   8.625   0.957
28593WAT      O86020   4.638   2.838   9.364
28593WAT     H186021   4.676   2.799   9.448
28593WAT     H286022   4.639   2.938   9.371
28594WAT      O86023   7.309   0.631   0.886
28594WAT     H186024   7.382   0.649   0.951
28594WAT     H286025   7.326   0.544   0.841
28595WAT      O86026   4.611   5.877   8.054
28595WAT     H186027   4.586   5.932   8.134
28595WAT     H286028   4.558   5.907   7.975
28596WAT      O86029   6.463   1.020   3.165
28596WAT     H186030   6.425   0.942   3.116
28596WAT     H286031   6.389   1.072   3.208
28597WAT      O86032   9.368   6.607   4.260
28597WAT     H186033   9.359   6.560   4.348
28597WAT     H286034   9.370   6.539   4.186
28598WAT      O86035   1.368   8.853   2.056
28598WAT     H186036   1.357   8.772   2.113
28598WAT     H286037   1.294   8.918   2.075
28599WAT      O86038   2.221   4.259   1.983
28599WAT     H186039   2.279   4.287   2.059
28599WAT     H286040   2.132   4.305   1.989
28600WAT      O86041   4.154   7.530   5.349
28600WAT     H186042   4.121   7.459   5.412
28600WAT     H286043   4.120   7.619   5.379
28601WAT      O86044   5.612   8.813   6.616
28601WAT     H186045   5.626   8.906   6.584
28601WAT     H286046   5.670   8.751   6.563
28602WAT      O86047   0.008   1.675   1.666
28602WAT     H186048  -0.002   1.595   1.725
28602WAT     H286049   0.049   1.750   1.717
28603WAT      O86050   5.799   7.121   6.330
28603WAT     H186051   5.847   7.042   6.293
28603WAT     H286052   5.737   7.091   6.403
28604WAT      O86053   4.020   4.036   4.598
28604WAT     H186054   4.057   3.962   4.542
28604WAT     H286055   3.940   4.002   4.648
28605WAT      O86056   0.243   3.441   7.811
28605WAT     H186057   0.265   3.517   7.750
28605WAT     H286058   0.167   3.388   7.773
28606WAT      O86059   4.063   1.773   8.252
28606WAT     H186060   3.978   1.737   8.292
28606WAT     H286061   4.060   1.762   8.153
28607WAT      O86062   1.054   8.589   3.409
28607WAT     H186063   1.144   8.553   3.386
28607WAT     H286064   1.009   8.526   3.473
28608WAT      O86065   2.909   1.243   8.321
28608WAT     H186066   2.863   1.170   8.372
28608WAT     H286067   2.948   1.204   8.237
28609WAT      O86068   0.519   0.713   0.482
28609WAT     H186069   0.438   0.763   0.513
28609WAT     H286070   0.551   0.653   0.556
28610WAT      O86071   1.132   6.827   7.198
28610WAT     H186072   1.068   6.769   7.146
28610WAT     H286073   1.197   6.869   7.134
28611WAT      O86074   7.310   2.935   7.948
28611WAT     H186075   7.262   2.911   7.864
28611WAT     H286076   7.289   2.868   8.019
28612WAT      O86077   5.516   0.262   8.021
28612WAT     H186078   5.442   0.283   8.087
28612WAT     H286079   5.547   0.168   8.035
28613WAT      O86080   2.364   6.102   4.159
28613WAT     H186081   2.305   6.046   4.100
28613WAT     H286082   2.459   6.076   4.143
28614WAT      O86083   6.584   6.466   9.700
28614WAT     H186084   6.533   6.486   9.784
28614WAT     H286085   6.552   6.525   9.626
28615WAT      O86086   2.108   3.721   1.123
28615WAT     H186087   2.152   3.700   1.211
28615WAT     H286088   2.075   3.815   1.124
28616WAT      O86089   5.304   6.083   6.023
28616WAT     H186090   5.279   6.101   5.927
28616WAT     H286091   5.266   6.154   6.081
28617WAT      O86092   8.045   8.718   2.950
28617WAT     H186093   8.061   8.677   3.040
28617WAT     H286094   7.971   8.785   2.957
28618WAT      O86095   9.031   9.470   1.673
28618WAT     H186096   8.998   9.475   1.579
28618WAT     H286097   8.953   9.478   1.736
28619WAT      O86098   4.304   9.124   3.564
28619WAT     H186099   4.397   9.141   3.532
28619WAT     H286100   4.239   9.161   3.497
28620WAT      O86101   3.221   4.433   1.910
28620WAT     H186102   3.222   4.441   2.009
28620WAT     H286103   3.138   4.475   1.873
28621WAT      O86104   7.757   6.406   5.088
28621WAT     H186105   7.687   6.346   5.126
28621WAT     H286106   7.724   6.500   5.088
28622WAT      O86107   0.698   2.589   7.489
28622WAT     H186108   0.641   2.635   7.420
28622WAT     H286109   0.790   2.577   7.454
28623WAT      O86110   1.104   1.872   8.922
28623WAT     H186111   1.178   1.919   8.971
28623WAT     H286112   1.138   1.839   8.835
28624WAT      O86113   9.679   5.223   9.756
28624WAT     H186114   9.582   5.229   9.729
28624WAT     H286115   9.713   5.132   9.736
28625WAT      O86116   1.672   5.179   4.504
28625WAT     H186117   1.701   5.241   4.430
28625WAT     H286118   1.737   5.185   4.580
28626WAT      O86119   3.480   2.245   4.560
28626WAT     H186120   3.562   2.301   4.542
28626WAT     H286121   3.446   2.265   4.652
28627WAT      O86122   2.818   7.065   4.472
28627WAT     H186123   2.768   6.980   4.491
28627WAT     H286124   2.904   7.065   4.524
28628WAT      O86125   9.561   6.597   1.456
28628WAT     H186126   9.586   6.615   1.551
28628WAT     H286127   9.564   6.683   1.405
28629WAT      O86128   4.005   9.095   4.753
28629WAT     H186129   4.054   9.007   4.759
28629WAT     H286130   3.931   9.087   4.686
28630WAT      O86131   2.204   3.425   1.355
28630WAT     H186132   2.192   3.524   1.346
28630WAT     H286133   2.285   3.406   1.409
28631WAT      O86134   2.408   8.390   0.916
28631WAT     H186135   2.467   8.422   0.842
28631WAT     H286136   2.313   8.414   0.896
28632WAT      O86137   2.930   2.852   1.394
28632WAT     H186138   3.024   2.862   1.362
28632WAT     H286139   2.913   2.757   1.420
28633WAT      O86140   4.003   9.603   4.138
28633WAT     H186141   3.968   9.643   4.054
28633WAT     H286142   4.097   9.633   4.152
28634WAT      O86143   1.516   2.193   8.393
28634WAT     H186144   1.572   2.256   8.446
28634WAT     H286145   1.419   2.214   8.406
28635WAT      O86146   9.556   7.833   7.777
28635WAT     H186147   9.498   7.761   7.738
28635WAT     H286148   9.498   7.902   7.821
28636WAT      O86149   5.778   2.920   5.649
28636WAT     H186150   5.769   2.969   5.736
28636WAT     H286151   5.816   2.829   5.666
28637WAT      O86152   4.418   7.646   9.621
28637WAT     H186153   4.511   7.680   9.632
28637WAT     H286154   4.353   7.721   9.635
28638WAT      O86155   8.105   4.046   6.536
28638WAT     H186156   8.107   3.996   6.449
28638WAT     H286157   8.092   3.982   6.611
28639WAT      O86158   3.176   3.668   4.192
28639WAT     H186159   3.271   3.642   4.210
28639WAT     H286160   3.119   3.643   4.270
28640WAT      O86161   2.857   7.723   2.291
28640WAT     H186162   2.856   7.630   2.252
28640WAT     H286163   2.948   7.762   2.280
28641WAT      O86164   6.870   4.218   4.059
28641WAT     H186165   6.938   4.169   4.005
28641WAT     H286166   6.826   4.287   4.003
28642WAT      O86167   6.630   8.698   5.916
28642WAT     H186168   6.569   8.770   5.882
28642WAT     H286169   6.602   8.610   5.878
28643WAT      O86170   8.161   8.333   9.005
28643WAT     H186171   8.226   8.409   9.007
28643WAT     H286172   8.159   8.288   9.094
28644WAT      O86173   6.919   5.165   6.530
28644WAT     H186174   6.954   5.257   6.511
28644WAT     H286175   6.851   5.141   6.461
28645WAT      O86176   9.216   2.052   0.842
28645WAT     H186177   9.159   2.095   0.913
28645WAT     H286178   9.313   2.066   0.863
28646WAT      O86179   2.783   4.852   8.918
28646WAT     H186180   2.733   4.833   8.834
28646WAT     H286181   2.876   4.882   8.896
28647WAT      O86182   2.850   2.350   9.572
28647WAT     H186183   2.846   2.288   9.494
28647WAT     H286184   2.809   2.438   9.548
28648WAT      O86185   8.005   0.538   1.750
28648WAT     H186186   8.091   0.586   1.768
28648WAT     H286187   8.020   0.468   1.680
28649WAT      O86188   0.345   1.992   2.383
28649WAT     H186189   0.260   2.043   2.370
28649WAT     H286190   0.377   2.005   2.477
28650WAT      O86191   6.595   2.060   2.844
28650WAT     H186192   6.672   2.065   2.781
28650WAT     H286193   6.594   2.142   2.902
28651WAT      O86194   0.654   1.661   5.947
28651WAT     H186195   0.719   1.586   5.956
28651WAT     H286196   0.583   1.653   6.016
28652WAT      O86197   9.112   3.295   3.740
28652WAT     H186198   9.058   3.330   3.663
28652WAT     H286199   9.054   3.235   3.796
28653WAT      O86200   0.335   6.013   0.059
28653WAT     H186201   0.411   5.986   0.119
28653WAT     H286202   0.258   5.951   0.073
28654WAT      O86203   8.643   8.100   4.615
28654WAT     H186204   8.564   8.161   4.607
28654WAT     H286205   8.715   8.144   4.667
28655WAT      O86206   5.448   6.036   9.025
28655WAT     H186207   5.363   6.089   9.025
28655WAT     H286208   5.517   6.084   8.970
28656WAT      O86209   8.646   1.409   5.644
28656WAT     H186210   8.613   1.464   5.721
28656WAT     H286211   8.629   1.458   5.558
28657WAT      O86212   5.810   8.350   6.880
28657WAT     H186213   5.719   8.332   6.917
28657WAT     H286214   5.806   8.347   6.780
28658WAT      O86215   8.028   0.272   6.902
28658WAT     H186216   7.989   0.183   6.879
28658WAT     H286217   8.045   0.276   7.001
28659WAT      O86218   9.313   5.673   5.655
28659WAT     H186219   9.394   5.615   5.660
28659WAT     H286220   9.261   5.666   5.740
28660WAT      O86221   4.426   6.664   8.137
28660WAT     H186222   4.387   6.572   8.141
28660WAT     H286223   4.521   6.662   8.168
28661WAT      O86224   7.445   5.452   3.739
28661WAT     H186225   7.370   5.390   3.716
28661WAT     H286226   7.439   5.533   3.681
28662WAT      O86227   2.942   3.761   7.017
28662WAT     H186228   2.899   3.742   7.105
28662WAT     H286229   2.873   3.758   6.944
28663WAT      O86230   8.519   0.835   4.687
28663WAT     H186231   8.515   0.866   4.592
28663WAT     H286232   8.552   0.909   4.746
28664WAT      O86233   1.784   3.838   5.331
28664WAT     H186234   1.848   3.870   5.400
28664WAT     H286235   1.831   3.825   5.244
28665WAT      O86236   8.527   0.445   8.976
28665WAT     H186237   8.568   0.535   8.968
28665WAT     H286238   8.543   0.408   9.067
28666WAT      O86239   3.482   7.495   6.447
28666WAT     H186240   3.463   7.421   6.383
28666WAT     H286241   3.545   7.560   6.404
28667WAT      O86242   6.461   7.787   7.762
28667WAT     H186243   6.543   7.837   7.789
28667WAT     H286244   6.419   7.745   7.842
28668WAT      O86245   3.227   5.030   6.684
28668WAT     H186246   3.307   5.076   6.646
28668WAT     H286247   3.153   5.096   6.695
28669WAT      O86248   1.274   3.875   1.069
28669WAT     H186249   1.254   3.820   1.150
28669WAT     H286250   1.309   3.816   0.997
28670WAT      O86251   3.406   3.306   8.438
28670WAT     H186252   3.405   3.208   8.457
28670WAT     H286253   3.464   3.323   8.358
28671WAT      O86254   7.780   1.105   2.051
28671WAT     H186255   7.851   1.072   1.988
28671WAT     H286256   7.729   1.027   2.087
28672WAT      O86257   5.312   1.278   3.500
28672WAT     H186258   5.341   1.286   3.595
28672WAT     H286259   5.344   1.191   3.463
28673WAT      O86260   8.145   9.046   5.234
28673WAT     H186261   8.114   9.141   5.231
28673WAT     H286262   8.103   8.996   5.158
28674WAT      O86263   7.012   5.788   0.261
28674WAT     H186264   6.931   5.840   0.230
28674WAT     H286265   7.045   5.827   0.347
28675WAT      O86266   6.122   9.403   8.015
28675WAT     H186267   6.186   9.422   7.940
28675WAT     H286268   6.056   9.334   7.987
28676WAT      O86269   9.300   0.259   5.030
28676WAT     H186270   9.324   0.354   5.011
28676WAT     H286271   9.207   0.254   5.064
28677WAT      O86272   2.100   0.366   6.285
28677WAT     H186273   2.179   0.304   6.285
28677WAT     H286274   2.026   0.326   6.338
28678WAT      O86275   1.556   7.071   2.061
28678WAT     H186276   1.588   7.021   2.142
28678WAT     H286277   1.467   7.035   2.033
28679WAT      O86278   1.785   6.024   0.402
28679WAT     H186279   1.849   5.981   0.465
28679WAT     H286280   1.812   6.003   0.308
28680WAT      O86281   8.792   7.187   4.619
28680WAT     H186282   8.856   7.193   4.695
28680WAT     H286283   8.790   7.094   4.583
28681WAT      O86284   7.643   6.798   9.699
28681WAT     H186285   7.664   6.709   9.659
28681WAT     H286286   7.697   6.869   9.655
28682WAT      O86287   5.723   8.802   5.198
28682WAT     H186288   5.790   8.762   5.135
28682WAT     H286289   5.678   8.729   5.250
28683WAT      O86290   6.067   7.061   8.208
28683WAT     H186291   6.066   7.126   8.132
28683WAT     H286292   6.116   6.979   8.181
28684WAT      O86293   2.435   1.015   7.716
28684WAT     H186294   2.532   1.040   7.707
28684WAT     H286295   2.379   1.085   7.672
28685WAT      O86296   4.342   9.692   1.014
28685WAT     H186297   4.442   9.692   1.014
28685WAT     H286298   4.309   9.629   0.943
28686WAT      O86299   0.294   6.515   7.625
28686WAT     H186300   0.271   6.431   7.576
28686WAT     H286301   0.369   6.562   7.578
28687WAT      O86302   4.411   3.208   6.416
28687WAT     H186303   4.470   3.160   6.351
28687WAT     H286304   4.330   3.152   6.435
28688WAT      O86305   4.980   9.101   6.429
28688WAT     H186306   5.035   9.130   6.507
28688WAT     H286307   4.996   9.162   6.351
28689WAT      O86308   7.015   1.628   7.116
28689WAT     H186309   7.113   1.613   7.128
28689WAT     H286310   6.999   1.721   7.083
28690WAT      O86311   9.795   4.588   9.860
28690WAT     H186312   9.779   4.686   9.848
28690WAT     H286313   9.756   4.537   9.783
28691WAT      O86314   4.721   1.093   4.401
28691WAT     H186315   4.746   1.148   4.321
28691WAT     H286316   4.764   1.003   4.395
28692WAT      O86317   0.245   9.384   6.042
28692WAT     H186318   0.283   9.457   5.986
28692WAT     H286319   0.267   9.402   6.138
28693WAT      O86320   4.472   3.837   4.954
28693WAT     H186321   4.539   3.890   4.903
28693WAT     H286322   4.472   3.865   5.050
28694WAT      O86323   8.804   3.895   7.987
28694WAT     H186324   8.876   3.911   8.054
28694WAT     H286325   8.815   3.958   7.910
28695WAT      O86326   4.394   6.665   8.599
28695WAT     H186327   4.295   6.670   8.597
28695WAT     H286328   4.423   6.602   8.672
28696WAT      O86329   2.278   7.882   3.384
28696WAT     H186330   2.347   7.953   3.392
28696WAT     H286331   2.312   7.809   3.325
28697WAT      O86332   6.341   6.559   7.140
28697WAT     H186333   6.364   6.611   7.222
28697WAT     H286334   6.282   6.613   7.081
28698WAT      O86335   5.789   0.692   9.543
28698WAT     H186336   5.690   0.696   9.534
28698WAT     H286337   5.832   0.740   9.466
28699WAT      O86338   2.159   4.387   3.456
28699WAT     H186339   2.060   4.388   3.468
28699WAT     H286340   2.192   4.292   3.456
28700WAT      O86341   8.606   1.727   1.907
28700WAT     H186342   8.517   1.735   1.950
28700WAT     H286343   8.655   1.815   1.915
28701WAT      O86344   8.435   9.390   7.907
28701WAT     H186345   8.533   9.389   7.924
28701WAT     H286346   8.398   9.479   7.934
28702WAT      O86347   0.546   3.791   3.516
28702WAT     H186348   0.459   3.801   3.467
28702WAT     H286349   0.615   3.849   3.475
28703WAT      O86350   0.706   8.518   5.480
28703WAT     H186351   0.745   8.544   5.391
28703WAT     H286352   0.777   8.523   5.550
28704WAT      O86353   5.742   7.708   5.480
28704WAT     H186354   5.836   7.741   5.476
28704WAT     H286355   5.719   7.665   5.393
28705WAT      O86356   5.863   3.151   4.547
28705WAT     H186357   5.831   3.146   4.452
28705WAT     H286358   5.810   3.088   4.603
28706WAT      O86359   4.799   0.584   3.175
28706WAT     H186360   4.751   0.648   3.235
28706WAT     H286361   4.749   0.497   3.173
28707WAT      O86362   8.213   4.335   7.216
28707WAT     H186363   8.238   4.238   7.211
28707WAT     H286364   8.291   4.390   7.186
28708WAT      O86365   3.417   4.435   1.100
28708WAT     H186366   3.398   4.424   1.002
28708WAT     H286367   3.513   4.460   1.113
28709WAT      O86368   2.673   2.426   3.753
28709WAT     H186369   2.722   2.459   3.833
28709WAT     H286370   2.706   2.334   3.729
28710WAT      O86371   5.639   6.390   9.815
28710WAT     H186372   5.727   6.358   9.781
28710WAT     H286373   5.605   6.463   9.756
28711WAT      O86374   6.206   1.955   6.062
28711WAT     H186375   6.264   2.026   6.102
28711WAT     H286376   6.249   1.865   6.074
28712WAT      O86377   5.182   4.182   4.392
28712WAT     H186378   5.215   4.275   4.407
28712WAT     H286379   5.216   4.123   4.464
28713WAT      O86380   7.818   8.487   8.315
28713WAT     H186381   7.726   8.449   8.319
28713WAT     H286382   7.824   8.551   8.239
28714WAT      O86383   3.085   2.697   4.582
28714WAT     H186384   3.094   2.796   4.576
28714WAT     H286385   3.006   2.668   4.529
28715WAT      O86386   9.847   9.719   5.750
28715WAT     H186387   9.818   9.626   5.727
28715WAT     H286388   9.766   9.774   5.774
28716WAT      O86389   6.003   0.122   7.472
28716WAT     H186390   6.067   0.171   7.532
28716WAT     H286391   5.960   0.187   7.409
28717WAT      O86392   6.689   0.075   5.246
28717WAT     H186393   6.650   0.147   5.303
28717WAT     H286394   6.715   0.113   5.157
28718WAT      O86395   3.277   5.414   3.006
28718WAT     H186396   3.228   5.338   3.049
28718WAT     H286397   3.256   5.416   2.908
28719WAT      O86398   1.263   8.946   4.752
28719WAT     H186399   1.288   8.898   4.668
28719WAT     H286400   1.344   8.959   4.809
28720WAT      O86401   1.106   8.193   7.911
28720WAT     H186402   1.176   8.202   7.981
28720WAT     H286403   1.019   8.168   7.954
28721WAT      O86404   8.785   7.944   0.263
28721WAT     H186405   8.871   7.894   0.262
28721WAT     H286406   8.779   7.998   0.347
28722WAT      O86407   6.682   0.873   1.400
28722WAT     H186408   6.780   0.894   1.403
28722WAT     H286409   6.630   0.955   1.423
28723WAT      O86410   3.745   0.767   1.472
28723WAT     H186411   3.787   0.746   1.560
28723WAT     H286412   3.646   0.765   1.481
28724WAT      O86413   3.739   6.428   2.864
28724WAT     H186414   3.695   6.354   2.915
28724WAT     H286415   3.675   6.464   2.796
28725WAT      O86416   5.322   8.345   4.151
28725WAT     H186417   5.304   8.267   4.092
28725WAT     H286418   5.252   8.351   4.222
28726WAT      O86419   9.326   4.131   4.459
28726WAT     H186420   9.241   4.085   4.432
28726WAT     H286421   9.401   4.065   4.458
28727WAT      O86422   1.178   9.040   9.648
28727WAT     H186423   1.127   9.126   9.654
28727WAT     H286424   1.275   9.060   9.630
28728WAT      O86425   8.277   7.482   4.381
28728WAT     H186426   8.181   7.506   4.393
28728WAT     H286427   8.317   7.461   4.470
28729WAT      O86428   7.521   8.477   8.312
28729WAT     H186429   7.523   8.512   8.406
28729WAT     H286430   7.491   8.382   8.314
28730WAT      O86431   2.682   6.841   4.611
28730WAT     H186432   2.622   6.763   4.595
28730WAT     H286433   2.755   6.815   4.675
28731WAT      O86434   4.845   7.568   9.725
28731WAT     H186435   4.944   7.571   9.740
28731WAT     H286436   4.816   7.473   9.716
28732WAT      O86437   6.639   9.236   7.815
28732WAT     H186438   6.676   9.145   7.798
28732WAT     H286439   6.708   9.305   7.790
28733WAT      O86440   5.040   1.083   4.157
28733WAT     H186441   4.953   1.128   4.178
28733WAT     H286442   5.108   1.107   4.227
28734WAT      O86443   9.016   5.890   1.317
28734WAT     H186444   8.982   5.821   1.381
28734WAT     H286445   9.027   5.977   1.364
28735WAT      O86446   0.931   4.218   2.330
28735WAT     H186447   0.857   4.184   2.388
28735WAT     H286448   0.903   4.212   2.234
28736WAT      O86449   7.614   9.581   8.110
28736WAT     H186450   7.648   9.647   8.177
28736WAT     H286451   7.682   9.509   8.098
28737WAT      O86452   0.814   5.167   0.746
28737WAT     H186453   0.747   5.231   0.784
28737WAT     H286454   0.801   5.162   0.647
28738WAT      O86455   8.783   5.141   4.677
28738WAT     H186456   8.772   5.162   4.774
28738WAT     H286457   8.731   5.208   4.623
28739WAT      O86458   9.894   5.438   3.442
28739WAT     H186459   9.833   5.508   3.404
28739WAT     H286460   9.855   5.347   3.425
28740WAT      O86461   3.959   3.959   3.196
28740WAT     H186462   3.996   4.047   3.225
28740WAT     H286463   3.864   3.970   3.167
28741WAT      O86464   3.990   6.963   7.612
28741WAT     H186465   4.011   6.980   7.515
28741WAT     H286466   4.048   6.888   7.645
28742WAT      O86467   6.026   6.157   8.894
28742WAT     H186468   6.119   6.140   8.925
28742WAT     H286469   6.027   6.197   8.803
28743WAT      O86470   5.780   0.135   5.141
28743WAT     H186471   5.699   0.172   5.096
28743WAT     H286472   5.838   0.209   5.174
28744WAT      O86473   6.212   5.262   7.599
28744WAT     H186474   6.251   5.345   7.640
28744WAT     H286475   6.216   5.269   7.499
28745WAT      O86476   8.439   8.006   6.272
28745WAT     H186477   8.538   8.007   6.258
28745WAT     H286478   8.408   8.099   6.291
28746WAT      O86479   6.060   8.340   3.488
28746WAT     H186480   6.039   8.280   3.411
28746WAT     H286481   6.002   8.316   3.566
28747WAT      O86482   8.138   0.040   9.106
28747WAT     H186483   8.169  -0.048   9.070
28747WAT     H286484   8.214   0.086   9.153
28748WAT      O86485   7.498   9.444   1.097
28748WAT     H186486   7.527   9.366   1.042
28748WAT     H286487   7.495   9.526   1.040
28749WAT      O86488   3.274   6.925   7.622
28749WAT     H186489   3.239   7.019   7.615
28749WAT     H286490   3.197   6.861   7.624
28750WAT      O86491   7.923   4.858   7.064
28750WAT     H186492   7.949   4.828   7.156
28750WAT     H286493   8.003   4.895   7.017
28751WAT      O86494   4.558   6.669   0.881
28751WAT     H186495   4.653   6.694   0.863
28751WAT     H286496   4.500   6.700   0.805
28752WAT      O86497   1.544   4.163   0.104
28752WAT     H186498   1.496   4.135   0.021
28752WAT     H286499   1.545   4.087   0.169
28753WAT      O86500   3.442   0.144   0.088
28753WAT     H186501   3.493   0.174   0.169
28753WAT     H286502   3.388   0.221   0.054
28754WAT      O86503   1.851   3.078   9.329
28754WAT     H186504   1.822   2.988   9.296
28754WAT     H286505   1.851   3.143   9.254
28755WAT      O86506   3.907   1.316   4.083
28755WAT     H186507   3.883   1.410   4.110
28755WAT     H286508   3.825   1.269   4.050
28756WAT      O86509   7.636   9.667   5.378
28756WAT     H186510   7.605   9.758   5.404
28756WAT     H286511   7.571   9.599   5.411
28757WAT      O86512   3.845   8.864   1.712
28757WAT     H186513   3.829   8.855   1.614
28757WAT     H286514   3.766   8.828   1.762
28758WAT      O86515   5.569   4.802   5.094
28758WAT     H186516   5.486   4.802   5.149
28758WAT     H286517   5.624   4.722   5.116
28759WAT      O86518   8.406   9.197   1.975
28759WAT     H186519   8.353   9.273   2.012
28759WAT     H286520   8.503   9.222   1.974
28760WAT      O86521   9.123   4.206   2.426
28760WAT     H186522   9.210   4.179   2.466
28760WAT     H286523   9.127   4.195   2.326
28761WAT      O86524   7.754   1.374   8.150
28761WAT     H186525   7.800   1.291   8.183
28761WAT     H286526   7.785   1.394   8.057
28762WAT      O86527   0.300   6.326   7.060
28762WAT     H186528   0.339   6.321   6.968
28762WAT     H286529   0.309   6.237   7.105
28763WAT      O86530   0.950   6.192   5.319
28763WAT     H186531   0.857   6.159   5.334
28763WAT     H286532   0.949   6.262   5.248
28764WAT      O86533   3.036   0.934   6.406
28764WAT     H186534   3.034   0.867   6.332
28764WAT     H286535   3.115   0.994   6.394
28765WAT      O86536   1.959   9.720   8.188
28765WAT     H186537   1.917   9.779   8.118
28765WAT     H286538   1.936   9.625   8.169
28766WAT      O86539   1.810   2.219   9.107
28766WAT     H186540   1.869   2.142   9.080
28766WAT     H286541   1.808   2.287   9.034
28767WAT      O86542   1.034   8.742   1.841
28767WAT     H186543   0.989   8.715   1.925
28767WAT     H286544   1.022   8.670   1.772
28768WAT      O86545   5.763   0.022   0.430
28768WAT     H186546   5.728   0.114   0.415
28768WAT     H286547   5.783   0.008   0.527
28769WAT      O86548   4.180   6.963   1.927
28769WAT     H186549   4.091   6.975   1.884
28769WAT     H286550   4.233   7.047   1.917
28770WAT      O86551   2.511   9.158   7.681
28770WAT     H186552   2.443   9.200   7.621
28770WAT     H286553   2.484   9.173   7.777
28771WAT      O86554   3.848   0.284   3.042
28771WAT     H186555   3.807   0.201   3.080
28771WAT     H286556   3.776   0.352   3.026
28772WAT      O86557   7.731   0.543   0.342
28772WAT     H186558   7.747   0.582   0.433
28772WAT     H286559   7.633   0.551   0.320
28773WAT      O86560   7.984   3.766   2.695
28773WAT     H186561   8.040   3.693   2.654
28773WAT     H286562   8.022   3.855   2.669
28774WAT      O86563   2.363   1.016   5.979
28774WAT     H186564   2.325   1.076   5.908
28774WAT     H286565   2.289   0.964   6.021
28775WAT      O86566   4.582   7.847   1.945
28775WAT     H186567   4.583   7.838   1.846
28775WAT     H286568   4.522   7.921   1.972
28776WAT      O86569   7.612   1.504   1.322
28776WAT     H186570   7.532   1.504   1.262
28776WAT     H286571   7.683   1.445   1.283
28777WAT      O86572   8.453   7.094   9.577
28777WAT     H186573   8.440   7.150   9.495
28777WAT     H286574   8.539   7.120   9.621
28778WAT      O86575   4.502   2.255   3.860
28778WAT     H186576   4.426   2.209   3.815
28778WAT     H286577   4.585   2.242   3.807
28779WAT      O86578   4.375   3.193   2.255
28779WAT     H186579   4.394   3.291   2.259
28779WAT     H286580   4.427   3.152   2.180
28780WAT      O86581   3.205   0.473   9.153
28780WAT     H186582   3.295   0.469   9.195
28780WAT     H286583   3.154   0.552   9.189
28781WAT      O86584   6.229   5.775   8.584
28781WAT     H186585   6.213   5.689   8.634
28781WAT     H286586   6.158   5.787   8.515
28782WAT      O86587   3.122   8.192   5.224
28782WAT     H186588   3.138   8.285   5.191
28782WAT     H286589   3.198   8.134   5.196
28783WAT      O86590   1.746   2.159   2.395
28783WAT     H186591   1.796   2.074   2.378
28783WAT     H286592   1.654   2.136   2.429
28784WAT      O86593   4.858   6.305   4.802
28784WAT     H186594   4.798   6.352   4.738
28784WAT     H286595   4.805   6.239   4.855
28785WAT      O86596   4.650   0.670   1.704
28785WAT     H186597   4.610   0.578   1.711
28785WAT     H286598   4.679   0.686   1.610
28786WAT      O86599   8.546   5.666   4.424
28786WAT     H186600   8.502   5.652   4.512
28786WAT     H286601   8.587   5.581   4.392
28787WAT      O86602   5.398   5.086   7.670
28787WAT     H186603   5.478   5.027   7.678
28787WAT     H286604   5.317   5.037   7.701
28788WAT      O86605   5.929   5.402   2.207
28788WAT     H186606   5.850   5.373   2.261
28788WAT     H286607   5.902   5.411   2.111
28789WAT      O86608   3.267   0.850   1.200
28789WAT     H186609   3.360   0.835   1.165
28789WAT     H286610   3.271   0.906   1.282
28790WAT      O86611   6.373   4.370   0.136
28790WAT     H186612   6.293   4.326   0.096
28790WAT     H286613   6.454   4.313   0.122
28791WAT      O86614   5.135   8.968   8.665
28791WAT     H186615   5.120   8.992   8.569
28791WAT     H286616   5.177   8.877   8.671
28792WAT      O86617   8.202   8.606   1.504
28792WAT     H186618   8.291   8.570   1.533
28792WAT     H286619   8.155   8.644   1.583
28793WAT      O86620   2.746   5.288   8.416
28793WAT     H186621   2.747   5.305   8.515
28793WAT     H286622   2.663   5.326   8.376
28794WAT      O86623   5.161   3.103   1.068
28794WAT     H186624   5.132   3.082   0.974
28794WAT     H286625   5.088   3.077   1.131
28795WAT      O86626   4.869   8.616   0.392
28795WAT     H186627   4.919   8.694   0.428
28795WAT     H286628   4.858   8.625   0.293
28796WAT      O86629   1.861   5.426   1.020
28796WAT     H186630   1.864   5.395   0.925
28796WAT     H286631   1.853   5.526   1.023
28797WAT      O86632   0.582   2.511   3.086
28797WAT     H186633   0.637   2.481   3.008
28797WAT     H286634   0.643   2.536   3.161
28798WAT      O86635   6.035   9.168   3.517
28798WAT     H186636   6.093   9.124   3.449
28798WAT     H286637   5.978   9.100   3.563
28799WAT      O86638   0.499   1.361   4.140
28799WAT     H186639   0.486   1.264   4.123
28799WAT     H286640   0.418   1.411   4.107
28800WAT      O86641   3.947   8.623   4.941
28800WAT     H186642   4.023   8.567   4.905
28800WAT     H286643   3.890   8.567   5.000
28801WAT      O86644   3.536   2.823   3.083
28801WAT     H186645   3.631   2.801   3.108
28801WAT     H286646   3.527   2.823   2.983
28802WAT      O86647   8.800   6.395   7.568
28802WAT     H186648   8.751   6.331   7.510
28802WAT     H286649   8.872   6.347   7.619
28803WAT      O86650   6.665   3.640   2.337
28803WAT     H186651   6.746   3.693   2.313
28803WAT     H286652   6.595   3.702   2.374
28804WAT      O86653   3.471   4.538   2.187
28804WAT     H186654   3.537   4.464   2.199
28804WAT     H286655   3.474   4.570   2.092
28805WAT      O86656   0.256   9.305   5.157
28805WAT     H186657   0.220   9.245   5.085
28805WAT     H286658   0.268   9.252   5.241
28806WAT      O86659   2.705   2.328   1.008
28806WAT     H186660   2.631   2.327   0.941
28806WAT     H286661   2.732   2.422   1.027
28807WAT      O86662   3.844   8.936   3.042
28807WAT     H186663   3.783   8.924   3.120
28807WAT     H286664   3.935   8.961   3.074
28808WAT      O86665   8.614   2.681   3.660
28808WAT     H186666   8.653   2.621   3.590
28808WAT     H286667   8.517   2.694   3.643
28809WAT      O86668   8.020   3.835   1.884
28809WAT     H186669   8.025   3.754   1.943
28809WAT     H286670   7.970   3.812   1.801
28810WAT      O86671   7.907   4.162   2.767
28810WAT     H186672   7.821   4.117   2.793
28810WAT     H286673   7.964   4.098   2.716
28811WAT      O86674   1.717   8.249   3.617
28811WAT     H186675   1.701   8.319   3.686
28811WAT     H286676   1.692   8.284   3.527
28812WAT      O86677   6.745   8.613   3.521
28812WAT     H186678   6.655   8.637   3.557
28812WAT     H286679   6.788   8.544   3.579
28813WAT      O86680   6.170   9.305   2.531
28813WAT     H186681   6.182   9.344   2.622
28813WAT     H286682   6.197   9.371   2.461
28814WAT      O86683   8.804   2.333   9.070
28814WAT     H186684   8.725   2.272   9.058
28814WAT     H286685   8.789   2.417   9.017
28815WAT      O86686   0.715   6.234   7.087
28815WAT     H186687   0.778   6.217   7.163
28815WAT     H286688   0.654   6.310   7.109
28816WAT      O86689   6.605   1.453   6.007
28816WAT     H186690   6.566   1.481   5.920
28816WAT     H286691   6.607   1.531   6.070
28817WAT      O86692   3.299   5.376   9.303
28817WAT     H186693   3.329   5.281   9.311
28817WAT     H286694   3.237   5.385   9.225
28818WAT      O86695   5.281   4.748   5.120
28818WAT     H186696   5.233   4.836   5.115
28818WAT     H286697   5.294   4.713   5.027
28819WAT      O86698   5.576   2.170   1.925
28819WAT     H186699   5.503   2.126   1.872
28819WAT     H286700   5.618   2.103   1.986
28820WAT      O86701   2.128   3.070   8.513
28820WAT     H186702   2.148   3.075   8.415
28820WAT     H286703   2.044   3.017   8.527
28821WAT      O86704   7.850   8.161   9.112
28821WAT     H186705   7.828   8.258   9.126
28821WAT     H286706   7.846   8.112   9.199
28822WAT      O86707   1.631   0.739   9.795
28822WAT     H186708   1.682   0.809   9.846
28822WAT     H286709   1.548   0.780   9.757
28823WAT      O86710   2.981   0.970   6.917
28823WAT     H186711   2.970   1.014   6.828
28823WAT     H286712   3.079   0.967   6.940
28824WAT      O86713   0.732   3.409   8.623
28824WAT     H186714   0.672   3.344   8.576
28824WAT     H286715   0.754   3.374   8.714
28825WAT      O86716   8.568   9.463   6.301
28825WAT     H186717   8.635   9.410   6.249
28825WAT     H286718   8.538   9.409   6.380
28826WAT      O86719   6.018   2.838   0.220
28826WAT     H186720   6.112   2.811   0.200
28826WAT     H286721   5.964   2.837   0.136
28827WAT      O86722   3.730   4.528   1.530
28827WAT     H186723   3.680   4.481   1.457
28827WAT     H286724   3.719   4.478   1.615
28828WAT      O86725   6.879   6.540   1.384
28828WAT     H186726   6.902   6.464   1.324
28828WAT     H286727   6.916   6.521   1.476
28829WAT      O86728   2.494   4.884   2.895
28829WAT     H186729   2.449   4.814   2.950
28829WAT     H286730   2.426   4.928   2.836
28830WAT      O86731   9.767   5.424   0.222
28830WAT     H186732   9.741   5.458   0.131
28830WAT     H286733   9.863   5.446   0.240
28831WAT      O86734   8.218   7.046   5.134
28831WAT     H186735   8.317   7.058   5.122
28831WAT     H286736   8.198   7.027   5.230
28832WAT      O86737   6.104   7.542   9.627
28832WAT     H186738   6.108   7.544   9.727
28832WAT     H286739   6.184   7.494   9.591
28833WAT      O86740   8.804   3.438   5.009
28833WAT     H186741   8.822   3.514   4.946
28833WAT     H286742   8.731   3.463   5.072
28834WAT      O86743   1.088   8.035   5.797
28834WAT     H186744   1.054   7.942   5.811
28834WAT     H286745   1.089   8.083   5.885
28835WAT      O86746   2.561   1.072   1.586
28835WAT     H186747   2.539   1.090   1.682
28835WAT     H286748   2.488   1.109   1.528
28836WAT      O86749   8.256   8.297   4.917
28836WAT     H186750   8.295   8.206   4.908
28836WAT     H286751   8.167   8.299   4.871
28837WAT      O86752   7.363   3.909   1.803
28837WAT     H186753   7.263   3.913   1.812
28837WAT     H286754   7.397   3.824   1.842
28838WAT      O86755   6.560   3.112   1.135
28838WAT     H186756   6.481   3.128   1.194
28838WAT     H286757   6.554   3.169   1.054
28839WAT      O86758   3.891   1.665   1.297
28839WAT     H186759   3.862   1.757   1.321
28839WAT     H286760   3.990   1.657   1.307
28840WAT      O86761   4.730   8.711   5.381
28840WAT     H186762   4.787   8.753   5.451
28840WAT     H286763   4.654   8.663   5.425
28841WAT      O86764   0.621   6.001   4.077
28841WAT     H186765   0.682   6.068   4.119
28841WAT     H286766   0.557   6.047   4.016
28842WAT      O86767   2.378   1.702   9.121
28842WAT     H186768   2.282   1.681   9.139
28842WAT     H286769   2.423   1.622   9.081
28843WAT      O86770   6.871   9.319   2.134
28843WAT     H186771   6.945   9.252   2.127
28843WAT     H286772   6.801   9.284   2.196
28844WAT      O86773   7.320   3.344   5.303
28844WAT     H186774   7.340   3.435   5.266
28844WAT     H286775   7.333   3.345   5.402
28845WAT      O86776   2.799   7.881   3.157
28845WAT     H186777   2.810   7.839   3.247
28845WAT     H286778   2.779   7.810   3.089
28846WAT      O86779   3.321   7.357   1.619
28846WAT     H186780   3.349   7.315   1.533
28846WAT     H286781   3.289   7.286   1.682
28847WAT      O86782   5.464   1.453   6.954
28847WAT     H186783   5.556   1.464   6.990
28847WAT     H286784   5.418   1.542   6.954
28848WAT      O86785   5.203   5.786   6.091
28848WAT     H186786   5.274   5.846   6.128
28848WAT     H286787   5.139   5.841   6.036
28849WAT      O86788   1.704   4.875   0.008
28849WAT     H186789   1.629   4.935   0.035
28849WAT     H286790   1.750   4.840   0.090
28850WAT      O86791   7.996   2.873   5.907
28850WAT     H186792   7.902   2.890   5.935
28850WAT     H286793   8.014   2.917   5.819
28851WAT      O86794   2.874   4.255   5.495
28851WAT     H186795   2.800   4.320   5.514
28851WAT     H286796   2.908   4.268   5.402
28852WAT      O86797   8.643   1.342   3.282
28852WAT     H186798   8.588   1.260   3.300
28852WAT     H286799   8.609   1.418   3.337
28853WAT      O86800   1.204   5.661   4.906
28853WAT     H186801   1.292   5.695   4.875
28853WAT     H286802   1.146   5.737   4.936
28854WAT      O86803   7.591   6.865   1.110
28854WAT     H186804   7.560   6.780   1.153
28854WAT     H286805   7.593   6.853   1.010
28855WAT      O86806   6.459   3.545   3.296
28855WAT     H186807   6.388   3.598   3.343
28855WAT     H286808   6.439   3.543   3.198
28856WAT      O86809   5.816   4.036   4.265
28856WAT     H186810   5.909   4.018   4.232
28856WAT     H286811   5.783   3.957   4.317
28857WAT      O86812   7.214   8.190   4.028
28857WAT     H186813   7.267   8.251   3.969
28857WAT     H286814   7.120   8.185   3.995
28858WAT      O86815   7.453   9.412   8.891
28858WAT     H186816   7.475   9.469   8.812
28858WAT     H286817   7.385   9.344   8.865
28859WAT      O86818   7.655   1.358   2.495
28859WAT     H186819   7.691   1.296   2.426
28859WAT     H286820   7.665   1.452   2.464
28860WAT      O86821   5.180   3.671   5.744
28860WAT     H186822   5.177   3.576   5.714
28860WAT     H286823   5.097   3.693   5.795
28861WAT      O86824   7.381   9.790   2.259
28861WAT     H186825   7.413   9.874   2.216
28861WAT     H286826   7.300   9.809   2.315
28862WAT      O86827   7.771   7.284   4.137
28862WAT     H186828   7.680   7.251   4.160
28862WAT     H286829   7.803   7.240   4.053
28863WAT      O86830   5.955   9.402   6.112
28863WAT     H186831   5.932   9.477   6.174
28863WAT     H286832   6.040   9.359   6.142
28864WAT      O86833   3.163   3.709   3.923
28864WAT     H186834   3.237   3.658   3.879
28864WAT     H286835   3.164   3.691   4.021
28865WAT      O86836   2.145   9.320   4.429
28865WAT     H186837   2.243   9.334   4.443
28865WAT     H286838   2.094   9.388   4.482
28866WAT      O86839   0.160   0.998   1.308
28866WAT     H186840   0.153   0.918   1.369
28866WAT     H286841   0.192   0.968   1.218
28867WAT      O86842   7.306   9.538   9.132
28867WAT     H186843   7.216   9.496   9.118
28867WAT     H286844   7.372   9.496   9.070
28868WAT      O86845   0.523   4.593   0.549
28868WAT     H186846   0.546   4.579   0.453
28868WAT     H286847   0.605   4.584   0.605
28869WAT      O86848   4.623   9.510   1.350
28869WAT     H186849   4.621   9.447   1.427
28869WAT     H286850   4.718   9.529   1.325
28870WAT      O86851   2.829   2.142   4.846
28870WAT     H186852   2.905   2.105   4.899
28870WAT     H286853   2.863   2.212   4.784
28871WAT      O86854   3.713   9.185   0.629
28871WAT     H186855   3.791   9.160   0.571
28871WAT     H286856   3.687   9.280   0.610
28872WAT      O86857   1.598   0.581   3.796
28872WAT     H186858   1.683   0.593   3.847
28872WAT     H286859   1.520   0.585   3.859
28873WAT      O86860   4.265   9.685   4.208
28873WAT     H186861   4.249   9.677   4.306
28873WAT     H286862   4.347   9.633   4.183
28874WAT      O86863   6.036   1.654   0.697
28874WAT     H186864   6.062   1.644   0.793
28874WAT     H286865   6.018   1.750   0.677
28875WAT      O86866   3.247   0.661   7.615
28875WAT     H186867   3.148   0.664   7.630
28875WAT     H286868   3.292   0.718   7.684
28876WAT      O86869   0.027   0.186   7.627
28876WAT     H186870   0.011   0.269   7.681
28876WAT     H286871   0.113   0.194   7.577
28877WAT      O86872   3.580   2.055   0.771
28877WAT     H186873   3.485   2.026   0.762
28877WAT     H286874   3.614   2.086   0.682
28878WAT      O86875   3.412   1.301   2.316
28878WAT     H186876   3.471   1.346   2.383
28878WAT     H286877   3.467   1.246   2.254
28879WAT      O86878   6.764   6.132   8.976
28879WAT     H186879   6.716   6.207   8.929
28879WAT     H286880   6.859   6.159   8.993
28880WAT      O86881   8.883   4.589   7.203
28880WAT     H186882   8.965   4.564   7.256
28880WAT     H286883   8.905   4.665   7.142
28881WAT      O86884   5.697   4.028   6.890
28881WAT     H186885   5.778   4.041   6.833
28881WAT     H286886   5.719   3.970   6.968
28882WAT      O86887   1.428   5.428   7.214
28882WAT     H186888   1.475   5.472   7.138
28882WAT     H286889   1.336   5.466   7.223
28883WAT      O86890   5.565   0.686   1.261
28883WAT     H186891   5.651   0.712   1.217
28883WAT     H286892   5.528   0.603   1.219
28884WAT      O86893   3.248   4.731   6.499
28884WAT     H186894   3.228   4.798   6.428
28884WAT     H286895   3.346   4.730   6.518
28885WAT      O86896   6.958   4.527   9.250
28885WAT     H186897   6.928   4.436   9.220
28885WAT     H286898   6.950   4.592   9.175
28886WAT      O86899   9.550   9.549   4.618
28886WAT     H186900   9.629   9.492   4.594
28886WAT     H286901   9.516   9.523   4.708
28887WAT      O86902   6.936   0.314   4.809
28887WAT     H186903   7.034   0.327   4.822
28887WAT     H286904   6.920   0.262   4.725
28888WAT      O86905   6.173   1.251   9.497
28888WAT     H186906   6.178   1.161   9.541
28888WAT     H286907   6.265   1.290   9.493
28889WAT      O86908   3.380   6.275   2.890
28889WAT     H186909   3.304   6.321   2.843
28889WAT     H286910   3.395   6.185   2.848
28890WAT      O86911   3.873   6.741   3.462
28890WAT     H186912   3.960   6.712   3.421
28890WAT     H286913   3.798   6.718   3.401
28891WAT      O86914   7.981   9.572   4.141
28891WAT     H186915   7.931   9.488   4.164
28891WAT     H286916   7.917   9.648   4.132
28892WAT      O86917   2.198   8.187   9.109
28892WAT     H186918   2.242   8.264   9.063
28892WAT     H286919   2.269   8.122   9.139
28893WAT      O86920   2.048   1.581   7.329
28893WAT     H186921   1.993   1.527   7.265
28893WAT     H286922   2.074   1.667   7.285
28894WAT      O86923   7.339   3.737   7.570
28894WAT     H186924   7.300   3.746   7.662
28894WAT     H286925   7.265   3.726   7.504
28895WAT      O86926   8.829   7.816   7.659
28895WAT     H186927   8.732   7.808   7.681
28895WAT     H286928   8.843   7.798   7.562
28896WAT      O86929   1.323   4.254   9.617
28896WAT     H186930   1.371   4.170   9.640
28896WAT     H286931   1.305   4.306   9.700
28897WAT      O86932   9.225   1.635   6.078
28897WAT     H186933   9.201   1.732   6.076
28897WAT     H286934   9.167   1.585   6.013
28898WAT      O86935   8.046   3.300   9.756
28898WAT     H186936   8.003   3.387   9.734
28898WAT     H286937   8.130   3.317   9.808
28899WAT      O86938   0.806   7.888   3.737
28899WAT     H186939   0.707   7.884   3.751
28899WAT     H286940   0.834   7.983   3.724
28900WAT      O86941   1.438   3.588   1.048
28900WAT     H186942   1.535   3.611   1.050
28900WAT     H286943   1.414   3.536   1.129
28901WAT      O86944   9.230   3.633   7.621
28901WAT     H186945   9.147   3.658   7.672
28901WAT     H286946   9.305   3.619   7.686
28902WAT      O86947   8.554   9.275   2.997
28902WAT     H186948   8.553   9.295   3.095
28902WAT     H286949   8.622   9.332   2.951
28903WAT      O86950   1.403   7.783   7.505
28903WAT     H186951   1.485   7.805   7.558
28903WAT     H286952   1.322   7.800   7.560
28904WAT      O86953   0.821   3.089   7.408
28904WAT     H186954   0.743   3.069   7.467
28904WAT     H286955   0.888   3.143   7.459
28905WAT      O86956   6.229   2.666   4.666
28905WAT     H186957   6.313   2.718   4.656
28905WAT     H286958   6.249   2.568   4.658
28906WAT      O86959   4.434   9.349   6.624
28906WAT     H186960   4.518   9.297   6.607
28906WAT     H286961   4.440   9.438   6.579
28907WAT      O86962   7.751   0.266   5.309
28907WAT     H186963   7.671   0.225   5.265
28907WAT     H286964   7.724   0.348   5.358
28908WAT      O86965   4.785   4.158   6.643
28908WAT     H186966   4.798   4.096   6.720
28908WAT     H286967   4.707   4.127   6.588
28909WAT      O86968   9.523   8.823   2.895
28909WAT     H186969   9.539   8.813   2.797
28909WAT     H286970   9.480   8.740   2.930
28910WAT      O86971   9.728   3.126   0.298
28910WAT     H186972   9.668   3.170   0.232
28910WAT     H286973   9.718   3.026   0.290
28911WAT      O86974   2.938   1.414   2.998
28911WAT     H186975   2.932   1.351   2.921
28911WAT     H286976   2.846   1.435   3.031
28912WAT      O86977   1.645   1.366   2.180
28912WAT     H186978   1.709   1.434   2.216
28912WAT     H286979   1.624   1.388   2.084
28913WAT      O86980   6.543   2.624   5.005
28913WAT     H186981   6.636   2.589   5.018
28913WAT     H286982   6.486   2.552   4.966
28914WAT      O86983   0.627   6.977   3.576
28914WAT     H186984   0.681   6.893   3.562
28914WAT     H286985   0.679   7.040   3.633
28915WAT      O86986   5.561   4.285   8.692
28915WAT     H186987   5.524   4.301   8.601
28915WAT     H286988   5.656   4.317   8.696
28916WAT      O86989   7.655   8.053   8.632
28916WAT     H186990   7.600   8.136   8.621
28916WAT     H286991   7.729   8.070   8.697
28917WAT      O86992   9.062   0.068   9.114
28917WAT     H186993   8.977   0.061   9.167
28917WAT     H286994   9.071  -0.014   9.056
28918WAT      O86995   8.788   8.210   9.764
28918WAT     H186996   8.701   8.253   9.738
28918WAT     H286997   8.828   8.260   9.840
28919WAT      O86998   9.451   6.710   5.903
28919WAT     H186999   9.444   6.613   5.927
28919WAT     H287000   9.467   6.764   5.986
28920WAT      O87001   6.481   6.405   7.522
28920WAT     H187002   6.441   6.335   7.463
28920WAT     H287003   6.495   6.368   7.614
28921WAT      O87004   9.470   9.528   2.828
28921WAT     H187005   9.398   9.464   2.854
28921WAT     H287006   9.556   9.477   2.813
28922WAT      O87007   0.222   3.954   1.937
28922WAT     H187008   0.253   4.044   1.908
28922WAT     H287009   0.231   3.946   2.036
28923WAT      O87010   0.010   0.697   4.440
28923WAT     H187011   0.038   0.727   4.532
28923WAT     H287012  -0.036   0.772   4.393
28924WAT      O87013   7.696   4.809   8.411
28924WAT     H187014   7.684   4.739   8.482
28924WAT     H287015   7.787   4.798   8.370
28925WAT      O87016   3.433   2.365   3.043
28925WAT     H187017   3.411   2.304   3.119
28925WAT     H287018   3.533   2.371   3.032
28926WAT      O87019   6.947   5.509   2.217
28926WAT     H187020   6.906   5.488   2.129
28926WAT     H287021   6.910   5.448   2.287
28927WAT      O87022   3.166   7.627   4.616
28927WAT     H187023   3.103   7.560   4.577
28927WAT     H287024   3.202   7.592   4.703
28928WAT      O87025   0.934   5.220   3.982
28928WAT     H187026   1.015   5.187   4.031
28928WAT     H287027   0.875   5.269   4.046
28929WAT      O87028   7.016   9.013   0.628
28929WAT     H187029   7.104   9.033   0.671
28929WAT     H287030   7.019   8.922   0.588
28930WAT      O87031   4.963   2.849   0.957
28930WAT     H187032   4.921   2.786   0.892
28930WAT     H287033   4.892   2.892   1.012
28931WAT      O87034   8.129   1.220   9.303
28931WAT     H187035   8.089   1.201   9.392
28931WAT     H287036   8.223   1.186   9.301
28932WAT      O87037   4.082   1.745   7.963
28932WAT     H187038   4.151   1.675   7.944
28932WAT     H287039   4.082   1.812   7.889
28933WAT      O87040   8.426   6.188   1.982
28933WAT     H187041   8.525   6.202   1.980
28933WAT     H287042   8.386   6.221   1.897
28934WAT      O87043   7.335   7.579   3.965
28934WAT     H187044   7.370   7.510   3.902
28934WAT     H287045   7.350   7.549   4.059
28935WAT      O87046   2.266   0.066   7.701
28935WAT     H187047   2.292  -0.027   7.673
28935WAT     H287048   2.253   0.068   7.800
28936WAT      O87049   6.150   2.625   8.524
28936WAT     H187050   6.176   2.706   8.576
28936WAT     H287051   6.187   2.543   8.569
28937WAT      O87052   7.151   2.343   8.994
28937WAT     H187053   7.204   2.264   8.965
28937WAT     H287054   7.199   2.391   9.067
28938WAT      O87055   7.034   3.292   3.145
28938WAT     H187056   7.107   3.226   3.127
28938WAT     H287057   6.960   3.248   3.195
28939WAT      O87058   2.001   7.339   4.468
28939WAT     H187059   2.017   7.437   4.454
28939WAT     H287060   2.065   7.286   4.413
28940WAT      O87061   1.351   1.971   9.088
28940WAT     H187062   1.376   1.874   9.077
28940WAT     H287063   1.413   2.027   9.033
28941WAT      O87064   0.932   9.271   3.087
28941WAT     H187065   0.960   9.295   3.180
28941WAT     H287066   0.833   9.278   3.079
28942WAT      O87067   7.436   8.061   3.704
28942WAT     H187068   7.400   8.053   3.611
28942WAT     H287069   7.376   8.011   3.767
28943WAT      O87070   2.225   5.542   5.005
28943WAT     H187071   2.279   5.604   5.063
28943WAT     H287072   2.274   5.455   4.994
28944WAT      O87073   1.712   2.576   3.556
28944WAT     H187074   1.688   2.507   3.486
28944WAT     H287075   1.675   2.665   3.528
28945WAT      O87076   3.891   2.373   0.093
28945WAT     H187077   3.904   2.281   0.131
28945WAT     H287078   3.909   2.372  -0.005
28946WAT      O87079   3.508   4.659   6.502
28946WAT     H187080   3.563   4.576   6.502
28946WAT     H287081   3.565   4.737   6.525
28947WAT      O87082   5.996   9.742   2.560
28947WAT     H187083   5.917   9.803   2.565
28947WAT     H287084   6.066   9.772   2.624
28948WAT      O87085   4.909   1.563   8.904
28948WAT     H187086   4.935   1.635   8.968
28948WAT     H287087   4.945   1.476   8.936
28949WAT      O87088   3.809   3.985   7.607
28949WAT     H187089   3.884   4.005   7.543
28949WAT     H287090   3.832   4.023   7.697
28950WAT      O87091   2.047   1.990   7.699
28950WAT     H187092   1.995   2.021   7.619
28950WAT     H287093   2.144   1.983   7.675
28951WAT      O87094   1.877   0.839   8.053
28951WAT     H187095   1.935   0.873   7.979
28951WAT     H287096   1.930   0.779   8.112
28952WAT      O87097   9.776   3.738   3.141
28952WAT     H187098   9.723   3.821   3.126
28952WAT     H287099   9.749   3.669   3.074
28953WAT      O87100   2.850   2.179   9.344
28953WAT     H187101   2.844   2.210   9.250
28953WAT     H287102   2.778   2.112   9.362
28954WAT      O87103   5.302   2.342  -0.004
28954WAT     H187104   5.218   2.392  -0.024
28954WAT     H287105   5.335   2.367   0.087
28955WAT      O87106   0.099   0.328   1.914
28955WAT     H187107   0.177   0.365   1.863
28955WAT     H287108   0.023   0.311   1.851
28956WAT      O87109   7.919   1.900   4.951
28956WAT     H187110   7.923   1.895   5.051
28956WAT     H287111   7.839   1.952   4.923
28957WAT      O87112   1.852   8.640   7.513
28957WAT     H187113   1.879   8.557   7.463
28957WAT     H287114   1.823   8.710   7.448
28958WAT      O87115   9.086   1.758   1.429
28958WAT     H187116   9.168   1.726   1.381
28958WAT     H287117   9.045   1.682   1.479
28959WAT      O87118   9.586   4.256   8.657
28959WAT     H187119   9.592   4.172   8.712
28959WAT     H287120   9.522   4.319   8.701
28960WAT      O87121   8.135   3.980   7.986
28960WAT     H187122   8.086   3.962   8.072
28960WAT     H287123   8.082   4.044   7.931
28961WAT      O87124   0.756   5.861   3.577
28961WAT     H187125   0.702   5.860   3.493
28961WAT     H287126   0.787   5.768   3.598
28962WAT      O87127   9.162   9.057   6.694
28962WAT     H187128   9.142   9.150   6.725
28962WAT     H287129   9.123   8.991   6.759
28963WAT      O87130   2.542   2.757   1.936
28963WAT     H187131   2.495   2.721   1.855
28963WAT     H287132   2.508   2.849   1.956
28964WAT      O87133   8.058   3.185   7.370
28964WAT     H187134   8.129   3.199   7.440
28964WAT     H287135   7.982   3.248   7.388
28965WAT      O87136   2.743   1.512   8.730
28965WAT     H187137   2.841   1.530   8.721
28965WAT     H287138   2.729   1.420   8.766
28966WAT      O87139   5.851   4.738   9.339
28966WAT     H187140   5.885   4.697   9.255
28966WAT     H287141   5.803   4.669   9.393
28967WAT      O87142   1.031   1.398   5.381
28967WAT     H187143   1.109   1.394   5.319
28967WAT     H287144   1.060   1.435   5.469
28968WAT      O87145   6.415   5.169   2.832
28968WAT     H187146   6.317   5.165   2.811
28968WAT     H287147   6.427   5.173   2.931
28969WAT      O87148   4.665   3.747   2.363
28969WAT     H187149   4.618   3.659   2.364
28969WAT     H287150   4.641   3.798   2.445
28970WAT      O87151   7.872   9.519   7.607
28970WAT     H187152   7.818   9.600   7.583
28970WAT     H287153   7.961   9.525   7.562
28971WAT      O87154   8.760   1.779   6.994
28971WAT     H187155   8.781   1.835   6.913
28971WAT     H287156   8.760   1.836   7.075
28972WAT      O87157   1.943   3.981   5.522
28972WAT     H187158   2.038   3.968   5.495
28972WAT     H287159   1.931   4.074   5.557
28973WAT      O87160   6.742   6.859   3.740
28973WAT     H187161   6.757   6.951   3.773
28973WAT     H287162   6.659   6.857   3.684
28974WAT      O87163   8.038   5.633   5.589
28974WAT     H187164   8.049   5.647   5.688
28974WAT     H287165   8.115   5.580   5.555
28975WAT      O87166   3.097   7.091   8.589
28975WAT     H187167   3.087   7.151   8.668
28975WAT     H287168   3.029   7.018   8.594
28976WAT      O87169   0.194   7.302   8.453
28976WAT     H187170   0.140   7.270   8.531
28976WAT     H287171   0.246   7.383   8.478
28977WAT      O87172   7.234   5.588   8.218
28977WAT     H187173   7.176   5.531   8.159
28977WAT     H287174   7.238   5.548   8.309
28978WAT      O87175   3.296   3.848   0.869
28978WAT     H187176   3.272   3.773   0.807
28978WAT     H287177   3.353   3.813   0.943
28979WAT      O87178   8.549   1.631   7.251
28979WAT     H187179   8.571   1.727   7.234
28979WAT     H287180   8.527   1.586   7.164
28980WAT      O87181   5.217   7.878   4.394
28980WAT     H187182   5.191   7.960   4.343
28980WAT     H287183   5.214   7.799   4.334
28981WAT      O87184   0.122   5.691   0.701
28981WAT     H187185   0.219   5.692   0.676
28981WAT     H287186   0.091   5.596   0.709
28982WAT      O87187   3.481   5.208   1.393
28982WAT     H187188   3.426   5.190   1.474
28982WAT     H287189   3.512   5.121   1.354
28983WAT      O87190   6.089   2.259   1.911
28983WAT     H187191   6.168   2.238   1.853
28983WAT     H287192   6.110   2.337   1.970
28984WAT      O87193   9.244   2.810   7.870
28984WAT     H187194   9.277   2.761   7.790
28984WAT     H287195   9.145   2.797   7.879
28985WAT      O87196   3.696   1.138   4.890
28985WAT     H187197   3.782   1.088   4.886
28985WAT     H287198   3.620   1.075   4.902
28986WAT      O87199   2.018   5.269   1.931
28986WAT     H187200   2.010   5.336   1.857
28986WAT     H287201   1.981   5.310   2.015
28987WAT      O87202   4.905   1.728   2.340
28987WAT     H187203   4.840   1.737   2.415
28987WAT     H287204   4.973   1.801   2.345
28988WAT      O87205   1.535   3.034   7.587
28988WAT     H187206   1.591   3.113   7.564
28988WAT     H287207   1.443   3.046   7.550
28989WAT      O87208   8.201   9.844   3.317
28989WAT     H187209   8.198   9.751   3.355
28989WAT     H287210   8.165   9.909   3.384
28990WAT      O87211   4.105   9.094   6.626
28990WAT     H187212   4.178   9.118   6.562
28990WAT     H287213   4.063   9.177   6.660
28991WAT      O87214   0.746   9.451   5.737
28991WAT     H187215   0.679   9.389   5.776
28991WAT     H287216   0.750   9.439   5.637
28992WAT      O87217   1.757   1.643   2.224
28992WAT     H187218   1.855   1.626   2.220
28992WAT     H287219   1.716   1.626   2.135
28993WAT      O87220   3.627   2.553   3.733
28993WAT     H187221   3.564   2.484   3.698
28993WAT     H287222   3.713   2.547   3.682
28994WAT      O87223   0.908   8.209   5.731
28994WAT     H187224   0.872   8.244   5.817
28994WAT     H287225   0.974   8.136   5.750
28995WAT      O87226   7.292   9.123   2.379
28995WAT     H187227   7.360   9.095   2.446
28995WAT     H287228   7.221   9.178   2.424
28996WAT      O87229   5.836   2.724   6.011
28996WAT     H187230   5.742   2.704   6.041
28996WAT     H287231   5.855   2.821   6.024
28997WAT      O87232   8.624   4.709   7.268
28997WAT     H187233   8.567   4.768   7.210
28997WAT     H287234   8.710   4.691   7.221
28998WAT      O87235   0.821   2.783   6.196
28998WAT     H187236   0.917   2.792   6.170
28998WAT     H287237   0.811   2.710   6.264
28999WAT      O87238   0.338   0.766   8.169
28999WAT     H187239   0.246   0.772   8.132
28999WAT     H287240   0.335   0.774   8.269
29000WAT      O87241   2.282   6.583   3.761
29000WAT     H187242   2.283   6.514   3.833
29000WAT     H287243   2.309   6.541   3.674
29001WAT      O87244   4.750   4.320   3.590
29001WAT     H187245   4.804   4.305   3.507
29001WAT     H287246   4.782   4.403   3.636
29002WAT      O87247   9.233   1.576   0.683
29002WAT     H187248   9.192   1.639   0.750
29002WAT     H287249   9.331   1.569   0.701
29003WAT      O87250   0.953   4.430   2.515
29003WAT     H187251   0.959   4.346   2.461
29003WAT     H287252   1.002   4.419   2.601
29004WAT      O87253   8.014   3.848   5.453
29004WAT     H187254   7.933   3.904   5.474
29004WAT     H287255   8.032   3.787   5.530
29005WAT      O87256   5.244   8.332   5.588
29005WAT     H187257   5.170   8.384   5.631
29005WAT     H287258   5.300   8.288   5.658
29006WAT      O87259   5.108   2.101   4.901
29006WAT     H187260   5.182   2.074   4.963
29006WAT     H287261   5.063   2.183   4.937
29007WAT      O87262   1.137   4.467   6.662
29007WAT     H187263   1.229   4.476   6.625
29007WAT     H287264   1.096   4.382   6.629
29008WAT      O87265   3.036   7.981   8.732
29008WAT     H187266   3.083   7.968   8.819
29008WAT     H287267   3.075   7.921   8.663
29009WAT      O87268   6.175   5.360   5.857
29009WAT     H187269   6.128   5.274   5.877
29009WAT     H287270   6.273   5.342   5.845
29010WAT      O87271   5.376   4.907   9.444
29010WAT     H187272   5.316   4.871   9.372
29010WAT     H287273   5.420   4.831   9.492
29011WAT      O87274   6.918   8.712   9.677
29011WAT     H187275   6.999   8.661   9.706
29011WAT     H287276   6.924   8.806   9.711
29012WAT      O87277   1.085   8.296   0.355
29012WAT     H187278   1.016   8.257   0.416
29012WAT     H287279   1.175   8.259   0.380
29013WAT      O87280   6.303   7.763   9.265
29013WAT     H187281   6.232   7.723   9.207
29013WAT     H287282   6.267   7.846   9.309
29014WAT      O87283   9.504   7.212   2.175
29014WAT     H187284   9.460   7.298   2.149
29014WAT     H287285   9.602   7.228   2.188
29015WAT      O87286   6.467   9.175   2.587
29015WAT     H187287   6.458   9.158   2.686
29015WAT     H287288   6.390   9.133   2.539
29016WAT      O87289   8.901   7.281   4.374
29016WAT     H187290   8.973   7.224   4.335
29016WAT     H287291   8.831   7.224   4.417
29017WAT      O87292   3.780   2.728   3.161
29017WAT     H187293   3.855   2.792   3.173
29017WAT     H287294   3.777   2.664   3.238
29018WAT      O87295   8.541   3.787   8.000
29018WAT     H187296   8.510   3.781   8.095
29018WAT     H287297   8.629   3.834   7.997
29019WAT      O87298   6.533   4.859   7.104
29019WAT     H187299   6.631   4.878   7.103
29019WAT     H287300   6.507   4.823   7.194
29020WAT      O87301   5.303   4.573   8.280
29020WAT     H187302   5.359   4.656   8.286
29020WAT     H287303   5.359   4.498   8.244
29021WAT      O87304   8.834   4.185   2.063
29021WAT     H187305   8.912   4.200   2.001
29021WAT     H287306   8.861   4.118   2.133
29022WAT      O87307   5.170   7.355   8.459
29022WAT     H187308   5.217   7.437   8.494
29022WAT     H287309   5.140   7.299   8.535
29023WAT      O87310   7.050   1.068   6.692
29023WAT     H187311   6.986   1.140   6.719
29023WAT     H287312   7.134   1.111   6.657
29024WAT      O87313   1.475   9.813   4.224
29024WAT     H187314   1.561   9.849   4.259
29024WAT     H287315   1.403   9.825   4.293
29025WAT      O87316   8.561   8.574   0.345
29025WAT     H187317   8.502   8.529   0.278
29025WAT     H287318   8.651   8.532   0.344
29026WAT      O87319   0.199   3.328   6.462
29026WAT     H187320   0.295   3.313   6.437
29026WAT     H287321   0.156   3.241   6.484
29027WAT      O87322   6.286   1.046   9.885
29027WAT     H187323   6.241   1.029   9.798
29027WAT     H287324   6.385   1.055   9.871
29028WAT      O87325   4.001   0.991   3.545
29028WAT     H187326   3.988   0.904   3.497
29028WAT     H287327   3.912   1.027   3.573
29029WAT      O87328   8.521   7.360   0.220
29029WAT     H187329   8.528   7.413   0.305
29029WAT     H287330   8.602   7.377   0.164
29030WAT      O87331   1.735   5.114   1.761
29030WAT     H187332   1.817   5.095   1.813
29030WAT     H287333   1.690   5.195   1.797
29031WAT      O87334   0.970   5.271   7.027
29031WAT     H187335   1.005   5.181   7.001
29031WAT     H287336   0.971   5.280   7.126
29032WAT      O87337   9.501   6.730   4.920
29032WAT     H187338   9.443   6.659   4.881
29032WAT     H287339   9.467   6.820   4.894
29033WAT      O87340   7.497   2.578   7.112
29033WAT     H187341   7.484   2.607   7.017
29033WAT     H287342   7.545   2.490   7.114
29034WAT      O87343   1.883   2.219   1.116
29034WAT     H187344   1.933   2.140   1.081
29034WAT     H287345   1.903   2.300   1.061
29035WAT      O87346   5.295   3.657   7.815
29035WAT     H187347   5.258   3.577   7.862
29035WAT     H287348   5.252   3.667   7.725
29036WAT      O87349   6.882   5.086   8.002
29036WAT     H187350   6.801   5.030   7.983
29036WAT     H287351   6.925   5.054   8.086
29037WAT      O87352   6.148   8.508   3.165
29037WAT     H187353   6.080   8.548   3.227
29037WAT     H287354   6.146   8.556   3.078
29038WAT      O87355   4.648   3.597   4.299
29038WAT     H187356   4.548   3.601   4.305
29038WAT     H287357   4.688   3.680   4.339
29039WAT      O87358   0.932   6.058   7.808
29039WAT     H187359   0.879   5.973   7.811
29039WAT     H287360   0.870   6.136   7.817
29040WAT      O87361   3.133   1.818   1.303
29040WAT     H187362   3.139   1.729   1.347
29040WAT     H287363   3.210   1.875   1.333
29041WAT      O87364   3.971   1.519   0.399
29041WAT     H187365   4.040   1.585   0.430
29041WAT     H287366   3.882   1.543   0.437
29042WAT      O87367   1.829   4.083   9.330
29042WAT     H187368   1.826   4.160   9.266
29042WAT     H287369   1.838   3.997   9.279
29043WAT      O87370   6.606   9.286   8.688
29043WAT     H187371   6.652   9.281   8.599
29043WAT     H287372   6.531   9.352   8.682
29044WAT      O87373   2.153   4.253   7.841
29044WAT     H187374   2.104   4.325   7.890
29044WAT     H287375   2.146   4.270   7.742
29045WAT      O87376   4.646   2.858   5.437
29045WAT     H187377   4.576   2.800   5.395
29045WAT     H287378   4.736   2.831   5.404
29046WAT      O87379   2.139   9.487   3.034
29046WAT     H187380   2.126   9.439   3.120
29046WAT     H287381   2.149   9.585   3.052
29047WAT      O87382   3.330   5.206   1.625
29047WAT     H187383   3.424   5.197   1.659
29047WAT     H287384   3.317   5.299   1.590
29048WAT      O87385   9.256   8.190   5.380
29048WAT     H187386   9.163   8.168   5.351
29048WAT     H287387   9.312   8.209   5.299
29049WAT      O87388   9.040   1.867   4.160
29049WAT     H187389   8.986   1.951   4.150
29049WAT     H287390   9.120   1.886   4.217
29050WAT      O87391   8.743   4.650   4.196
29050WAT     H187392   8.728   4.577   4.129
29050WAT     H287393   8.836   4.645   4.230
29051WAT      O87394   6.527   0.381   1.754
29051WAT     H187395   6.442   0.344   1.791
29051WAT     H287396   6.585   0.307   1.721
29052WAT      O87397   0.471   8.826   5.227
29052WAT     H187398   0.424   8.756   5.280
29052WAT     H287399   0.570   8.807   5.225
29053WAT      O87400   4.228   3.198   7.484
29053WAT     H187401   4.199   3.294   7.480
29053WAT     H287402   4.164   3.142   7.431
29054WAT      O87403   1.033   1.822   3.688
29054WAT     H187404   0.933   1.818   3.701
29054WAT     H287405   1.053   1.833   3.591
29055WAT      O87406   3.278   8.126   0.564
29055WAT     H187407   3.298   8.124   0.466
29055WAT     H287408   3.330   8.199   0.608
29056WAT      O87409   2.686   1.475   5.751
29056WAT     H187410   2.780   1.449   5.732
29056WAT     H287411   2.639   1.399   5.798
29057WAT      O87412   8.284   8.151   3.281
29057WAT     H187413   8.365   8.198   3.316
29057WAT     H287414   8.294   8.139   3.182
29058WAT      O87415   9.601   1.538   0.966
29058WAT     H187416   9.549   1.485   1.033
29058WAT     H287417   9.679   1.484   0.934
29059WAT      O87418   9.370   3.855   3.916
29059WAT     H187419   9.423   3.822   3.837
29059WAT     H287420   9.324   3.779   3.959
29060WAT      O87421   1.328   5.282   4.847
29060WAT     H187422   1.359   5.198   4.891
29060WAT     H287423   1.266   5.331   4.909
29061WAT      O87424   7.363   8.580   4.822
29061WAT     H187425   7.272   8.543   4.807
29061WAT     H287426   7.359   8.650   4.894
29062WAT      O87427   7.620   1.335   4.355
29062WAT     H187428   7.554   1.275   4.398
29062WAT     H287429   7.651   1.404   4.420
29063WAT      O87430   6.756   1.857   2.986
29063WAT     H187431   6.767   1.951   2.952
29063WAT     H287432   6.829   1.836   3.050
29064WAT      O87433   2.039   1.426   0.698
29064WAT     H187434   1.962   1.465   0.649
29064WAT     H287435   2.124   1.469   0.667
29065WAT      O87436   3.429   3.802   0.290
29065WAT     H187437   3.465   3.785   0.381
29065WAT     H287438   3.470   3.738   0.225
29066WAT      O87439   7.740   1.254   6.694
29066WAT     H187440   7.697   1.179   6.644
29066WAT     H287441   7.835   1.231   6.715
29067WAT      O87442   9.035   6.306   9.367
29067WAT     H187443   9.098   6.381   9.344
29067WAT     H287444   8.949   6.345   9.400
29068WAT      O87445   2.137   9.111   3.025
29068WAT     H187446   2.155   9.038   2.960
29068WAT     H287447   2.091   9.187   2.978
29069WAT      O87448   7.960   2.798   4.498
29069WAT     H187449   7.994   2.719   4.548
29069WAT     H287450   7.989   2.882   4.543
29070WAT      O87451   9.386   6.400   1.428
29070WAT     H187452   9.440   6.484   1.430
29070WAT     H287453   9.444   6.322   1.453
29071WAT      O87454   3.164   4.459   9.572
29071WAT     H187455   3.089   4.476   9.636
29071WAT     H287456   3.236   4.407   9.617
29072WAT      O87457   8.757   0.010   6.328
29072WAT     H187458   8.661   0.038   6.324
29072WAT     H287459   8.800   0.026   6.239
29073WAT      O87460   4.693   7.140   4.009
29073WAT     H187461   4.667   7.044   4.001
29073WAT     H287462   4.613   7.194   4.032
29074WAT      O87463   5.529   2.029   8.498
29074WAT     H187464   5.522   1.954   8.433
29074WAT     H287465   5.550   2.114   8.449
29075WAT      O87466   3.038   7.284   9.462
29075WAT     H187467   3.044   7.338   9.378
29075WAT     H287468   3.059   7.342   9.540
29076WAT      O87469   1.994   4.134   0.574
29076WAT     H187470   1.990   4.036   0.596
29076WAT     H287471   1.968   4.187   0.655
29077WAT      O87472   3.146   6.776   3.071
29077WAT     H187473   3.150   6.873   3.049
29077WAT     H287474   3.238   6.744   3.095
29078WAT      O87475   3.365   2.601   2.892
29078WAT     H187476   3.398   2.568   2.803
29078WAT     H287477   3.404   2.546   2.965
29079WAT      O87478   0.667   2.831   9.047
29079WAT     H187479   0.739   2.851   9.112
29079WAT     H287480   0.639   2.736   9.056
29080WAT      O87481   8.814   7.096   5.513
29080WAT     H187482   8.857   7.023   5.565
29080WAT     H287483   8.751   7.146   5.572
29081WAT      O87484   4.963   3.654   9.376
29081WAT     H187485   4.976   3.566   9.420
29081WAT     H287486   4.954   3.726   9.445
29082WAT      O87487   9.886   1.166   8.977
29082WAT     H187488   9.801   1.113   8.971
29082WAT     H287489   9.926   1.175   8.886
29083WAT      O87490   6.463   6.597   4.826
29083WAT     H187491   6.497   6.513   4.867
29083WAT     H287492   6.420   6.654   4.896
29084WAT      O87493   3.377   2.096   3.943
29084WAT     H187494   3.383   2.063   4.037
29084WAT     H287495   3.304   2.165   3.936
29085WAT      O87496   8.442   2.806   3.391
29085WAT     H187497   8.373   2.736   3.404
29085WAT     H287498   8.462   2.850   3.478
29086WAT      O87499   8.808   0.502   0.149
29086WAT     H187500   8.902   0.491   0.115
29086WAT     H287501   8.765   0.413   0.157
29087WAT      O87502   6.542   6.565   1.952
29087WAT     H187503   6.533   6.527   1.860
29087WAT     H287504   6.490   6.650   1.958
29088WAT      O87505   9.869   4.696   2.524
29088WAT     H187506   9.837   4.790   2.515
29088WAT     H287507   9.792   4.637   2.546
29089WAT      O87508   5.604   8.227   7.466
29089WAT     H187509   5.691   8.275   7.451
29089WAT     H287510   5.591   8.211   7.564
29090WAT      O87511   7.438   8.993   9.023
29090WAT     H187512   7.420   8.941   8.940
29090WAT     H287513   7.364   9.059   9.038
29091WAT      O87514   4.090   0.948   5.319
29091WAT     H187515   4.123   0.959   5.413
29091WAT     H287516   4.005   0.896   5.320
29092WAT      O87517   3.794   2.918   1.011
29092WAT     H187518   3.718   2.854   1.018
29092WAT     H287519   3.758   3.009   0.989
29093WAT      O87520   7.179   8.410   6.328
29093WAT     H187521   7.164   8.478   6.400
29093WAT     H287522   7.266   8.429   6.283
29094WAT      O87523   2.185   9.752   3.037
29094WAT     H187524   2.285   9.749   3.042
29094WAT     H287525   2.149   9.810   3.110
29095WAT      O87526   8.616   7.107   2.871
29095WAT     H187527   8.605   7.191   2.817
29095WAT     H287528   8.687   7.050   2.829
29096WAT      O87529   4.890   1.880   4.746
29096WAT     H187530   4.979   1.881   4.791
29096WAT     H287531   4.857   1.974   4.735
29097WAT      O87532   1.087   3.620   1.612
29097WAT     H187533   1.141   3.538   1.630
29097WAT     H287534   1.135   3.701   1.646
29098WAT      O87535   9.011   0.537   9.185
29098WAT     H187536   8.941   0.515   9.116
29098WAT     H287537   8.986   0.494   9.272
29099WAT      O87538   5.782   5.903   0.383
29099WAT     H187539   5.730   5.856   0.455
29099WAT     H287540   5.719   5.933   0.311
29100WAT      O87541   9.185   5.503   1.648
29100WAT     H187542   9.212   5.541   1.736
29100WAT     H287543   9.190   5.574   1.578
29101WAT      O87544   6.055   7.986   6.311
29101WAT     H187545   6.078   8.006   6.406
29101WAT     H287546   6.028   8.070   6.264
29102WAT      O87547   6.874   7.218   1.151
29102WAT     H187548   6.925   7.134   1.168
29102WAT     H287549   6.815   7.205   1.071
29103WAT      O87550   8.471   4.777   4.998
29103WAT     H187551   8.436   4.838   4.927
29103WAT     H287552   8.444   4.811   5.088
29104WAT      O87553   8.144   8.359   6.680
29104WAT     H187554   8.116   8.454   6.676
29104WAT     H287555   8.083   8.303   6.624
29105WAT      O87556   5.018   4.240   9.791
29105WAT     H187557   4.995   4.281   9.879
29105WAT     H287558   4.955   4.274   9.721
29106WAT      O87559   8.229   7.884   9.127
29106WAT     H187560   8.216   7.896   9.225
29106WAT     H287561   8.152   7.926   9.078
29107WAT      O87562   5.016   2.785   9.607
29107WAT     H187563   5.065   2.818   9.527
29107WAT     H287564   5.056   2.698   9.638
29108WAT      O87565   5.922   7.151   1.032
29108WAT     H187566   5.862   7.072   1.044
29108WAT     H287567   5.885   7.229   1.082
29109WAT      O87568   5.538   5.206   3.549
29109WAT     H187569   5.614   5.169   3.602
29109WAT     H287570   5.562   5.296   3.513
29110WAT      O87571   1.763   6.014   8.015
29110WAT     H187572   1.750   6.066   8.099
29110WAT     H287573   1.855   5.973   8.015
29111WAT      O87574   6.069   5.282   6.184
29111WAT     H187575   6.102   5.371   6.215
29111WAT     H287576   6.147   5.220   6.172
29112WAT      O87577   9.637   2.884   3.006
29112WAT     H187578   9.544   2.902   2.975
29112WAT     H287579   9.635   2.824   3.086
29113WAT      O87580   2.536   5.609   4.612
29113WAT     H187581   2.494   5.520   4.591
29113WAT     H287582   2.621   5.618   4.560
29114WAT      O87583   1.824   6.970   5.039
29114WAT     H187584   1.878   6.899   5.084
29114WAT     H287585   1.731   6.937   5.026
29115WAT      O87586   0.264   4.346   5.967
29115WAT     H187587   0.186   4.344   5.904
29115WAT     H287588   0.320   4.265   5.952
29116WAT      O87589   3.332   8.581   2.667
29116WAT     H187590   3.386   8.665   2.667
29116WAT     H287591   3.389   8.505   2.698
29117WAT      O87592   9.865   9.571   4.844
29117WAT     H187593   9.782   9.516   4.834
29117WAT     H287594   9.915   9.543   4.926
29118WAT      O87595   6.650   7.762   4.288
29118WAT     H187596   6.648   7.664   4.307
29118WAT     H287597   6.561   7.791   4.252
29119WAT      O87598   2.544   5.376   8.869
29119WAT     H187599   2.475   5.403   8.802
29119WAT     H287600   2.570   5.456   8.924
29120WAT      O87601   6.372   7.368   7.290
29120WAT     H187602   6.311   7.344   7.215
29120WAT     H287603   6.319   7.409   7.364
29121WAT      O87604   6.964   2.629   1.802
29121WAT     H187605   7.027   2.583   1.866
29121WAT     H287606   6.960   2.577   1.717
29122WAT      O87607   0.460   5.492   7.607
29122WAT     H187608   0.383   5.518   7.548
29122WAT     H287609   0.427   5.437   7.683
29123WAT      O87610   2.904   4.872   7.035
29123WAT     H187611   2.821   4.926   7.038
29123WAT     H287612   2.912   4.816   7.118
29124WAT      O87613   7.159   9.716   6.483
29124WAT     H187614   7.241   9.762   6.450
29124WAT     H287615   7.113   9.670   6.407
29125WAT      O87616   4.298   5.777   5.459
29125WAT     H187617   4.318   5.814   5.549
29125WAT     H287618   4.373   5.717   5.430
29126WAT      O87619   7.934   4.701   9.018
29126WAT     H187620   7.989   4.657   8.947
29126WAT     H287621   7.914   4.635   9.090
29127WAT      O87622   8.259   5.962   2.838
29127WAT     H187623   8.304   5.942   2.751
29127WAT     H287624   8.176   5.908   2.845
29128WAT      O87625   5.724   3.014   4.739
29128WAT     H187626   5.682   2.923   4.743
29128WAT     H287627   5.654   3.083   4.758
29129WAT      O87628   1.289   1.462   3.026
29129WAT     H187629   1.288   1.549   3.075
29129WAT     H287630   1.197   1.444   2.990
29130WAT      O87631   9.853   4.808   3.319
29130WAT     H187632   9.882   4.713   3.330
29130WAT     H287633   9.754   4.813   3.319
29131WAT      O87634   8.926   3.224   5.133
29131WAT     H187635   8.966   3.281   5.204
29131WAT     H287636   8.872   3.281   5.071
29132WAT      O87637   0.089   8.758   6.842
29132WAT     H187638   0.020   8.727   6.907
29132WAT     H287639   0.179   8.722   6.868
29133WAT      O87640   8.003   3.519   5.514
29133WAT     H187641   8.049   3.554   5.596
29133WAT     H287642   7.940   3.446   5.540
29134WAT      O87643   2.526   5.715   0.059
29134WAT     H187644   2.527   5.706   0.158
29134WAT     H287645   2.558   5.807   0.034
29135WAT      O87646   7.794   8.131   8.847
29135WAT     H187647   7.878   8.106   8.800
29135WAT     H287648   7.814   8.157   8.941
29136WAT      O87649   4.008   2.194   5.851
29136WAT     H187650   4.078   2.249   5.896
29136WAT     H287651   3.972   2.126   5.916
29137WAT      O87652   5.453   6.280   0.096
29137WAT     H187653   5.482   6.185   0.108
29137WAT     H287654   5.525   6.330   0.047
29138WAT      O87655   9.361   3.518   3.554
29138WAT     H187656   9.292   3.509   3.625
29138WAT     H287657   9.439   3.460   3.576
29139WAT      O87658   1.880   3.219   9.740
29139WAT     H187659   1.820   3.145   9.710
29139WAT     H287660   1.947   3.183   9.805
29140WAT      O87661   3.001   5.884   5.427
29140WAT     H187662   2.910   5.854   5.397
29140WAT     H287663   2.994   5.975   5.467
29141WAT      O87664   2.036   7.034   5.852
29141WAT     H187665   2.046   7.133   5.853
29141WAT     H287666   1.986   7.005   5.934
29142WAT      O87667   6.383   4.145   2.641
29142WAT     H187668   6.318   4.145   2.564
29142WAT     H287669   6.346   4.201   2.716
29143WAT      O87670   2.558   7.951   1.019
29143WAT     H187671   2.629   8.020   1.013
29143WAT     H287672   2.468   7.995   1.016
29144WAT      O87673   7.161   1.680   2.151
29144WAT     H187674   7.111   1.767   2.152
29144WAT     H287675   7.115   1.615   2.091
29145WAT      O87676   2.686   0.739   7.992
29145WAT     H187677   2.616   0.669   7.976
29145WAT     H287678   2.755   0.704   8.055
29146WAT      O87679   8.782   0.924   5.024
29146WAT     H187680   8.831   0.845   5.061
29146WAT     H287681   8.828   1.008   5.052
29147WAT      O87682   0.951   0.299   0.862
29147WAT     H187683   0.891   0.291   0.941
29147WAT     H287684   0.960   0.211   0.816
29148WAT      O87685   7.313   2.196   0.781
29148WAT     H187686   7.228   2.244   0.805
29148WAT     H287687   7.376   2.261   0.738
29149WAT      O87688   9.355   8.151   8.714
29149WAT     H187689   9.335   8.067   8.765
29149WAT     H287690   9.312   8.146   8.624
29150WAT      O87691   1.477   4.758   7.500
29150WAT     H187692   1.550   4.727   7.562
29150WAT     H287693   1.410   4.811   7.552
29151WAT      O87694   9.690   2.212   6.450
29151WAT     H187695   9.779   2.189   6.491
29151WAT     H287696   9.687   2.179   6.356
29152WAT      O87697   6.476   9.184   9.313
29152WAT     H187698   6.459   9.275   9.350
29152WAT     H287699   6.471   9.117   9.387
29153WAT      O87700   8.399   0.527   0.656
29153WAT     H187701   8.387   0.611   0.709
29153WAT     H287702   8.472   0.472   0.696
29154WAT      O87703   4.988   6.532   3.525
29154WAT     H187704   4.970   6.494   3.434
29154WAT     H287705   5.087   6.540   3.539
29155WAT      O87706   8.555   6.559   5.250
29155WAT     H187707   8.630   6.531   5.191
29155WAT     H287708   8.508   6.478   5.285
29156WAT      O87709   1.999   7.913   1.273
29156WAT     H187710   1.904   7.929   1.246
29156WAT     H287711   2.047   8.000   1.279
29157WAT      O87712   7.827   1.255   4.188
29157WAT     H187713   7.753   1.309   4.229
29157WAT     H287714   7.835   1.277   4.091
29158WAT      O87715   3.110   7.664   2.812
29158WAT     H187716   3.144   7.758   2.806
29158WAT     H287717   3.010   7.665   2.819
29159WAT      O87718   6.217   9.722   6.612
29159WAT     H187719   6.195   9.677   6.525
29159WAT     H287720   6.137   9.770   6.646
29160WAT      O87721   8.013   6.917   3.639
29160WAT     H187722   8.036   6.974   3.718
29160WAT     H287723   8.080   6.843   3.630
29161WAT      O87724   9.516   3.628   4.893
29161WAT     H187725   9.520   3.728   4.897
29161WAT     H287726   9.578   3.590   4.962
29162WAT      O87727   5.949   0.547   8.876
29162WAT     H187728   5.872   0.522   8.817
29162WAT     H287729   6.002   0.465   8.898
29163WAT      O87730   8.428   3.818   5.939
29163WAT     H187731   8.337   3.851   5.962
29163WAT     H287732   8.489   3.831   6.018
29164WAT      O87733   5.999   7.107   0.355
29164WAT     H187734   6.063   7.088   0.280
29164WAT     H287735   5.924   7.163   0.321
29165WAT      O87736   4.429   1.905   6.031
29165WAT     H187737   4.520   1.917   5.992
29165WAT     H287738   4.386   1.824   5.990
29166WAT      O87739   9.283   8.595   7.620
29166WAT     H187740   9.247   8.550   7.538
29166WAT     H287741   9.381   8.580   7.626
29167WAT      O87742   7.960   0.963   9.731
29167WAT     H187743   7.999   1.027   9.797
29167WAT     H287744   7.874   0.926   9.766
29168WAT      O87745   9.746   5.180   2.791
29168WAT     H187746   9.774   5.221   2.878
29168WAT     H287747   9.664   5.227   2.757
29169WAT      O87748   1.047   1.870   1.418
29169WAT     H187749   1.108   1.942   1.385
29169WAT     H287750   0.954   1.906   1.425
29170WAT      O87751   2.615   5.994   4.181
29170WAT     H187752   2.562   5.950   4.254
29170WAT     H287753   2.615   5.936   4.100
29171WAT      O87754   2.505   3.605   1.176
29171WAT     H187755   2.604   3.600   1.166
29171WAT     H287756   2.479   3.576   1.269
29172WAT      O87757   6.808   7.728   3.699
29172WAT     H187758   6.797   7.827   3.694
29172WAT     H287759   6.800   7.688   3.608
29173WAT      O87760   7.464   3.768   4.107
29173WAT     H187761   7.453   3.700   4.179
29173WAT     H287762   7.416   3.738   4.025
29174WAT      O87763   2.024   4.656   5.666
29174WAT     H187764   2.025   4.638   5.765
29174WAT     H287765   2.061   4.748   5.649
29175WAT      O87766   9.763   9.747   1.514
29175WAT     H187767   9.762   9.660   1.466
29175WAT     H287768   9.787   9.820   1.450
29176WAT      O87769   6.535   2.413   9.718
29176WAT     H187770   6.439   2.406   9.688
29176WAT     H287771   6.595   2.400   9.640
29177WAT      O87772   8.631   9.234   7.682
29177WAT     H187773   8.666   9.278   7.765
29177WAT     H287774   8.534   9.257   7.671
29178WAT      O87775   0.095   6.331   4.313
29178WAT     H187776   0.026   6.371   4.253
29178WAT     H287777   0.112   6.393   4.390
29179WAT      O87778   9.700   2.930   7.756
29179WAT     H187779   9.625   2.921   7.822
29179WAT     H287780   9.786   2.943   7.805
29180WAT      O87781   0.733   8.393   0.026
29180WAT     H187782   0.787   8.464  -0.019
29180WAT     H287783   0.658   8.435   0.077
29181WAT      O87784   5.557   1.010   9.199
29181WAT     H187785   5.473   0.965   9.168
29181WAT     H287786   5.537   1.105   9.221
29182WAT      O87787   7.762   2.728   6.819
29182WAT     H187788   7.817   2.667   6.762
29182WAT     H287789   7.670   2.689   6.829
29183WAT      O87790   8.150   3.366   8.808
29183WAT     H187791   8.164   3.271   8.838
29183WAT     H287792   8.127   3.366   8.711
29184WAT      O87793   7.094   1.253   2.743
29184WAT     H187794   7.140   1.311   2.676
29184WAT     H287795   7.011   1.214   2.704
29185WAT      O87796   8.756   3.958   2.757
29185WAT     H187797   8.799   3.943   2.668
29185WAT     H287798   8.752   4.056   2.776
29186WAT      O87799   6.138   1.255   5.740
29186WAT     H187800   6.094   1.217   5.822
29186WAT     H287801   6.153   1.353   5.754
29187WAT      O87802   9.453   5.255   0.868
29187WAT     H187803   9.436   5.192   0.792
29187WAT     H287804   9.525   5.319   0.843
29188WAT      O87805   6.880   7.969   2.496
29188WAT     H187806   6.798   8.023   2.513
29188WAT     H287807   6.864   7.875   2.527
29189WAT      O87808   0.730   6.577   0.751
29189WAT     H187809   0.682   6.653   0.795
29189WAT     H287810   0.721   6.495   0.808
29190WAT      O87811   5.331   4.486   6.533
29190WAT     H187812   5.260   4.466   6.466
29190WAT     H287813   5.329   4.584   6.555
29191WAT      O87814   1.439   5.989   0.828
29191WAT     H187815   1.395   6.041   0.901
29191WAT     H287816   1.458   5.896   0.860
29192WAT      O87817   9.123   5.530   8.781
29192WAT     H187818   9.160   5.457   8.837
29192WAT     H287819   9.031   5.553   8.812
29193WAT      O87820   3.246   9.657   8.190
29193WAT     H187821   3.207   9.744   8.161
29193WAT     H287822   3.185   9.582   8.163
29194WAT      O87823   7.257   7.037   0.505
29194WAT     H187824   7.334   7.052   0.566
29194WAT     H287825   7.173   7.030   0.558
29195WAT      O87826   7.935   2.932   3.115
29195WAT     H187827   7.920   2.840   3.152
29195WAT     H287828   8.029   2.940   3.082
29196WAT      O87829   1.651   9.263   8.062
29196WAT     H187830   1.617   9.188   8.005
29196WAT     H287831   1.750   9.255   8.072
29197WAT      O87832   0.878   0.662   5.710
29197WAT     H187833   0.912   0.583   5.660
29197WAT     H287834   0.829   0.631   5.792
29198WAT      O87835   1.186   1.759   8.389
29198WAT     H187836   1.150   1.815   8.315
29198WAT     H287837   1.258   1.699   8.354
29199WAT      O87838   7.865   1.940   9.639
29199WAT     H187839   7.842   1.955   9.735
29199WAT     H287840   7.854   2.025   9.588
29200WAT      O87841   7.687   3.660   2.561
29200WAT     H187842   7.716   3.565   2.548
29200WAT     H287843   7.759   3.722   2.529
29201WAT      O87844   8.900   3.203   3.877
29201WAT     H187845   8.895   3.124   3.938
29201WAT     H287846   8.889   3.287   3.931
29202WAT      O87847   5.355   1.495   7.976
29202WAT     H187848   5.270   1.549   7.976
29202WAT     H287849   5.365   1.449   7.888
29203WAT      O87850   3.803   8.590   6.421
29203WAT     H187851   3.720   8.585   6.475
29203WAT     H287852   3.781   8.622   6.329
29204WAT      O87853   6.178   9.411   1.160
29204WAT     H187854   6.124   9.349   1.216
29204WAT     H287855   6.208   9.489   1.214
29205WAT      O87856   7.256   6.984   6.905
29205WAT     H187857   7.334   6.926   6.929
29205WAT     H287858   7.185   6.976   6.976
29206WAT      O87859   7.187   0.974   9.651
29206WAT     H187860   7.095   1.003   9.677
29206WAT     H287861   7.185   0.937   9.558
29207WAT      O87862   4.969   0.207   3.261
29207WAT     H187863   4.964   0.120   3.211
29207WAT     H287864   4.929   0.195   3.352
29208WAT      O87865   6.412   2.425   7.909
29208WAT     H187866   6.435   2.385   7.820
29208WAT     H287867   6.323   2.471   7.903
29209WAT      O87868   2.684   6.822   7.251
29209WAT     H187869   2.636   6.761   7.188
29209WAT     H287870   2.674   6.917   7.221
29210WAT      O87871   1.417   5.474   6.560
29210WAT     H187872   1.343   5.491   6.495
29210WAT     H287873   1.394   5.394   6.616
29211WAT      O87874   1.543   6.781   2.750
29211WAT     H187875   1.547   6.811   2.654
29211WAT     H287876   1.595   6.844   2.807
29212WAT      O87877   6.835   1.882   1.885
29212WAT     H187878   6.755   1.904   1.941
29212WAT     H287879   6.805   1.846   1.797
29213WAT      O87880   5.372   6.881   2.063
29213WAT     H187881   5.279   6.913   2.046
29213WAT     H287882   5.409   6.841   1.979
29214WAT      O87883   7.433   1.098   9.619
29214WAT     H187884   7.334   1.081   9.620
29214WAT     H287885   7.465   1.110   9.713
29215WAT      O87886   0.860   7.439   6.768
29215WAT     H187887   0.868   7.539   6.766
29215WAT     H287888   0.808   7.412   6.849
29216WAT      O87889   8.513   5.115   0.216
29216WAT     H187890   8.518   5.156   0.308
29216WAT     H287891   8.458   5.174   0.157
29217WAT      O87892   3.668   8.113   4.211
29217WAT     H187893   3.670   8.013   4.203
29217WAT     H287894   3.762   8.148   4.206
29218WAT      O87895   8.032   4.004   9.141
29218WAT     H187896   8.031   3.963   9.050
29218WAT     H287897   7.980   3.947   9.205
29219WAT      O87898   6.364   6.761   5.044
29219WAT     H187899   6.342   6.786   5.138
29219WAT     H287900   6.302   6.808   4.981
29220WAT      O87901   6.352   0.596   9.367
29220WAT     H187902   6.258   0.580   9.334
29220WAT     H287903   6.395   0.508   9.388
29221WAT      O87904   0.545   6.765   1.027
29221WAT     H187905   0.601   6.831   0.978
29221WAT     H287906   0.485   6.812   1.092
29222WAT      O87907   8.572   2.321   7.300
29222WAT     H187908   8.563   2.240   7.241
29222WAT     H287909   8.491   2.328   7.359
29223WAT      O87910   1.992   8.287   6.910
29223WAT     H187911   1.991   8.201   6.961
29223WAT     H287912   2.040   8.357   6.963
29224WAT      O87913   2.149   4.083   4.147
29224WAT     H187914   2.231   4.056   4.198
29224WAT     H287915   2.152   4.181   4.129
29225WAT      O87916   9.800   1.596   0.532
29225WAT     H187917   9.841   1.578   0.442
29225WAT     H287918   9.712   1.549   0.539
29226WAT      O87919   5.977   8.325   3.761
29226WAT     H187920   6.071   8.293   3.764
29226WAT     H287921   5.930   8.301   3.846
29227WAT      O87922   5.437   6.859   8.457
29227WAT     H187923   5.354   6.803   8.459
29227WAT     H287924   5.464   6.881   8.551
29228WAT      O87925   8.667   6.480   3.745
29228WAT     H187926   8.680   6.560   3.687
29228WAT     H287927   8.610   6.504   3.824
29229WAT      O87928   9.051   5.029   8.498
29229WAT     H187929   9.141   4.986   8.502
29229WAT     H287930   9.062   5.128   8.486
29230WAT      O87931   6.410   4.739   5.833
29230WAT     H187932   6.439   4.740   5.928
29230WAT     H287933   6.428   4.828   5.791
29231WAT      O87934   9.589   7.611   2.161
29231WAT     H187935   9.508   7.627   2.105
29231WAT     H287936   9.664   7.669   2.130
29232WAT      O87937   4.369   0.513   7.231
29232WAT     H187938   4.358   0.451   7.309
29232WAT     H287939   4.309   0.592   7.243
29233WAT      O87940   7.532   0.777   6.952
29233WAT     H187941   7.550   0.850   6.886
29233WAT     H287942   7.564   0.805   7.042
29234WAT      O87943   2.490   5.377   2.529
29234WAT     H187944   2.440   5.291   2.520
29234WAT     H287945   2.523   5.387   2.623
29235WAT      O87946   7.615   6.783   5.708
29235WAT     H187947   7.671   6.701   5.720
29235WAT     H287948   7.539   6.764   5.646
29236WAT      O87949   3.401   3.412   6.876
29236WAT     H187950   3.494   3.445   6.860
29236WAT     H287951   3.337   3.489   6.873
29237WAT      O87952   7.845   2.092   8.592
29237WAT     H187953   7.850   2.062   8.687
29237WAT     H287954   7.749   2.092   8.562
29238WAT      O87955   6.865   8.310   5.301
29238WAT     H187956   6.889   8.407   5.295
29238WAT     H287957   6.941   8.256   5.265
29239WAT      O87958   6.796   2.270   0.097
29239WAT     H187959   6.882   2.296   0.055
29239WAT     H287960   6.803   2.282   0.196
29240WAT      O87961   3.333   6.959   0.924
29240WAT     H187962   3.253   6.988   0.976
29240WAT     H287963   3.416   6.992   0.969
29241WAT      O87964   4.582   5.721   0.065
29241WAT     H187965   4.603   5.803   0.012
29241WAT     H287966   4.498   5.735   0.117
29242WAT      O87967   4.684   6.673   8.260
29242WAT     H187968   4.741   6.743   8.218
29242WAT     H287969   4.716   6.654   8.353
29243WAT      O87970   8.031   7.995   0.392
29243WAT     H187971   8.095   8.068   0.414
29243WAT     H287972   8.081   7.913   0.363
29244WAT      O87973   4.302   2.315   1.206
29244WAT     H187974   4.207   2.294   1.228
29244WAT     H287975   4.314   2.317   1.107
29245WAT      O87976   7.531   3.303   3.882
29245WAT     H187977   7.547   3.397   3.854
29245WAT     H287978   7.597   3.243   3.837
29246WAT      O87979   5.406   8.948   1.113
29246WAT     H187980   5.332   8.910   1.168
29246WAT     H287981   5.475   8.878   1.096
29247WAT      O87982   3.184   9.557   2.510
29247WAT     H187983   3.257   9.559   2.578
29247WAT     H287984   3.096   9.561   2.556
29248WAT      O87985   6.675   4.007   4.086
29248WAT     H187986   6.727   4.093   4.082
29248WAT     H287987   6.704   3.948   4.011
29249WAT      O87988   1.501   3.501   9.176
29249WAT     H187989   1.407   3.515   9.207
29249WAT     H287990   1.542   3.589   9.152
29250WAT      O87991   8.580   5.991   8.839
29250WAT     H187992   8.562   5.895   8.858
29250WAT     H287993   8.672   6.001   8.800
29251WAT      O87994   1.839   7.761   3.765
29251WAT     H187995   1.790   7.764   3.852
29251WAT     H287996   1.925   7.711   3.777
29252WAT      O87997   1.076   6.302   1.465
29252WAT     H187998   1.048   6.207   1.466
29252WAT     H287999   1.112   6.327   1.555
29253WAT      O88000   0.069   3.299   2.869
29253WAT     H188001   0.155   3.306   2.919
29253WAT     H288002   0.013   3.226   2.909
29254WAT      O88003   3.278   8.530   0.603
29254WAT     H188004   3.366   8.574   0.583
29254WAT     H288005   3.236   8.500   0.518
29255WAT      O88006   2.241   1.394   7.274
29255WAT     H188007   2.236   1.295   7.286
29255WAT     H288008   2.183   1.439   7.342
29256WAT      O88009   9.800   7.288   4.777
29256WAT     H188010   9.801   7.280   4.677
29256WAT     H288011   9.869   7.227   4.816
29257WAT      O88012   2.402   4.494   2.235
29257WAT     H188013   2.380   4.578   2.184
29257WAT     H288014   2.320   4.462   2.284
29258WAT      O88015   6.887   7.520   4.879
29258WAT     H188016   6.934   7.448   4.929
29258WAT     H288017   6.931   7.608   4.899
29259WAT      O88018   3.423   7.936   9.820
29259WAT     H188019   3.427   7.929   9.919
29259WAT     H288020   3.514   7.953   9.783
29260WAT      O88021   2.531   2.438   1.680
29260WAT     H188022   2.478   2.522   1.688
29260WAT     H288023   2.599   2.433   1.753
29261WAT      O88024   2.808   9.217   4.521
29261WAT     H188025   2.806   9.287   4.449
29261WAT     H288026   2.878   9.241   4.588
29262WAT      O88027   0.286   8.354   7.695
29262WAT     H188028   0.210   8.370   7.633
29262WAT     H288029   0.348   8.433   7.693
29263WAT      O88030   2.814   4.593   8.733
29263WAT     H188031   2.854   4.564   8.646
29263WAT     H288032   2.731   4.646   8.716
29264WAT      O88033   0.040   1.106   7.475
29264WAT     H188034   0.030   1.188   7.420
29264WAT     H288035   0.122   1.056   7.448
29265WAT      O88036   8.471   8.581   1.880
29265WAT     H188037   8.399   8.634   1.926
29265WAT     H288038   8.430   8.525   1.809
29266WAT      O88039   3.924   0.435   9.238
29266WAT     H188040   3.900   0.423   9.142
29266WAT     H288041   3.979   0.518   9.249
29267WAT      O88042   6.957   5.665   8.857
29267WAT     H188043   6.892   5.732   8.892
29267WAT     H288044   6.910   5.602   8.795
29268WAT      O88045   3.006   6.274   6.605
29268WAT     H188046   3.012   6.174   6.615
29268WAT     H288047   3.018   6.316   6.695
29269WAT      O88048   1.595   0.614   6.315
29269WAT     H188049   1.626   0.677   6.386
29269WAT     H288050   1.526   0.658   6.259
29270WAT      O88051   4.527   3.148   3.528
29270WAT     H188052   4.470   3.187   3.455
29270WAT     H288053   4.622   3.148   3.499
29271WAT      O88054   6.815   9.757   3.687
29271WAT     H188055   6.838   9.777   3.592
29271WAT     H288056   6.815   9.658   3.701
29272WAT      O88057   1.382   7.650   3.823
29272WAT     H188058   1.435   7.644   3.907
29272WAT     H288059   1.421   7.589   3.754
29273WAT      O88060   8.067   5.351   8.869
29273WAT     H188061   8.149   5.330   8.816
29273WAT     H288062   8.086   5.428   8.931
29274WAT      O88063   3.847   8.485   8.835
29274WAT     H188064   3.807   8.463   8.745
29274WAT     H288065   3.774   8.504   8.900
29275WAT      O88066   0.567   5.926   0.175
29275WAT     H188067   0.568   5.839   0.224
29275WAT     H288068   0.570   6.001   0.241
29276WAT      O88069   7.730   3.562   1.806
29276WAT     H188070   7.658   3.510   1.761
29276WAT     H288071   7.802   3.499   1.836
29277WAT      O88072   1.859   2.320   6.523
29277WAT     H188073   1.795   2.244   6.512
29277WAT     H288074   1.908   2.310   6.610
29278WAT      O88075   7.872   4.993   8.616
29278WAT     H188076   7.940   5.053   8.574
29278WAT     H288077   7.906   4.899   8.617
29279WAT      O88078   8.131   1.606   9.609
29279WAT     H188079   8.088   1.544   9.544
29279WAT     H288080   8.062   1.668   9.647
29280WAT      O88081   0.302   0.364   9.829
29280WAT     H188082   0.300   0.328   9.923
29280WAT     H288083   0.280   0.290   9.765
29281WAT      O88084   3.503   7.841   2.594
29281WAT     H188085   3.434   7.907   2.565
29281WAT     H288086   3.459   7.756   2.621
29282WAT      O88087   9.680   5.862   3.151
29282WAT     H188088   9.778   5.849   3.141
29282WAT     H288089   9.647   5.927   3.082
29283WAT      O88090   9.237   1.750   2.346
29283WAT     H188091   9.160   1.746   2.283
29283WAT     H288092   9.223   1.824   2.412
29284WAT      O88093   5.246   8.108   7.096
29284WAT     H188094   5.294   8.072   7.016
29284WAT     H288095   5.245   8.038   7.168
29285WAT      O88096   1.938   1.695   5.296
29285WAT     H188097   1.874   1.640   5.348
29285WAT     H288098   1.917   1.688   5.199
29286WAT      O88099   2.217   2.530   9.318
29286WAT     H188100   2.249   2.624   9.311
29286WAT     H288101   2.272   2.471   9.257
29287WAT      O88102   6.375   6.906   4.693
29287WAT     H188103   6.313   6.915   4.771
29287WAT     H288104   6.444   6.978   4.696
29288WAT      O88105   8.417   1.889   5.984
29288WAT     H188106   8.501   1.836   5.977
29288WAT     H288107   8.342   1.840   5.941
29289WAT      O88108   2.602   4.792   7.956
29289WAT     H188109   2.589   4.888   7.979
29289WAT     H288110   2.689   4.760   7.995
29290WAT      O88111   5.739   8.102   1.597
29290WAT     H188112   5.838   8.090   1.596
29290WAT     H288113   5.703   8.098   1.504
29291WAT      O88114   6.336   8.295   1.355
29291WAT     H188115   6.306   8.386   1.382
29291WAT     H288116   6.324   8.284   1.256
29292WAT      O88117   2.316   9.253   8.722
29292WAT     H188118   2.266   9.267   8.807
29292WAT     H288119   2.398   9.198   8.739
29293WAT      O88120   6.082   7.573   2.851
29293WAT     H188121   6.005   7.515   2.878
29293WAT     H288122   6.105   7.634   2.927
29294WAT      O88123   0.076   2.576   9.663
29294WAT     H188124   0.028   2.633   9.730
29294WAT     H288125   0.009   2.528   9.607
29295WAT      O88126   3.309   6.572   7.807
29295WAT     H188127   3.305   6.533   7.715
29295WAT     H288128   3.255   6.515   7.869
29296WAT      O88129   4.497   9.353   8.751
29296WAT     H188130   4.576   9.308   8.709
29296WAT     H288131   4.413   9.323   8.705
29297WAT      O88132   7.776   8.823   6.331
29297WAT     H188133   7.715   8.744   6.337
29297WAT     H288134   7.742   8.896   6.391
29298WAT      O88135   7.828   8.519   2.374
29298WAT     H188136   7.743   8.500   2.323
29298WAT     H288137   7.855   8.439   2.426
29299WAT      O88138   0.288   0.116   2.588
29299WAT     H188139   0.333   0.090   2.673
29299WAT     H288140   0.349   0.175   2.534
29300WAT      O88141   5.070   7.045   2.303
29300WAT     H188142   5.049   7.061   2.207
29300WAT     H288143   5.164   7.013   2.312
29301WAT      O88144   8.528   3.824   1.342
29301WAT     H188145   8.534   3.790   1.248
29301WAT     H288146   8.611   3.876   1.364
29302WAT      O88147   5.668   1.071   4.211
29302WAT     H188148   5.729   1.146   4.237
29302WAT     H288149   5.699   1.033   4.123
29303WAT      O88150   7.846   5.614   3.604
29303WAT     H188151   7.822   5.525   3.644
29303WAT     H288152   7.815   5.687   3.664
29304WAT      O88153   5.829   1.696   2.595
29304WAT     H188154   5.739   1.720   2.631
29304WAT     H288155   5.900   1.744   2.647
29305WAT      O88156   8.015   0.941   1.590
29305WAT     H188157   7.992   1.018   1.530
29305WAT     H288158   8.115   0.936   1.601
29306WAT      O88159   7.541   1.865   8.280
29306WAT     H188160   7.444   1.873   8.300
29306WAT     H288161   7.560   1.904   8.189
29307WAT      O88162   0.977   7.727   6.255
29307WAT     H188163   0.995   7.641   6.207
29307WAT     H288164   1.042   7.797   6.224
29308WAT      O88165   9.673   3.187   4.106
29308WAT     H188166   9.735   3.258   4.138
29308WAT     H288167   9.598   3.230   4.055
29309WAT      O88168   6.375   0.771   3.374
29309WAT     H188169   6.331   0.684   3.398
29309WAT     H288170   6.462   0.752   3.328
29310WAT      O88171   4.600   4.585   8.371
29310WAT     H188172   4.610   4.660   8.436
29310WAT     H288173   4.559   4.506   8.416
29311WAT      O88174   8.723   7.580   4.260
29311WAT     H188175   8.739   7.498   4.205
29311WAT     H288176   8.758   7.565   4.353
29312WAT      O88177   7.037   3.553   1.085
29312WAT     H188178   7.052   3.641   1.131
29312WAT     H288179   7.116   3.493   1.103
29313WAT      O88180   5.378   9.211   5.293
29313WAT     H188181   5.322   9.263   5.229
29313WAT     H288182   5.335   9.122   5.310
29314WAT      O88183   6.115   8.267   9.855
29314WAT     H188184   6.038   8.326   9.831
29314WAT     H288185   6.139   8.210   9.776
29315WAT      O88186   6.610   4.235   0.133
29315WAT     H188187   6.646   4.325   0.158
29315WAT     H288188   6.639   4.168   0.201
29316WAT      O88189   8.268   5.008   5.571
29316WAT     H188190   8.333   4.985   5.499
29316WAT     H288191   8.254   5.107   5.573
29317WAT      O88192   6.249   0.080   5.935
29317WAT     H188193   6.168   0.106   5.986
29317WAT     H288194   6.292   0.161   5.896
29318WAT      O88195   6.727   1.043   3.242
29318WAT     H188196   6.633   1.024   3.217
29318WAT     H288197   6.753   1.134   3.209
29319WAT      O88198   4.689   4.579   2.238
29319WAT     H188199   4.739   4.514   2.180
29319WAT     H288200   4.652   4.530   2.317
29320WAT      O88201   9.541   2.847   5.390
29320WAT     H188202   9.619   2.882   5.442
29320WAT     H288203   9.560   2.754   5.359
29321WAT      O88204   8.554   9.718   4.656
29321WAT     H188205   8.555   9.737   4.558
29321WAT     H288206   8.648   9.724   4.692
29322WAT      O88207   6.508   4.317   4.510
29322WAT     H188208   6.512   4.320   4.610
29322WAT     H288209   6.436   4.254   4.481
29323WAT      O88210   1.099   2.795   6.093
29323WAT     H188211   1.192   2.819   6.121
29323WAT     H288212   1.099   2.702   6.055
29324WAT      O88213   3.276   3.515   0.401
29324WAT     H188214   3.344   3.583   0.428
29324WAT     H288215   3.222   3.552   0.325
29325WAT      O88216   0.302   2.465   3.683
29325WAT     H188217   0.353   2.440   3.766
29325WAT     H288218   0.205   2.444   3.696
29326WAT      O88219   8.241   5.727   0.620
29326WAT     H188220   8.170   5.779   0.668
29326WAT     H288221   8.215   5.630   0.616
29327WAT      O88222   8.990   7.006   8.233
29327WAT     H188223   8.986   7.028   8.331
29327WAT     H288224   8.915   6.944   8.210
29328WAT      O88225   4.817   6.894   2.337
29328WAT     H188226   4.798   6.812   2.391
29328WAT     H288227   4.915   6.896   2.314
29329WAT      O88228   3.189   4.030   7.513
29329WAT     H188229   3.177   3.974   7.595
29329WAT     H288230   3.102   4.038   7.465
29330WAT      O88231   6.745   9.159   6.451
29330WAT     H188232   6.671   9.175   6.516
29330WAT     H288233   6.762   9.061   6.443
29331WAT      O88234   8.127   6.814   5.592
29331WAT     H188235   8.152   6.819   5.495
29331WAT     H288236   8.189   6.871   5.645
29332WAT      O88237   4.207   4.055   1.333
29332WAT     H188238   4.146   3.981   1.364
29332WAT     H288239   4.297   4.043   1.375
29333WAT      O88240   8.320   3.363   9.009
29333WAT     H188241   8.376   3.281   9.000
29333WAT     H288242   8.270   3.379   8.924
29334WAT      O88243   7.827   0.530   7.892
29334WAT     H188244   7.814   0.599   7.821
29334WAT     H288245   7.800   0.441   7.857
29335WAT      O88246   5.216   6.503   1.953
29335WAT     H188247   5.312   6.481   1.971
29335WAT     H288248   5.188   6.459   1.867
29336WAT      O88249   8.966   6.105   0.593
29336WAT     H188250   9.032   6.129   0.522
29336WAT     H288251   8.997   6.142   0.681
29337WAT      O88252   8.224   2.497   8.089
29337WAT     H188253   8.132   2.458   8.094
29337WAT     H288254   8.272   2.483   8.175
29338WAT      O88255   7.708   1.542   7.649
29338WAT     H188256   7.627   1.593   7.620
29338WAT     H288257   7.790   1.590   7.619
29339WAT      O88258   5.644   5.563   4.150
29339WAT     H188259   5.679   5.590   4.060
29339WAT     H288260   5.708   5.498   4.192
29340WAT      O88261   4.731   5.321   2.816
29340WAT     H188262   4.801   5.367   2.869
29340WAT     H288263   4.773   5.251   2.758
29341WAT      O88264   6.900   8.620   8.804
29341WAT     H188265   6.882   8.523   8.787
29341WAT     H288266   6.824   8.659   8.857
29342WAT      O88267   6.100   9.230   9.499
29342WAT     H188268   6.099   9.138   9.459
29342WAT     H288269   6.020   9.242   9.558
29343WAT      O88270   8.267   7.124   0.748
29343WAT     H188271   8.209   7.140   0.668
29343WAT     H288272   8.259   7.202   0.810
29344WAT      O88273   0.565   8.022   0.722
29344WAT     H188274   0.523   8.041   0.633
29344WAT     H288275   0.495   8.026   0.793
29345WAT      O88276   9.725   2.368   8.295
29345WAT     H188277   9.708   2.274   8.324
29345WAT     H288278   9.784   2.367   8.215
29346WAT      O88279   0.411   9.623   2.020
29346WAT     H188280   0.448   9.657   1.934
29346WAT     H288281   0.486   9.595   2.080
29347WAT      O88282   9.166   9.230   4.013
29347WAT     H188283   9.191   9.306   4.073
29347WAT     H288284   9.132   9.267   3.926
29348WAT      O88285   2.695   4.923   0.653
29348WAT     H188286   2.792   4.926   0.678
29348WAT     H288287   2.678   4.988   0.579
29349WAT      O88288   1.241   1.335   5.239
29349WAT     H188289   1.267   1.390   5.160
29349WAT     H288290   1.316   1.273   5.263
29350WAT      O88291   4.010   4.048   8.455
29350WAT     H188292   3.918   4.082   8.474
29350WAT     H288293   4.076   4.096   8.513
29351WAT      O88294   1.332   2.797   2.650
29351WAT     H188295   1.369   2.705   2.664
29351WAT     H288296   1.380   2.841   2.573
29352WAT      O88297   2.112   0.268   4.927
29352WAT     H188298   2.143   0.221   4.845
29352WAT     H288299   2.183   0.330   4.959
29353WAT      O88300   7.750   0.221   1.248
29353WAT     H188301   7.735   0.219   1.347
29353WAT     H288302   7.847   0.205   1.228
29354WAT      O88303   0.691   2.178   3.148
29354WAT     H188304   0.763   2.113   3.124
29354WAT     H288305   0.730   2.256   3.197
29355WAT      O88306   4.730   1.985   8.081
29355WAT     H188307   4.766   2.071   8.044
29355WAT     H288308   4.764   1.972   8.174
29356WAT      O88309   1.831   5.926   9.704
29356WAT     H188310   1.768   6.001   9.724
29356WAT     H288311   1.924   5.962   9.693
29357WAT      O88312   0.527   4.598   3.713
29357WAT     H188313   0.444   4.547   3.738
29357WAT     H288314   0.584   4.611   3.795
29358WAT      O88315   8.450   7.503   5.249
29358WAT     H188316   8.509   7.496   5.168
29358WAT     H288317   8.402   7.591   5.248
29359WAT      O88318   4.985   4.137   3.806
29359WAT     H188319   4.998   4.098   3.715
29359WAT     H288320   4.962   4.234   3.798
29360WAT      O88321   2.362   7.098   3.640
29360WAT     H188322   2.273   7.106   3.596
29360WAT     H288323   2.412   7.021   3.601
29361WAT      O88324   2.035   5.623   2.785
29361WAT     H188325   2.045   5.707   2.731
29361WAT     H288326   2.032   5.544   2.723
29362WAT      O88327   8.851   4.232   8.184
29362WAT     H188328   8.951   4.222   8.188
29362WAT     H288329   8.808   4.160   8.239
29363WAT      O88330   4.702   2.880   7.555
29363WAT     H188331   4.680   2.858   7.460
29363WAT     H288332   4.764   2.958   7.558
29364WAT      O88333   8.724   0.933   3.077
29364WAT     H188334   8.800   0.889   3.029
29364WAT     H288335   8.641   0.922   3.023
29365WAT      O88336   3.555   2.789   0.986
29365WAT     H188337   3.486   2.791   0.914
29365WAT     H288338   3.522   2.734   1.063
29366WAT      O88339   0.701   3.206   4.030
29366WAT     H188340   0.638   3.129   4.032
29366WAT     H288341   0.675   3.273   4.100
29367WAT      O88342   8.664   9.114   2.235
29367WAT     H188343   8.578   9.068   2.259
29367WAT     H288344   8.738   9.047   2.232
29368WAT      O88345   3.048   8.740   2.490
29368WAT     H188346   3.057   8.641   2.499
29368WAT     H288347   3.102   8.771   2.411
29369WAT      O88348   8.431   1.299   1.843
29369WAT     H188349   8.484   1.216   1.858
29369WAT     H288350   8.429   1.353   1.927
29370WAT      O88351   9.686   4.593   7.288
29370WAT     H188352   9.688   4.675   7.345
29370WAT     H288353   9.710   4.618   7.194
29371WAT      O88354   5.148   0.255   1.675
29371WAT     H188355   5.182   0.306   1.754
29371WAT     H288356   5.081   0.311   1.625
29372WAT      O88357   2.197   5.563   3.272
29372WAT     H188358   2.141   5.587   3.192
29372WAT     H288359   2.293   5.585   3.253
29373WAT      O88360   4.124   9.474   2.661
29373WAT     H188361   4.218   9.501   2.680
29373WAT     H288362   4.075   9.551   2.621
29374WAT      O88363   1.349   7.515   3.272
29374WAT     H188364   1.268   7.466   3.305
29374WAT     H288365   1.324   7.609   3.248
29375WAT      O88366   6.986   7.014   1.746
29375WAT     H188367   7.010   7.111   1.744
29375WAT     H288368   7.052   6.962   1.692
29376WAT      O88369   5.623   1.727   4.805
29376WAT     H188370   5.696   1.769   4.859
29376WAT     H288371   5.576   1.798   4.753
29377WAT      O88372   2.500   3.291   5.399
29377WAT     H188373   2.589   3.245   5.401
29377WAT     H288374   2.440   3.243   5.334
29378WAT      O88375   3.945   1.005   1.683
29378WAT     H188376   3.884   0.929   1.705
29378WAT     H288377   3.907   1.058   1.607
29379WAT      O88378   1.694   4.783   7.113
29379WAT     H188379   1.654   4.692   7.129
29379WAT     H288380   1.793   4.779   7.126
29380WAT      O88381   4.989   3.260   9.767
29380WAT     H188382   4.978   3.318   9.686
29380WAT     H288383   4.929   3.181   9.761
29381WAT      O88384   7.528   1.677   9.577
29381WAT     H188385   7.437   1.668   9.538
29381WAT     H288386   7.521   1.694   9.675
29382WAT      O88387   2.694   2.523   0.625
29382WAT     H188388   2.682   2.430   0.657
29382WAT     H288389   2.608   2.574   0.633
29383WAT      O88390   5.030   4.941   5.416
29383WAT     H188391   5.009   5.021   5.472
29383WAT     H288392   5.108   4.962   5.357
29384WAT      O88393   7.508   0.626   0.584
29384WAT     H188394   7.474   0.710   0.626
29384WAT     H288395   7.502   0.551   0.651
29385WAT      O88396   4.385   9.205   0.329
29385WAT     H188397   4.402   9.112   0.362
29385WAT     H288398   4.431   9.270   0.389
29386WAT      O88399   3.057   0.858   8.756
29386WAT     H188400   3.149   0.823   8.735
29386WAT     H288401   3.027   0.820   8.843
29387WAT      O88402   1.577   9.087   1.195
29387WAT     H188403   1.546   9.181   1.187
29387WAT     H288404   1.497   9.026   1.204
29388WAT      O88405   2.011   8.985   7.266
29388WAT     H188406   2.072   8.942   7.200
29388WAT     H288407   2.045   8.970   7.359
29389WAT      O88408   9.280   7.680   3.125
29389WAT     H188409   9.271   7.583   3.105
29389WAT     H288410   9.358   7.717   3.074
29390WAT      O88411   4.047   4.365   6.987
29390WAT     H188412   3.966   4.318   6.953
29390WAT     H288413   4.059   4.452   6.938
29391WAT      O88414   8.788   1.225   5.174
29391WAT     H188415   8.865   1.287   5.161
29391WAT     H288416   8.814   1.155   5.241
29392WAT      O88417   4.110   8.559   0.545
29392WAT     H188418   4.134   8.553   0.641
29392WAT     H288419   4.058   8.643   0.528
29393WAT      O88420   2.244   8.066   6.942
29393WAT     H188421   2.156   8.038   6.902
29393WAT     H288422   2.233   8.076   7.041
29394WAT      O88423   0.646   9.258   3.082
29394WAT     H188424   0.644   9.176   3.025
29394WAT     H288425   0.554   9.281   3.112
29395WAT      O88426   0.867   2.387   2.009
29395WAT     H188427   0.952   2.389   2.062
29395WAT     H288428   0.884   2.426   1.918
29396WAT      O88429   8.071   5.120   7.465
29396WAT     H188430   8.101   5.053   7.397
29396WAT     H288431   8.035   5.073   7.545
29397WAT      O88432   7.586   2.461   0.074
29397WAT     H188433   7.505   2.438   0.129
29397WAT     H288434   7.557   2.515  -0.006
29398WAT      O88435   5.504   3.052   1.805
29398WAT     H188436   5.568   3.126   1.782
29398WAT     H288437   5.482   3.057   1.902
29399WAT      O88438   3.057   7.517   0.981
29399WAT     H188439   3.112   7.573   0.918
29399WAT     H288440   3.000   7.577   1.037
29400WAT      O88441   4.106   8.514   3.578
29400WAT     H188442   4.058   8.437   3.620
29400WAT     H288443   4.039   8.581   3.546
29401WAT      O88444   9.329   9.701   3.732
29401WAT     H188445   9.413   9.706   3.679
29401WAT     H288446   9.292   9.793   3.744
29402WAT      O88447   6.654   3.891   1.727
29402WAT     H188448   6.663   3.900   1.628
29402WAT     H288449   6.673   3.797   1.754
29403WAT      O88450   7.723   0.798   6.291
29403WAT     H188451   7.787   0.736   6.336
29403WAT     H288452   7.747   0.892   6.314
29404WAT      O88453   3.667   1.432   3.443
29404WAT     H188454   3.716   1.458   3.527
29404WAT     H288455   3.720   1.362   3.395
29405WAT      O88456   2.598   1.935   8.767
29405WAT     H188457   2.583   2.005   8.837
29405WAT     H288458   2.697   1.918   8.757
29406WAT      O88459   9.302   1.912   9.458
29406WAT     H188460   9.255   1.952   9.379
29406WAT     H288461   9.339   1.985   9.515
29407WAT      O88462   6.558   8.669   3.217
29407WAT     H188463   6.657   8.656   3.212
29407WAT     H288464   6.522   8.693   3.127
29408WAT      O88465   2.285   7.567   7.809
29408WAT     H188466   2.278   7.667   7.815
29408WAT     H288467   2.380   7.542   7.796
29409WAT      O88468   8.102   4.642   5.525
29409WAT     H188469   8.102   4.685   5.435
29409WAT     H288470   8.139   4.549   5.517
29410WAT      O88471   0.379   5.948   6.308
29410WAT     H188472   0.378   5.856   6.347
29410WAT     H288473   0.285   5.981   6.298
29411WAT      O88474   3.462   5.551   9.465
29411WAT     H188475   3.396   5.496   9.414
29411WAT     H288476   3.446   5.539   9.563
29412WAT      O88477   9.492   7.158   1.914
29412WAT     H188478   9.426   7.225   1.879
29412WAT     H288479   9.492   7.161   2.014
29413WAT      O88480   6.184   2.283   6.019
29413WAT     H188481   6.258   2.262   6.083
29413WAT     H288482   6.115   2.341   6.064
29414WAT      O88483   1.534   5.042   0.153
29414WAT     H188484   1.602   5.087   0.211
29414WAT     H288485   1.488   4.970   0.204
29415WAT      O88486   1.835   3.981   6.855
29415WAT     H188487   1.831   4.069   6.808
29415WAT     H288488   1.916   3.930   6.825
29416WAT      O88489   0.717   2.621   4.889
29416WAT     H188490   0.801   2.588   4.932
29416WAT     H288491   0.694   2.562   4.812
29417WAT      O88492   7.638   5.306   2.036
29417WAT     H188493   7.651   5.299   1.936
29417WAT     H288494   7.544   5.332   2.056
29418WAT      O88495   3.435   6.522   5.004
29418WAT     H188496   3.393   6.441   5.044
29418WAT     H288497   3.370   6.598   5.008
29419WAT      O88498   1.903   0.183   8.766
29419WAT     H188499   1.835   0.256   8.763
29419WAT     H288500   1.859   0.096   8.744
29420WAT      O88501   2.987   9.352   3.040
29420WAT     H188502   3.074   9.356   3.089
29420WAT     H288503   2.983   9.427   2.975
29421WAT      O88504   5.543   4.618   5.649
29421WAT     H188505   5.636   4.606   5.615
29421WAT     H288506   5.489   4.667   5.581
29422WAT      O88507   7.803   3.821   7.814
29422WAT     H188508   7.844   3.740   7.771
29422WAT     H288509   7.816   3.816   7.913
29423WAT      O88510   6.870   6.295   2.600
29423WAT     H188511   6.969   6.300   2.608
29423WAT     H288512   6.846   6.241   2.519
29424WAT      O88513   5.195   4.653   9.530
29424WAT     H188514   5.108   4.658   9.577
29424WAT     H288515   5.179   4.642   9.431
29425WAT      O88516   1.630   4.400   5.114
29425WAT     H188517   1.531   4.397   5.129
29425WAT     H288518   1.666   4.307   5.110
29426WAT      O88519   2.376   4.949   3.545
29426WAT     H188520   2.310   5.021   3.521
29426WAT     H288521   2.442   4.939   3.471
29427WAT      O88522   1.933   0.819   3.010
29427WAT     H188523   1.983   0.835   3.095
29427WAT     H288524   1.996   0.819   2.933
29428WAT      O88525   1.811   3.428   2.778
29428WAT     H188526   1.808   3.441   2.679
29428WAT     H288527   1.776   3.337   2.800
29429WAT      O88528   1.392   3.359   7.448
29429WAT     H188529   1.300   3.352   7.411
29429WAT     H288530   1.450   3.287   7.407
29430WAT      O88531   6.272   4.263   8.955
29430WAT     H188532   6.262   4.171   8.994
29430WAT     H288533   6.315   4.323   9.023
29431WAT      O88534   4.574   3.883   5.882
29431WAT     H188535   4.495   3.842   5.837
29431WAT     H288536   4.549   3.909   5.976
29432WAT      O88537   1.677   4.642   2.918
29432WAT     H188538   1.599   4.639   2.980
29432WAT     H288539   1.762   4.647   2.971
29433WAT      O88540   4.431   3.473   6.507
29433WAT     H188541   4.449   3.457   6.605
29433WAT     H288542   4.415   3.385   6.462
29434WAT      O88543   5.260   5.634   2.314
29434WAT     H188544   5.163   5.610   2.309
29434WAT     H288545   5.308   5.599   2.234
29435WAT      O88546   5.235   6.225   8.214
29435WAT     H188547   5.224   6.132   8.180
29435WAT     H288548   5.156   6.250   8.270
29436WAT      O88549   5.945   7.963   7.980
29436WAT     H188550   5.866   7.914   8.016
29436WAT     H288551   5.914   8.040   7.925
29437WAT      O88552   8.864   3.711   3.393
29437WAT     H188553   8.892   3.795   3.347
29437WAT     H288554   8.770   3.720   3.425
29438WAT      O88555   3.951   4.788   9.876
29438WAT     H188556   3.854   4.772   9.892
29438WAT     H288557   3.989   4.838   9.954
29439WAT      O88558   7.578   9.804   2.474
29439WAT     H188559   7.498   9.813   2.414
29439WAT     H288560   7.624   9.893   2.482
29440WAT      O88561   9.071   6.345   8.076
29440WAT     H188562   9.018   6.260   8.076
29440WAT     H288563   9.168   6.324   8.063
29441WAT      O88564   6.554   4.454   3.600
29441WAT     H188565   6.610   4.519   3.549
29441WAT     H288566   6.464   4.446   3.557
29442WAT      O88567   2.165   6.724   0.944
29442WAT     H188568   2.209   6.758   0.861
29442WAT     H288569   2.163   6.796   1.013
29443WAT      O88570   3.176   4.906   3.898
29443WAT     H188571   3.263   4.866   3.871
29443WAT     H288572   3.134   4.849   3.970
29444WAT      O88573   1.316   7.194   5.730
29444WAT     H188574   1.250   7.165   5.661
29444WAT     H288575   1.365   7.275   5.697
29445WAT      O88576   0.415   6.308   0.992
29445WAT     H188577   0.408   6.241   1.066
29445WAT     H288578   0.510   6.313   0.960
29446WAT      O88579   7.981   0.932   1.153
29446WAT     H188580   8.035   0.861   1.197
29446WAT     H288581   8.022   0.956   1.066
29447WAT      O88582   2.711   8.586   2.351
29447WAT     H188583   2.665   8.618   2.269
29447WAT     H288584   2.648   8.589   2.428
29448WAT      O88585   5.833   8.702   4.944
29448WAT     H188586   5.841   8.797   4.913
29448WAT     H288587   5.765   8.654   4.888
29449WAT      O88588   6.273   8.167   3.258
29449WAT     H188589   6.321   8.248   3.225
29449WAT     H288590   6.279   8.163   3.358
29450WAT      O88591   6.319   1.967   4.843
29450WAT     H188592   6.225   1.936   4.827
29450WAT     H288593   6.324   2.014   4.931
29451WAT      O88594   3.531   6.212   6.022
29451WAT     H188595   3.608   6.239   5.964
29451WAT     H288596   3.491   6.127   5.987
29452WAT      O88597   2.740   5.016   4.042
29452WAT     H188598   2.840   5.013   4.035
29452WAT     H288599   2.699   5.013   3.951
29453WAT      O88600   8.710   8.433   1.965
29453WAT     H188601   8.620   8.454   1.926
29453WAT     H288602   8.707   8.443   2.064
29454WAT      O88603   2.679   2.887   3.176
29454WAT     H188604   2.651   2.969   3.125
29454WAT     H288605   2.757   2.845   3.131
29455WAT      O88606   2.786   1.509   2.374
29455WAT     H188607   2.880   1.480   2.354
29455WAT     H288608   2.782   1.547   2.466
29456WAT      O88609   9.808   1.568   4.559
29456WAT     H188610   9.784   1.634   4.630
29456WAT     H288611   9.731   1.555   4.498
29457WAT      O88612   2.508   4.604   6.926
29457WAT     H188613   2.556   4.516   6.932
29457WAT     H288614   2.515   4.651   7.014
29458WAT      O88615   6.552   8.110   5.140
29458WAT     H188616   6.608   8.142   5.063
29458WAT     H288617   6.543   8.184   5.207
29459WAT      O88618   4.536   0.807   7.588
29459WAT     H188619   4.542   0.868   7.666
29459WAT     H288620   4.629   0.787   7.554
29460WAT      O88621   8.989   6.906   0.860
29460WAT     H188622   8.944   6.959   0.788
29460WAT     H288623   9.011   6.966   0.937
29461WAT      O88624   8.411   9.570   3.958
29461WAT     H188625   8.333   9.551   4.018
29461WAT     H288626   8.481   9.620   4.009
29462WAT      O88627   5.059   7.179   4.613
29462WAT     H188628   5.015   7.144   4.696
29462WAT     H288629   5.133   7.242   4.639
29463WAT      O88630   5.321   4.886   0.894
29463WAT     H188631   5.418   4.873   0.875
29463WAT     H288632   5.272   4.898   0.808
29464WAT      O88633   1.488   4.195   2.060
29464WAT     H188634   1.511   4.282   2.017
29464WAT     H288635   1.504   4.202   2.159
29465WAT      O88636   6.873   8.027   6.004
29465WAT     H188637   6.961   8.022   6.052
29465WAT     H288638   6.819   7.946   6.025
29466WAT      O88639   8.918   5.314   2.483
29466WAT     H188640   8.984   5.346   2.551
29466WAT     H288641   8.893   5.220   2.502
29467WAT      O88642   3.202   1.323   0.820
29467WAT     H188643   3.125   1.271   0.785
29467WAT     H288644   3.254   1.362   0.744
29468WAT      O88645   9.074   4.741   6.802
29468WAT     H188646   9.090   4.650   6.763
29468WAT     H288647   9.160   4.778   6.836
29469WAT      O88648   8.413   4.904   7.618
29469WAT     H188649   8.448   4.991   7.583
29469WAT     H288650   8.454   4.885   7.707
29470WAT      O88651   7.461   5.951   3.165
29470WAT     H188652   7.368   5.985   3.147
29470WAT     H288653   7.456   5.876   3.230
29471WAT      O88654   1.265   1.822   2.845
29471WAT     H188655   1.241   1.814   2.942
29471WAT     H288656   1.224   1.746   2.794
29472WAT      O88657   6.859   5.421   6.304
29472WAT     H188658   6.837   5.333   6.263
29472WAT     H288659   6.937   5.410   6.366
29473WAT      O88660   4.540   7.011   1.164
29473WAT     H188661   4.533   7.094   1.109
29473WAT     H288662   4.498   6.935   1.114
29474WAT      O88663   2.609   3.658   4.783
29474WAT     H188664   2.644   3.711   4.860
29474WAT     H288665   2.510   3.645   4.795
29475WAT      O88666   1.910   7.276   6.145
29475WAT     H188667   1.920   7.182   6.177
29475WAT     H288668   1.856   7.277   6.061
29476WAT      O88669   7.004   8.647   7.236
29476WAT     H188670   7.050   8.730   7.267
29476WAT     H288671   6.943   8.613   7.308
29477WAT      O88672   7.509   7.010   8.292
29477WAT     H188673   7.582   6.990   8.226
29477WAT     H288674   7.484   6.926   8.340
29478WAT      O88675   4.278   2.042   7.942
29478WAT     H188676   4.291   2.138   7.970
29478WAT     H288677   4.367   1.997   7.938
29479WAT      O88678   1.798   3.792   4.162
29479WAT     H188679   1.757   3.816   4.073
29479WAT     H288680   1.752   3.845   4.234
29480WAT      O88681   1.519   7.221   2.484
29480WAT     H188682   1.505   7.199   2.580
29480WAT     H288683   1.483   7.312   2.465
29481WAT      O88684   9.196   0.614   8.104
29481WAT     H188685   9.097   0.607   8.122
29481WAT     H288686   9.229   0.527   8.067
29482WAT      O88687   0.350   2.189   8.435
29482WAT     H188688   0.383   2.117   8.374
29482WAT     H288689   0.281   2.151   8.497
29483WAT      O88690   0.425   2.773   0.005
29483WAT     H188691   0.460   2.688  -0.035
29483WAT     H288692   0.379   2.752   0.092
29484WAT      O88693   5.955   1.167   7.854
29484WAT     H188694   6.042   1.159   7.902
29484WAT     H288695   5.970   1.157   7.756
29485WAT      O88696   0.677   0.770   8.517
29485WAT     H188697   0.693   0.712   8.597
29485WAT     H288698   0.666   0.865   8.547
29486WAT      O88699   1.431   9.177   4.612
29486WAT     H188700   1.392   9.193   4.521
29486WAT     H288701   1.379   9.105   4.658
29487WAT      O88702   0.963   1.470   7.627
29487WAT     H188703   0.868   1.498   7.642
29487WAT     H288704   0.965   1.377   7.592
29488WAT      O88705   5.681   3.233   1.760
29488WAT     H188706   5.681   3.333   1.752
29488WAT     H288707   5.758   3.195   1.709
29489WAT      O88708   1.461   6.768   3.815
29489WAT     H188709   1.450   6.771   3.914
29489WAT     H288710   1.529   6.698   3.791
29490WAT      O88711   9.621   4.116   8.247
29490WAT     H188712   9.700   4.055   8.242
29490WAT     H288713   9.538   4.063   8.266
29491WAT      O88714   7.138   2.692   0.528
29491WAT     H188715   7.090   2.606   0.513
29491WAT     H288716   7.157   2.702   0.626
29492WAT      O88717   2.861   5.437   9.068
29492WAT     H188718   2.790   5.506   9.073
29492WAT     H288719   2.916   5.450   8.986
29493WAT      O88720   3.881   8.737   0.863
29493WAT     H188721   3.902   8.748   0.765
29493WAT     H288722   3.801   8.793   0.886
29494WAT      O88723   1.827   0.484   0.241
29494WAT     H188724   1.838   0.390   0.212
29494WAT     H288725   1.915   0.522   0.268
29495WAT      O88726   3.628   1.958   2.050
29495WAT     H188727   3.654   1.968   1.954
29495WAT     H288728   3.709   1.968   2.108
29496WAT      O88729   8.816   9.597   6.342
29496WAT     H188730   8.810   9.697   6.341
29496WAT     H288731   8.723   9.558   6.344
29497WAT      O88732   5.677   4.466   4.184
29497WAT     H188733   5.773   4.446   4.163
29497WAT     H288734   5.673   4.526   4.264
29498WAT      O88735   7.658   7.545   1.769
29498WAT     H188736   7.610   7.626   1.736
29498WAT     H288737   7.592   7.471   1.783
29499WAT      O88738   6.766   4.901   5.931
29499WAT     H188739   6.853   4.854   5.948
29499WAT     H288740   6.728   4.933   6.018
29500WAT      O88741   6.800   4.137   1.345
29500WAT     H188742   6.798   4.040   1.370
29500WAT     H288743   6.882   4.155   1.291
29501WAT      O88744   0.523   6.703   8.458
29501WAT     H188745   0.484   6.792   8.437
29501WAT     H288746   0.456   6.631   8.438
29502WAT      O88747   2.674   6.303   6.743
29502WAT     H188748   2.669   6.388   6.796
29502WAT     H288749   2.653   6.323   6.647
29503WAT      O88750   2.387   3.341   0.350
29503WAT     H188751   2.370   3.405   0.275
29503WAT     H288752   2.311   3.346   0.415
29504WAT      O88753   4.883   3.849   1.127
29504WAT     H188754   4.875   3.783   1.201
29504WAT     H288755   4.957   3.821   1.065
29505WAT      O88756   6.555   7.766   5.849
29505WAT     H188757   6.583   7.816   5.767
29505WAT     H288758   6.632   7.763   5.913
29506WAT      O88759   1.393   6.060   7.203
29506WAT     H188760   1.489   6.066   7.229
29506WAT     H288761   1.363   5.965   7.207
29507WAT      O88762   6.592   7.275   0.027
29507WAT     H188763   6.669   7.286   0.090
29507WAT     H288764   6.624   7.292  -0.067
29508WAT      O88765   2.562   0.981   4.688
29508WAT     H188766   2.537   0.955   4.782
29508WAT     H288767   2.652   0.945   4.667
29509WAT      O88768   9.575   2.853   4.630
29509WAT     H188769   9.489   2.902   4.645
29509WAT     H288770   9.579   2.772   4.687
29510WAT      O88771   4.406   3.203   6.964
29510WAT     H188772   4.392   3.257   6.881
29510WAT     H288773   4.347   3.238   7.036
29511WAT      O88774   8.199   0.189   1.661
29511WAT     H188775   8.214   0.092   1.643
29511WAT     H288776   8.185   0.202   1.759
29512WAT      O88777   1.029   7.127   4.508
29512WAT     H188778   0.944   7.097   4.465
29512WAT     H288779   1.037   7.226   4.499
29513WAT      O88780   8.283   7.871   6.077
29513WAT     H188781   8.197   7.921   6.062
29513WAT     H288782   8.338   7.919   6.146
29514WAT      O88783   8.865   1.261   3.966
29514WAT     H188784   8.951   1.225   3.929
29514WAT     H288785   8.795   1.190   3.965
29515WAT      O88786   0.181   2.077   4.747
29515WAT     H188787   0.202   2.168   4.713
29515WAT     H288788   0.219   2.008   4.685
29516WAT      O88789   9.612   7.449   3.331
29516WAT     H188790   9.691   7.388   3.334
29516WAT     H288791   9.567   7.441   3.242
29517WAT      O88792   4.420   9.559   7.624
29517WAT     H188793   4.392   9.535   7.531
29517WAT     H288794   4.520   9.562   7.630
29518WAT      O88795   1.664   3.573   1.365
29518WAT     H188796   1.725   3.498   1.392
29518WAT     H288797   1.678   3.594   1.268
29519WAT      O88798   1.062   2.307   1.059
29519WAT     H188799   1.015   2.218   1.059
29519WAT     H288800   1.156   2.294   1.027
29520WAT      O88801   8.877   5.491   0.443
29520WAT     H188802   8.933   5.411   0.465
29520WAT     H288803   8.911   5.533   0.359
29521WAT      O88804   1.585   7.160   9.714
29521WAT     H188805   1.550   7.242   9.760
29521WAT     H288806   1.566   7.167   9.616
29522WAT      O88807   2.570   8.639   3.184
29522WAT     H188808   2.511   8.717   3.206
29522WAT     H288809   2.516   8.555   3.186
29523WAT      O88810   9.795   3.138   1.582
29523WAT     H188811   9.819   3.152   1.486
29523WAT     H288812   9.861   3.076   1.625
29524WAT      O88813   6.160   1.368   3.376
29524WAT     H188814   6.252   1.391   3.408
29524WAT     H288815   6.103   1.450   3.377
29525WAT      O88816   3.132   2.446   0.534
29525WAT     H188817   3.067   2.509   0.491
29525WAT     H288818   3.224   2.487   0.533
29526WAT      O88819   6.438   9.707   8.693
29526WAT     H188820   6.454   9.763   8.611
29526WAT     H288821   6.340   9.701   8.710
29527WAT      O88822   1.738   5.377   6.800
29527WAT     H188823   1.754   5.280   6.781
29527WAT     H288824   1.804   5.432   6.749
29528WAT      O88825   9.722   6.824   3.279
29528WAT     H188826   9.791   6.777   3.225
29528WAT     H288827   9.688   6.762   3.350
29529WAT      O88828   5.830   1.245   2.730
29529WAT     H188829   5.794   1.249   2.637
29529WAT     H288830   5.774   1.184   2.786
29530WAT      O88831   4.961   4.982   5.888
29530WAT     H188832   4.892   4.936   5.831
29530WAT     H288833   4.981   5.072   5.849
29531WAT      O88834   2.019   3.749   2.574
29531WAT     H188835   2.099   3.697   2.542
29531WAT     H288836   1.991   3.713   2.663
29532WAT      O88837   7.894   6.357   0.535
29532WAT     H188838   7.964   6.395   0.596
29532WAT     H288839   7.862   6.269   0.570
29533WAT      O88840   2.000   5.153   0.362
29533WAT     H188841   1.996   5.092   0.441
29533WAT     H288842   2.044   5.106   0.285
29534WAT      O88843   5.164   5.353   6.415
29534WAT     H188844   5.125   5.418   6.480
29534WAT     H288845   5.181   5.400   6.328
29535WAT      O88846   7.626   6.336   8.790
29535WAT     H188847   7.553   6.292   8.842
29535WAT     H288848   7.690   6.381   8.852
29536WAT      O88849   3.247   2.226   7.538
29536WAT     H188850   3.204   2.174   7.464
29536WAT     H288851   3.292   2.163   7.601
29537WAT      O88852   6.576   6.599   8.190
29537WAT     H188853   6.594   6.693   8.220
29537WAT     H288854   6.518   6.554   8.257
29538WAT      O88855   9.652   3.732   0.287
29538WAT     H188856   9.702   3.809   0.325
29538WAT     H288857   9.554   3.742   0.307
29539WAT      O88858   9.767   3.696   2.002
29539WAT     H188859   9.714   3.735   2.078
29539WAT     H288860   9.738   3.601   1.987
29540WAT      O88861   8.757   7.850   4.192
29540WAT     H188862   8.765   7.753   4.213
29540WAT     H288863   8.718   7.898   4.271
29541WAT      O88864   2.357   4.496   7.790
29541WAT     H188865   2.350   4.415   7.733
29541WAT     H288866   2.425   4.481   7.862
29542WAT      O88867   1.252   5.289   0.398
29542WAT     H188868   1.289   5.284   0.305
29542WAT     H288869   1.294   5.218   0.454
29543WAT      O88870   9.530   8.634   6.087
29543WAT     H188871   9.589   8.586   6.152
29543WAT     H288872   9.434   8.620   6.110
29544WAT      O88873   7.026   1.997   1.528
29544WAT     H188874   7.105   1.991   1.467
29544WAT     H288875   6.999   1.905   1.558
29545WAT      O88876   8.895   1.857   9.856
29545WAT     H188877   8.831   1.920   9.900
29545WAT     H288878   8.985   1.864   9.900
29546WAT      O88879   7.414   4.314   2.693
29546WAT     H188880   7.405   4.216   2.672
29546WAT     H288881   7.508   4.333   2.720
29547WAT      O88882   4.519   4.875   8.249
29547WAT     H188883   4.423   4.877   8.277
29547WAT     H288884   4.577   4.899   8.327
29548WAT      O88885   3.670   4.712   3.850
29548WAT     H188886   3.713   4.758   3.773
29548WAT     H288887   3.718   4.736   3.934
29549WAT      O88888   5.875   1.954   1.704
29549WAT     H188889   5.798   1.892   1.687
29549WAT     H288890   5.899   1.951   1.801
29550WAT      O88891   9.345   4.133   3.909
29550WAT     H188892   9.263   4.148   3.965
29550WAT     H288893   9.377   4.039   3.920
29551WAT      O88894   1.709   4.507   9.611
29551WAT     H188895   1.721   4.451   9.692
29551WAT     H288896   1.640   4.466   9.552
29552WAT      O88897   9.168   9.250   8.874
29552WAT     H188898   9.265   9.233   8.858
29552WAT     H288899   9.123   9.164   8.900
29553WAT      O88900   7.956   7.918   1.159
29553WAT     H188901   7.958   8.018   1.161
29553WAT     H288902   8.049   7.882   1.167
29554WAT      O88903   0.544   5.543   9.884
29554WAT     H188904   0.529   5.635   9.846
29554WAT     H288905   0.592   5.487   9.816
29555WAT      O88906   8.197   6.731   3.653
29555WAT     H188907   8.194   6.724   3.753
29555WAT     H288908   8.289   6.707   3.621
29556WAT      O88909   1.189   4.062   7.516
29556WAT     H188910   1.182   4.035   7.612
29556WAT     H288911   1.165   3.985   7.458
29557WAT      O88912   0.514   5.644   1.173
29557WAT     H188913   0.592   5.582   1.172
29557WAT     H288914   0.510   5.691   1.262
29558WAT      O88915   6.622   5.794   9.854
29558WAT     H188916   6.522   5.789   9.855
29558WAT     H288917   6.651   5.862   9.786
29559WAT      O88918   1.357   2.440   7.410
29559WAT     H188919   1.439   2.415   7.358
29559WAT     H288920   1.378   2.518   7.469
29560WAT      O88921   3.147   1.266   3.445
29560WAT     H188922   3.194   1.308   3.367
29560WAT     H288923   3.115   1.337   3.507
29561WAT      O88924   0.499   0.147   6.496
29561WAT     H188925   0.586   0.105   6.469
29561WAT     H288926   0.498   0.160   6.595
29562WAT      O88927   4.917   8.713   3.914
29562WAT     H188928   4.823   8.679   3.919
29562WAT     H288929   4.918   8.810   3.940
29563WAT      O88930   6.777   3.658   1.787
29563WAT     H188931   6.820   3.634   1.700
29563WAT     H288932   6.766   3.575   1.842
29564WAT      O88933   0.789   9.354   0.739
29564WAT     H188934   0.841   9.311   0.813
29564WAT     H288935   0.848   9.366   0.660
29565WAT      O88936   6.292   8.249   1.094
29565WAT     H188937   6.265   8.322   1.031
29565WAT     H288938   6.315   8.167   1.042
29566WAT      O88939   7.079   1.258   7.876
29566WAT     H188940   7.034   1.170   7.859
29566WAT     H288941   7.091   1.270   7.975
29567WAT      O88942   3.627   4.844   5.127
29567WAT     H188943   3.539   4.849   5.081
29567WAT     H288944   3.641   4.751   5.162
29568WAT      O88945   4.916   6.266   5.382
29568WAT     H188946   4.890   6.353   5.340
29568WAT     H288947   4.918   6.195   5.311
29569WAT      O88948   3.026   7.197   5.235
29569WAT     H188949   3.048   7.236   5.146
29569WAT     H288950   2.998   7.102   5.224
29570WAT      O88951   9.040   4.092   2.851
29570WAT     H188952   8.953   4.044   2.840
29570WAT     H288953   9.027   4.188   2.824
29571WAT      O88954   3.649   1.253   1.841
29571WAT     H188955   3.593   1.190   1.787
29571WAT     H288956   3.743   1.251   1.807
29572WAT      O88957   1.471   8.464   5.971
29572WAT     H188958   1.432   8.432   5.884
29572WAT     H288959   1.563   8.500   5.955
29573WAT      O88960   5.782   4.381   6.571
29573WAT     H188961   5.722   4.311   6.531
29573WAT     H288962   5.840   4.420   6.499
29574WAT      O88963   6.109   1.590   2.668
29574WAT     H188964   6.090   1.688   2.658
29574WAT     H288965   6.058   1.554   2.746
29575WAT      O88966   7.859   3.258   4.132
29575WAT     H188967   7.953   3.237   4.106
29575WAT     H288968   7.817   3.316   4.062
29576WAT      O88969   5.582   2.225   0.186
29576WAT     H188970   5.563   2.138   0.141
29576WAT     H288971   5.612   2.209   0.280
29577WAT      O88972   0.655   7.742   7.516
29577WAT     H188973   0.658   7.816   7.584
29577WAT     H288974   0.723   7.673   7.539
29578WAT      O88975   8.631   3.052   8.736
29578WAT     H188976   8.605   2.969   8.688
29578WAT     H288977   8.714   3.090   8.695
29579WAT      O88978   4.822   1.723   8.481
29579WAT     H188979   4.873   1.637   8.471
29579WAT     H288980   4.784   1.728   8.574
29580WAT      O88981   5.007   1.644   6.523
29580WAT     H188982   5.089   1.591   6.501
29580WAT     H288983   4.929   1.582   6.533
29581WAT      O88984   6.802   3.252   3.320
29581WAT     H188985   6.793   3.351   3.317
29581WAT     H288986   6.752   3.216   3.399
29582WAT      O88987   3.283   2.973   9.281
29582WAT     H188988   3.351   3.036   9.244
29582WAT     H288989   3.238   3.013   9.360
29583WAT      O88990   1.939   7.945   4.004
29583WAT     H188991   2.027   7.901   3.983
29583WAT     H288992   1.909   7.999   3.926
29584WAT      O88993   9.134   1.008   4.868
29584WAT     H188994   9.198   0.932   4.880
29584WAT     H288995   9.073   0.989   4.792
29585WAT      O88996   0.460   6.787   2.605
29585WAT     H188997   0.366   6.771   2.576
29585WAT     H288998   0.474   6.885   2.620
29586WAT      O88999   9.152   3.028   5.652
29586WAT     H189000   9.202   2.989   5.729
29586WAT     H289001   9.195   3.002   5.566
29587WAT      O89002   4.317   8.658   3.661
29587WAT     H189003   4.370   8.673   3.578
29587WAT     H289004   4.244   8.592   3.643
29588WAT      O89005   8.170   5.276   6.027
29588WAT     H189006   8.160   5.178   6.045
29588WAT     H289007   8.083   5.312   5.992
29589WAT      O89008   3.272   5.768   6.243
29589WAT     H189009   3.271   5.675   6.281
29589WAT     H289010   3.188   5.816   6.270
29590WAT      O89011   1.732   7.927   1.207
29590WAT     H189012   1.670   7.886   1.140
29590WAT     H289013   1.712   7.890   1.297
29591WAT      O89014   1.427   2.916   5.489
29591WAT     H189015   1.424   2.962   5.578
29591WAT     H289016   1.440   2.818   5.503
29592WAT      O89017   3.805   0.790   1.093
29592WAT     H189018   3.858   0.708   1.071
29592WAT     H289019   3.844   0.833   1.175
29593WAT      O89020   4.943   3.629   0.793
29593WAT     H189021   4.864   3.686   0.770
29593WAT     H289022   5.006   3.681   0.851
29594WAT      O89023   4.939   0.031   4.143
29594WAT     H189024   4.988   0.118   4.158
29594WAT     H289025   4.857   0.048   4.088
29595WAT      O89026   3.727   0.849   1.957
29595WAT     H189027   3.737   0.948   1.969
29595WAT     H289028   3.741   0.803   2.045
29596WAT      O89029   7.942   7.244   5.313
29596WAT     H189030   7.983   7.302   5.384
29596WAT     H289031   7.843   7.257   5.314
29597WAT      O89032   8.960   1.177   0.034
29597WAT     H189033   8.868   1.202   0.005
29597WAT     H289034   8.995   1.245   0.099
29598WAT      O89035   7.524   2.234   7.793
29598WAT     H189036   7.471   2.237   7.878
29598WAT     H289037   7.527   2.140   7.758
29599WAT      O89038   3.659   8.755   2.918
29599WAT     H189039   3.572   8.750   2.966
29599WAT     H289040   3.707   8.838   2.944
29600WAT      O89041   9.781   3.548   9.538
29600WAT     H189042   9.709   3.481   9.518
29600WAT     H289043   9.820   3.529   9.628
29601WAT      O89044   6.872   2.023   3.425
29601WAT     H189045   6.936   2.082   3.376
29601WAT     H289046   6.790   2.008   3.369
29602WAT      O89047   0.528   2.410   1.048
29602WAT     H189048   0.574   2.432   1.134
29602WAT     H289049   0.445   2.464   1.040
29603WAT      O89050   2.291   4.728   2.619
29603WAT     H189051   2.380   4.746   2.576
29603WAT     H289052   2.251   4.813   2.651
29604WAT      O89053   4.223   2.333   0.035
29604WAT     H189054   4.263   2.256   0.084
29604WAT     H289055   4.150   2.300  -0.025
29605WAT      O89056   2.953   5.566   6.303
29605WAT     H189057   3.049   5.553   6.326
29605WAT     H289058   2.904   5.479   6.315
29606WAT      O89059   9.341   9.002   5.743
29606WAT     H189060   9.281   9.048   5.678
29606WAT     H289061   9.288   8.970   5.821
29607WAT      O89062   6.700   3.079   0.505
29607WAT     H189063   6.736   3.031   0.585
29607WAT     H289064   6.765   3.149   0.476
29608WAT      O89065   5.482   0.119   6.113
29608WAT     H189066   5.510   0.033   6.154
29608WAT     H289067   5.537   0.194   6.151
29609WAT      O89068   6.483   1.858   4.605
29609WAT     H189069   6.425   1.900   4.675
29609WAT     H289070   6.579   1.880   4.625
29610WAT      O89071   5.312   3.995   6.312
29610WAT     H189072   5.376   4.067   6.288
29610WAT     H289073   5.296   3.936   6.233
29611WAT      O89074   2.673   7.867   6.002
29611WAT     H189075   2.611   7.939   6.034
29611WAT     H289076   2.619   7.792   5.963
29612WAT      O89077   0.411   7.369   9.230
29612WAT     H189078   0.391   7.303   9.302
29612WAT     H289079   0.499   7.347   9.188
29613WAT      O89080   8.140   8.267   6.946
29613WAT     H189081   8.137   8.290   6.849
29613WAT     H289082   8.164   8.348   6.999
29614WAT      O89083   4.814   8.968   2.564
29614WAT     H189084   4.785   9.053   2.609
29614WAT     H289085   4.740   8.935   2.506
29615WAT      O89086   2.642   6.206   3.629
29615WAT     H189087   2.658   6.298   3.664
29615WAT     H289088   2.690   6.195   3.542
29616WAT      O89089   8.441   6.059   6.777
29616WAT     H189090   8.410   6.105   6.694
29616WAT     H289091   8.372   5.993   6.807
29617WAT      O89092   1.284   9.367   7.831
29617WAT     H189093   1.212   9.390   7.896
29617WAT     H289094   1.370   9.409   7.861
29618WAT      O89095   2.687   6.832   3.811
29618WAT     H189096   2.709   6.930   3.807
29618WAT     H289097   2.750   6.787   3.874
29619WAT      O89098   3.389   7.749   4.550
29619WAT     H189099   3.297   7.727   4.581
29619WAT     H289100   3.395   7.738   4.451
29620WAT      O89101   6.522   6.830   3.613
29620WAT     H189102   6.432   6.799   3.645
29620WAT     H289103   6.511   6.897   3.540
29621WAT      O89104   5.591   9.802   0.046
29621WAT     H189105   5.630   9.890   0.020
29621WAT     H289106   5.559   9.807   0.141
29622WAT      O89107   8.476   9.314   3.853
29622WAT     H189108   8.431   9.403   3.859
29622WAT     H289109   8.502   9.283   3.945
29623WAT      O89110   9.661   5.560   1.714
29623WAT     H189111   9.610   5.637   1.674
29623WAT     H289112   9.662   5.484   1.649
29624WAT      O89113   2.303   8.921   2.413
29624WAT     H189114   2.331   8.853   2.346
29624WAT     H289115   2.253   8.994   2.367
29625WAT      O89116   3.488   7.918   1.027
29625WAT     H189117   3.521   7.851   1.094
29625WAT     H289118   3.390   7.930   1.038
29626WAT      O89119   9.548   6.199   1.512
29626WAT     H189120   9.616   6.240   1.573
29626WAT     H289121   9.591   6.125   1.460
29627WAT      O89122   1.250   8.540   7.798
29627WAT     H189123   1.237   8.519   7.895
29627WAT     H289124   1.207   8.469   7.743
29628WAT      O89125   6.137   2.011   6.943
29628WAT     H189126   6.137   1.917   6.975
29628WAT     H289127   6.079   2.018   6.861
29629WAT      O89128   8.555   5.608   2.570
29629WAT     H189129   8.624   5.679   2.587
29629WAT     H289130   8.534   5.605   2.472
29630WAT      O89131   4.081   0.503   2.377
29630WAT     H189132   4.170   0.545   2.359
29630WAT     H289133   4.037   0.478   2.291
29631WAT      O89134   7.488   6.095   7.444
29631WAT     H189135   7.507   6.160   7.517
29631WAT     H289136   7.518   6.003   7.472
29632WAT      O89137   2.386   7.233   5.955
29632WAT     H189138   2.479   7.268   5.959
29632WAT     H289139   2.326   7.292   6.009
29633WAT      O89140   1.016   6.314   5.940
29633WAT     H189141   1.027   6.214   5.940
29633WAT     H289142   1.099   6.356   5.905
29634WAT      O89143   9.682   9.237   0.377
29634WAT     H189144   9.652   9.190   0.294
29634WAT     H289145   9.764   9.192   0.414
29635WAT      O89146   9.403   8.123   9.081
29635WAT     H189147   9.498   8.096   9.098
29635WAT     H289148   9.345   8.042   9.083
29636WAT      O89149   7.342   6.920   3.696
29636WAT     H189150   7.410   6.890   3.630
29636WAT     H289151   7.343   6.860   3.776
29637WAT      O89152   0.494   7.032   3.331
29637WAT     H189153   0.521   7.019   3.427
29637WAT     H289154   0.535   6.960   3.275
29638WAT      O89155   8.863   8.320   7.195
29638WAT     H189156   8.844   8.286   7.287
29638WAT     H289157   8.962   8.336   7.185
29639WAT      O89158   0.401   7.707   7.825
29639WAT     H189159   0.392   7.677   7.920
29639WAT     H289160   0.435   7.631   7.770
29640WAT      O89161   0.129   6.850   1.562
29640WAT     H189162   0.033   6.834   1.585
29640WAT     H289163   0.177   6.763   1.555
29641WAT      O89164   0.750   4.777   6.326
29641WAT     H189165   0.729   4.684   6.356
29641WAT     H289166   0.842   4.779   6.288
29642WAT      O89167   5.746   6.728   0.073
29642WAT     H189168   5.743   6.826   0.056
29642WAT     H289169   5.704   6.680  -0.004
29643WAT      O89170   8.691   1.639   7.694
29643WAT     H189171   8.625   1.636   7.769
29643WAT     H289172   8.710   1.546   7.663
29644WAT      O89173   7.508   4.683   7.320
29644WAT     H189174   7.554   4.771   7.326
29644WAT     H289175   7.429   4.682   7.382
29645WAT      O89176   0.095   6.285   2.619
29645WAT     H189177  -0.001   6.298   2.592
29645WAT     H289178   0.139   6.374   2.628
29646WAT      O89179   3.634   0.142   7.904
29646WAT     H189180   3.676   0.053   7.885
29646WAT     H289181   3.701   0.215   7.887
29647WAT      O89182   4.939   7.858   3.742
29647WAT     H189183   4.893   7.777   3.776
29647WAT     H289184   4.899   7.940   3.784
29648WAT      O89185   8.499   4.510   4.366
29648WAT     H189186   8.529   4.594   4.321
29648WAT     H289187   8.400   4.510   4.375
29649WAT      O89188   9.072   2.626   2.509
29649WAT     H189189   9.110   2.539   2.478
29649WAT     H289190   9.141   2.677   2.558
29650WAT      O89191   5.946   9.114   7.695
29650WAT     H189192   5.853   9.078   7.683
29650WAT     H289193   5.981   9.145   7.606
29651WAT      O89194   7.139   5.018   3.650
29651WAT     H189195   7.199   4.968   3.587
29651WAT     H289196   7.122   4.962   3.731
29652WAT      O89197   1.088   8.285   1.368
29652WAT     H189198   1.119   8.206   1.317
29652WAT     H289199   1.154   8.305   1.441
29653WAT      O89200   4.392   2.275   3.283
29653WAT     H189201   4.313   2.234   3.238
29653WAT     H289202   4.470   2.214   3.276
29654WAT      O89203   9.779   9.614   8.926
29654WAT     H189204   9.878   9.602   8.916
29654WAT     H289205   9.760   9.670   9.007
29655WAT      O89206   2.720   4.079   3.680
29655WAT     H189207   2.634   4.113   3.716
29655WAT     H289208   2.772   4.035   3.754
29656WAT      O89209   1.880   3.278   9.153
29656WAT     H189210   1.952   3.290   9.085
29656WAT     H289211   1.877   3.357   9.214
29657WAT      O89212   1.905   4.608   9.183
29657WAT     H189213   1.809   4.581   9.179
29657WAT     H289214   1.922   4.660   9.267
29658WAT      O89215   3.528   2.099   7.112
29658WAT     H189216   3.580   2.015   7.098
29658WAT     H289217   3.468   2.087   7.192
29659WAT      O89218   3.986   7.543   9.067
29659WAT     H189219   3.953   7.583   8.981
29659WAT     H289220   3.941   7.455   9.082
29660WAT      O89221   9.387   1.266   4.741
29660WAT     H189222   9.305   1.315   4.712
29660WAT     H289223   9.464   1.330   4.744
29661WAT      O89224   1.834   1.985   3.100
29661WAT     H189225   1.748   1.952   3.061
29661WAT     H289226   1.894   1.906   3.120
29662WAT      O89227   0.649   1.832   4.706
29662WAT     H189228   0.664   1.825   4.804
29662WAT     H289229   0.707   1.905   4.669
29663WAT      O89230   0.903   8.710   9.351
29663WAT     H189231   0.982   8.772   9.354
29663WAT     H289232   0.904   8.652   9.432
29664WAT      O89233   6.743   8.313   9.098
29664WAT     H189234   6.725   8.408   9.126
29664WAT     H289235   6.839   8.304   9.073
29665WAT      O89236   3.713   0.382   2.498
29665WAT     H189237   3.797   0.414   2.542
29665WAT     H289238   3.716   0.403   2.400
29666WAT      O89239   8.530   0.147   7.968
29666WAT     H189240   8.567   0.164   7.876
29666WAT     H289241   8.604   0.126   8.031
29667WAT      O89242   3.354   7.458   9.552
29667WAT     H189243   3.443   7.418   9.534
29667WAT     H289244   3.321   7.505   9.469
29668WAT      O89245   3.839   3.630   1.398
29668WAT     H189246   3.826   3.589   1.489
29668WAT     H289247   3.836   3.558   1.329
29669WAT      O89248   0.298   2.783   0.262
29669WAT     H189249   0.245   2.856   0.220
29669WAT     H289250   0.244   2.738   0.333
29670WAT      O89251   0.527   9.764   6.917
29670WAT     H189252   0.625   9.744   6.924
29670WAT     H289253   0.476   9.699   6.973
29671WAT      O89254   7.113   0.307   1.972
29671WAT     H189255   7.057   0.304   1.890
29671WAT     H289256   7.175   0.386   1.967
29672WAT      O89257   6.280   3.163   6.411
29672WAT     H189258   6.273   3.253   6.369
29672WAT     H289259   6.277   3.092   6.340
29673WAT      O89260   9.873   2.793   3.319
29673WAT     H189261   9.957   2.760   3.277
29673WAT     H289262   9.894   2.866   3.385
29674WAT      O89263   4.554   4.793   5.914
29674WAT     H189264   4.513   4.727   5.977
29674WAT     H289265   4.615   4.745   5.851
29675WAT      O89266   7.301   8.643   1.645
29675WAT     H189267   7.306   8.543   1.653
29675WAT     H289268   7.249   8.667   1.562
29676WAT      O89269   5.562   1.554   0.617
29676WAT     H189270   5.586   1.620   0.689
29676WAT     H289271   5.547   1.464   0.657
29677WAT      O89272   8.173   7.875   8.786
29677WAT     H189273   8.133   7.911   8.870
29677WAT     H289274   8.133   7.922   8.707
29678WAT      O89275   4.575   5.488   2.663
29678WAT     H189276   4.620   5.577   2.653
29678WAT     H289277   4.635   5.426   2.714
29679WAT      O89278   8.781   6.382   9.420
29679WAT     H189279   8.731   6.468   9.407
29679WAT     H289280   8.724   6.305   9.390
29680WAT      O89281   0.378   7.638   4.976
29680WAT     H189282   0.376   7.538   4.979
29680WAT     H289283   0.452   7.667   4.915
29681WAT      O89284   6.695   8.569   7.088
29681WAT     H189285   6.708   8.499   7.018
29681WAT     H289286   6.729   8.534   7.176
29682WAT      O89287   5.907   3.983   9.030
29682WAT     H189288   5.999   3.977   9.070
29682WAT     H289289   5.849   4.038   9.090
29683WAT      O89290   9.048   5.870   2.174
29683WAT     H189291   8.949   5.875   2.188
29683WAT     H289292   9.071   5.916   2.088
29684WAT      O89293   6.845   3.996   9.582
29684WAT     H189294   6.925   4.033   9.536
29684WAT     H289295   6.823   4.053   9.661
29685WAT      O89296   7.325   2.189   8.265
29685WAT     H189297   7.247   2.235   8.307
29685WAT     H289298   7.410   2.224   8.305
29686WAT      O89299   1.243   0.217   2.649
29686WAT     H189300   1.296   0.218   2.565
29686WAT     H289301   1.149   0.248   2.630
29687WAT      O89302   5.762   5.219   3.718
29687WAT     H189303   5.848   5.170   3.704
29687WAT     H289304   5.782   5.313   3.746
29688WAT      O89305   7.905   8.253   6.215
29688WAT     H189306   7.936   8.338   6.257
29688WAT     H289307   7.890   8.185   6.286
29689WAT      O89308   0.311   0.798   7.205
29689WAT     H189309   0.351   0.733   7.271
29689WAT     H289310   0.378   0.818   7.133
29690WAT      O89311   4.846   6.224   6.513
29690WAT     H189312   4.815   6.281   6.589
29690WAT     H289313   4.945   6.214   6.517
29691WAT      O89314   6.562   3.377   8.502
29691WAT     H189315   6.525   3.385   8.595
29691WAT     H289316   6.606   3.464   8.476
29692WAT      O89317   8.165   8.292   5.568
29692WAT     H189318   8.202   8.220   5.627
29692WAT     H289319   8.161   8.260   5.474
29693WAT      O89320   4.516   6.945   8.600
29693WAT     H189321   4.428   6.965   8.643
29693WAT     H289322   4.527   6.846   8.590
29694WAT      O89323   7.616   7.686   9.736
29694WAT     H189324   7.672   7.644   9.665
29694WAT     H289325   7.580   7.616   9.797
29695WAT      O89326   6.868   5.022   3.731
29695WAT     H189327   6.955   5.013   3.683
29695WAT     H289328   6.840   4.933   3.766
29696WAT      O89329   6.208   5.774   5.643
29696WAT     H189330   6.173   5.826   5.566
29696WAT     H289331   6.287   5.719   5.614
29697WAT      O89332   2.894   4.171   9.806
29697WAT     H189333   2.927   4.118   9.884
29697WAT     H289334   2.796   4.188   9.816
29698WAT      O89335   7.417   8.570   4.404
29698WAT     H189336   7.471   8.548   4.486
29698WAT     H289337   7.420   8.668   4.388
29699WAT      O89338   1.062   8.456   0.097
29699WAT     H189339   1.039   8.412   0.184
29699WAT     H289340   1.069   8.555   0.111
29700WAT      O89341   3.926   5.577   3.244
29700WAT     H189342   3.963   5.575   3.337
29700WAT     H289343   3.945   5.667   3.203
29701WAT      O89344   9.487   5.487   4.933
29701WAT     H189345   9.583   5.462   4.921
29701WAT     H289346   9.468   5.571   4.881
29702WAT      O89347   0.984   8.726   0.160
29702WAT     H189348   0.994   8.805   0.100
29702WAT     H289349   0.888   8.704   0.170
29703WAT      O89350   7.509   5.945   6.251
29703WAT     H189351   7.409   5.934   6.247
29703WAT     H289352   7.547   5.877   6.313
29704WAT      O89353   4.908   9.586   4.472
29704WAT     H189354   4.876   9.676   4.443
29704WAT     H289355   4.951   9.540   4.394
29705WAT      O89356   7.166   8.434   7.635
29705WAT     H189357   7.222   8.480   7.566
29705WAT     H289358   7.089   8.494   7.660
29706WAT      O89359   1.262   5.852   2.645
29706WAT     H189360   1.166   5.866   2.623
29706WAT     H289361   1.305   5.796   2.573
29707WAT      O89362   7.051   1.979   4.411
29707WAT     H189363   7.043   1.943   4.504
29707WAT     H289364   7.031   1.905   4.346
29708WAT      O89365   7.490   4.216   5.402
29708WAT     H189366   7.587   4.228   5.382
29708WAT     H289367   7.444   4.304   5.397
29709WAT      O89368   9.088   1.560   5.617
29709WAT     H189369   9.132   1.635   5.666
29709WAT     H289370   9.154   1.486   5.604
29710WAT      O89371   4.774   7.995   7.693
29710WAT     H189372   4.723   7.934   7.754
29710WAT     H289373   4.766   7.963   7.599
29711WAT      O89374   1.348   7.634   9.749
29711WAT     H189375   1.408   7.702   9.792
29711WAT     H289376   1.300   7.676   9.672
29712WAT      O89377   0.377   1.162   7.883
29712WAT     H189378   0.417   1.220   7.954
29712WAT     H289379   0.411   1.068   7.894
29713WAT      O89380   9.146   5.945   9.611
29713WAT     H189381   9.062   5.990   9.579
29713WAT     H289382   9.130   5.847   9.620
29714WAT      O89383   8.823   9.632   8.355
29714WAT     H189384   8.813   9.688   8.437
29714WAT     H289385   8.772   9.546   8.366
29715WAT      O89386   3.495   3.170   7.673
29715WAT     H189387   3.424   3.239   7.659
29715WAT     H289388   3.479   3.093   7.611
29716WAT      O89389   8.502   9.478   8.563
29716WAT     H189390   8.449   9.397   8.584
29716WAT     H289391   8.582   9.483   8.623
29717WAT      O89392   1.999   5.046   7.973
29717WAT     H189393   2.056   4.988   7.915
29717WAT     H289394   2.050   5.071   8.055
29718WAT      O89395   3.771   0.993   5.793
29718WAT     H189396   3.794   0.912   5.846
29718WAT     H289397   3.835   1.067   5.815
29719WAT      O89398   5.533   1.240   9.824
29719WAT     H189399   5.586   1.234   9.909
29719WAT     H289400   5.593   1.223   9.746
29720WAT      O89401   3.115   8.230   7.109
29720WAT     H189402   3.038   8.257   7.167
29720WAT     H289403   3.081   8.180   7.029
29721WAT      O89404   7.844   7.338   7.251
29721WAT     H189405   7.805   7.258   7.204
29721WAT     H289406   7.906   7.386   7.189
29722WAT      O89407   4.484   7.280   7.851
29722WAT     H189408   4.582   7.288   7.831
29722WAT     H289409   4.446   7.370   7.869
29723WAT      O89410   0.202   2.632   6.649
29723WAT     H189411   0.234   2.721   6.681
29723WAT     H289412   0.111   2.613   6.686
29724WAT      O89413   6.285   0.654   7.008
29724WAT     H189414   6.327   0.580   7.061
29724WAT     H289415   6.294   0.740   7.058
29725WAT      O89416   0.867   9.442   3.700
29725WAT     H189417   0.943   9.505   3.712
29725WAT     H289418   0.824   9.423   3.788
29726WAT      O89419   1.607   2.210   1.075
29726WAT     H189420   1.703   2.187   1.090
29726WAT     H289421   1.552   2.172   1.150
29727WAT      O89422   5.232   3.608   6.040
29727WAT     H189423   5.144   3.627   5.995
29727WAT     H289424   5.217   3.603   6.139
29728WAT      O89425   7.926   5.029   3.909
29728WAT     H189426   7.870   5.090   3.965
29728WAT     H289427   7.967   4.958   3.967
29729WAT      O89428   2.189   5.546   3.552
29729WAT     H189429   2.231   5.636   3.550
29729WAT     H289430   2.191   5.506   3.460
29730WAT      O89431   8.492   7.171   6.241
29730WAT     H189432   8.521   7.076   6.249
29730WAT     H289433   8.510   7.204   6.149
29731WAT      O89434   5.602   3.852   5.542
29731WAT     H189435   5.667   3.861   5.617
29731WAT     H289436   5.597   3.939   5.492
29732WAT      O89437   8.485   8.264   8.989
29732WAT     H189438   8.460   8.361   8.985
29732WAT     H289439   8.546   8.249   9.066
29733WAT      O89440   6.971   0.773   8.401
29733WAT     H189441   6.942   0.847   8.340
29733WAT     H289442   6.928   0.784   8.490
29734WAT      O89443   0.459   9.470   9.176
29734WAT     H189444   0.518   9.539   9.133
29734WAT     H289445   0.468   9.477   9.275
29735WAT      O89446   1.626   4.595   5.391
29735WAT     H189447   1.530   4.595   5.362
29735WAT     H289448   1.644   4.676   5.447
29736WAT      O89449   3.703   1.315   4.311
29736WAT     H189450   3.773   1.243   4.311
29736WAT     H289451   3.633   1.294   4.379
29737WAT      O89452   8.656   1.842   4.290
29737WAT     H189453   8.669   1.938   4.311
29737WAT     H289454   8.710   1.817   4.210
29738WAT      O89455   1.138   5.067   5.597
29738WAT     H189456   1.189   5.134   5.652
29738WAT     H289457   1.108   5.109   5.512
29739WAT      O89458   9.345   1.607   7.223
29739WAT     H189459   9.294   1.679   7.177
29739WAT     H289460   9.361   1.532   7.159
29740WAT      O89461   5.238   6.232   9.699
29740WAT     H189462   5.331   6.207   9.727
29740WAT     H289463   5.184   6.149   9.685
29741WAT      O89464   7.865   8.777   9.688
29741WAT     H189465   7.955   8.811   9.716
29741WAT     H289466   7.861   8.773   9.588
29742WAT      O89467   6.637   6.866   2.425
29742WAT     H189468   6.704   6.936   2.448
29742WAT     H289469   6.554   6.880   2.479
29743WAT      O89470   7.567   8.174   3.441
29743WAT     H189471   7.472   8.144   3.445
29743WAT     H289472   7.628   8.097   3.460
29744WAT      O89473   6.225   8.064   6.927
29744WAT     H189474   6.128   8.079   6.947
29744WAT     H289475   6.234   8.011   6.843
29745WAT      O89476   3.358   5.324   7.756
29745WAT     H189477   3.324   5.250   7.813
29745WAT     H289478   3.394   5.287   7.670
29746WAT      O89479   6.716   8.380   1.820
29746WAT     H189480   6.704   8.389   1.919
29746WAT     H289481   6.635   8.336   1.781
29747WAT      O89482   1.801   9.478   6.531
29747WAT     H189483   1.824   9.381   6.518
29747WAT     H289484   1.702   9.489   6.528
29748WAT      O89485   8.918   4.986   0.929
29748WAT     H189486   8.976   5.048   0.981
29748WAT     H289487   8.941   4.891   0.952
29749WAT      O89488   5.328   5.326   3.696
29749WAT     H189489   5.404   5.294   3.639
29749WAT     H289490   5.350   5.312   3.792
29750WAT      O89491   0.195   9.837   1.019
29750WAT     H189492   0.292   9.819   1.031
29750WAT     H289493   0.169   9.917   1.073
29751WAT      O89494   5.507   2.416   7.240
29751WAT     H189495   5.469   2.360   7.313
29751WAT     H289496   5.522   2.509   7.274
29752WAT      O89497   2.055   3.260   4.662
29752WAT     H189498   2.082   3.346   4.705
29752WAT     H289499   2.129   3.227   4.604
29753WAT      O89500   7.058   3.180   2.819
29753WAT     H189501   7.000   3.248   2.864
29753WAT     H289502   7.008   3.140   2.742
29754WAT      O89503   2.145   6.801   6.341
29754WAT     H189504   2.242   6.821   6.344
29754WAT     H289505   2.113   6.775   6.433
29755WAT      O89506   4.995   6.048   0.548
29755WAT     H189507   4.941   6.027   0.467
29755WAT     H289508   4.935   6.050   0.628
29756WAT      O89509   7.503   3.819   6.124
29756WAT     H189510   7.484   3.870   6.040
29756WAT     H289511   7.529   3.883   6.196
29757WAT      O89512   1.909   2.992   2.184
29757WAT     H189513   1.977   2.996   2.111
29757WAT     H289514   1.909   2.900   2.224
29758WAT      O89515   3.687   4.629   9.660
29758WAT     H189516   3.633   4.550   9.632
29758WAT     H289517   3.760   4.646   9.593
29759WAT      O89518   6.608   5.423   1.644
29759WAT     H189519   6.650   5.332   1.640
29759WAT     H289520   6.673   5.492   1.612
29760WAT      O89521   1.583   3.853   4.670
29760WAT     H189522   1.520   3.930   4.658
29760WAT     H289523   1.546   3.792   4.741
29761WAT      O89524   4.231   3.929   8.800
29761WAT     H189525   4.144   3.881   8.802
29761WAT     H289526   4.291   3.892   8.871
29762WAT      O89527   9.420   8.001   2.510
29762WAT     H189528   9.517   7.987   2.531
29762WAT     H289529   9.367   7.923   2.543
29763WAT      O89530   4.227   9.435   9.103
29763WAT     H189531   4.310   9.381   9.094
29763WAT     H289532   4.251   9.529   9.128
29764WAT      O89533   4.350   5.237   0.654
29764WAT     H189534   4.441   5.229   0.693
29764WAT     H289535   4.316   5.145   0.632
29765WAT      O89536   5.080   2.493   0.040
29765WAT     H189537   5.153   2.546   0.082
29765WAT     H289538   5.041   2.544  -0.036
29766WAT      O89539   1.449   6.607   8.816
29766WAT     H189540   1.474   6.510   8.817
29766WAT     H289541   1.532   6.663   8.814
29767WAT      O89542   0.931   6.494   6.592
29767WAT     H189543   0.896   6.471   6.683
29767WAT     H289544   0.901   6.424   6.527
29768WAT      O89545   6.287   5.669   1.400
29768WAT     H189546   6.227   5.737   1.442
29768WAT     H289547   6.247   5.578   1.409
29769WAT      O89548   4.123   0.558   1.260
29769WAT     H189549   4.191   0.508   1.206
29769WAT     H289550   4.040   0.503   1.268
29770WAT      O89551   2.468   0.738   5.214
29770WAT     H189552   2.528   0.815   5.234
29770WAT     H289553   2.474   0.715   5.117
29771WAT      O89554   4.804   9.805   0.573
29771WAT     H189555   4.735   9.857   0.524
29771WAT     H289556   4.809   9.836   0.668
29772WAT      O89557   0.608   2.866   1.025
29772WAT     H189558   0.527   2.855   1.082
29772WAT     H289559   0.665   2.939   1.063
29773WAT      O89560   0.528   4.919   6.383
29773WAT     H189561   0.606   4.868   6.347
29773WAT     H289562   0.549   5.016   6.385
29774WAT      O89563   9.182   7.997   1.671
29774WAT     H189564   9.084   8.006   1.652
29774WAT     H289565   9.198   7.912   1.722
29775WAT      O89566   5.676   2.531   3.093
29775WAT     H189567   5.686   2.438   3.127
29775WAT     H289568   5.760   2.582   3.108
29776WAT      O89569   8.804   1.732   8.394
29776WAT     H189570   8.872   1.800   8.366
29776WAT     H289571   8.813   1.650   8.337
29777WAT      O89572   6.139   6.723   9.794
29777WAT     H189573   6.130   6.722   9.894
29777WAT     H289574   6.075   6.658   9.754
29778WAT      O89575   8.043   1.001   0.908
29778WAT     H189576   8.080   1.080   0.956
29778WAT     H289577   7.974   1.031   0.841
29779WAT      O89578   7.539   3.629   8.777
29779WAT     H189579   7.608   3.668   8.840
29779WAT     H289580   7.470   3.698   8.757
29780WAT      O89581   9.378   7.450   5.472
29780WAT     H189582   9.444   7.523   5.459
29780WAT     H289583   9.375   7.392   5.391
29781WAT      O89584   8.525   7.478   0.493
29781WAT     H189585   8.573   7.490   0.580
29781WAT     H289586   8.428   7.459   0.511
29782WAT      O89587   3.729   2.574   9.673
29782WAT     H189588   3.798   2.646   9.682
29782WAT     H289589   3.662   2.601   9.604
29783WAT      O89590   2.565   8.797   7.740
29783WAT     H189591   2.652   8.844   7.753
29783WAT     H289592   2.490   8.857   7.770
29784WAT      O89593   4.465   3.629   0.566
29784WAT     H189594   4.461   3.718   0.612
29784WAT     H289595   4.402   3.566   0.610
29785WAT      O89596   0.526   8.763   8.568
29785WAT     H189597   0.466   8.755   8.648
29785WAT     H289598   0.579   8.848   8.575
29786WAT      O89599   8.617   3.521   6.869
29786WAT     H189600   8.660   3.545   6.781
29786WAT     H289601   8.520   3.543   6.865
29787WAT      O89602   5.079   9.159   0.483
29787WAT     H189603   5.097   9.255   0.462
29787WAT     H289604   4.999   9.151   0.541
29788WAT      O89605   9.090   2.509   0.078
29788WAT     H189606   9.043   2.588   0.117
29788WAT     H289607   9.045   2.425   0.109
29789WAT      O89608   6.948   5.931   0.950
29789WAT     H189609   6.905   6.012   0.990
29789WAT     H289610   6.904   5.849   0.985
29790WAT      O89611   7.909   8.859   5.708
29790WAT     H189612   7.813   8.888   5.702
29790WAT     H289613   7.960   8.900   5.632
29791WAT      O89614   6.502   9.104   7.537
29791WAT     H189615   6.420   9.161   7.537
29791WAT     H289616   6.578   9.157   7.498
29792WAT      O89617   1.097   1.626   5.915
29792WAT     H189618   1.116   1.723   5.898
29792WAT     H289619   1.040   1.590   5.841
29793WAT      O89620   1.568   9.339   6.902
29793WAT     H189621   1.657   9.382   6.887
29793WAT     H289622   1.571   9.244   6.873
29794WAT      O89623   9.800   8.140   1.205
29794WAT     H189624   9.737   8.206   1.245
29794WAT     H289625   9.868   8.113   1.273
29795WAT      O89626   3.970   6.759   2.239
29795WAT     H189627   3.918   6.823   2.295
29795WAT     H289628   4.066   6.788   2.235
29796WAT      O89629   7.206   4.118   2.162
29796WAT     H189630   7.185   4.210   2.196
29796WAT     H289631   7.280   4.123   2.095
29797WAT      O89632   8.440   2.293   0.044
29797WAT     H189633   8.365   2.234   0.013
29797WAT     H289634   8.527   2.245   0.032
29798WAT      O89635   8.835   8.629   4.773
29798WAT     H189636   8.764   8.596   4.710
29798WAT     H289637   8.920   8.579   4.757
29799WAT      O89638   7.650   3.797   5.321
29799WAT     H189639   7.555   3.781   5.348
29799WAT     H289640   7.691   3.711   5.293
29800WAT      O89641   3.108   9.549   5.394
29800WAT     H189642   3.078   9.533   5.488
29800WAT     H289643   3.191   9.497   5.376
29801WAT      O89644   5.848   0.778   3.327
29801WAT     H189645   5.789   0.717   3.276
29801WAT     H289646   5.917   0.817   3.266
29802WAT      O89647   2.686   7.602   9.226
29802WAT     H189648   2.643   7.521   9.266
29802WAT     H289649   2.713   7.583   9.132
29803WAT      O89650   8.809   8.256   2.239
29803WAT     H189651   8.807   8.251   2.140
29803WAT     H289652   8.850   8.172   2.276
29804WAT      O89653   0.557   9.355   8.807
29804WAT     H189654   0.599   9.321   8.891
29804WAT     H289655   0.607   9.320   8.728
29805WAT      O89656   5.862   5.144   6.318
29805WAT     H189657   5.947   5.177   6.278
29805WAT     H289658   5.853   5.182   6.411
29806WAT      O89659   4.708   9.256   3.173
29806WAT     H189660   4.693   9.305   3.087
29806WAT     H289661   4.797   9.282   3.211
29807WAT      O89662   0.028   8.853   3.839
29807WAT     H189663   0.081   8.938   3.836
29807WAT     H289664   0.087   8.778   3.867
29808WAT      O89665   7.836   2.846   7.052
29808WAT     H189666   7.816   2.801   6.965
29808WAT     H289667   7.813   2.943   7.045
29809WAT      O89668   7.877   0.202   1.818
29809WAT     H189669   7.808   0.130   1.819
29809WAT     H289670   7.832   0.292   1.822
29810WAT      O89671   4.077   5.144   5.338
29810WAT     H189672   4.125   5.232   5.347
29810WAT     H289673   4.041   5.116   5.427
29811WAT      O89674   5.772   1.948   2.949
29811WAT     H189675   5.679   1.972   2.979
29811WAT     H289676   5.838   1.986   3.013
29812WAT      O89677   0.552   4.035   0.050
29812WAT     H189678   0.465   4.084   0.042
29812WAT     H289679   0.542   3.943   0.014
29813WAT      O89680   6.895   8.871   5.395
29813WAT     H189681   6.875   8.788   5.447
29813WAT     H289682   6.984   8.862   5.350
29814WAT      O89683   2.237   3.824   6.541
29814WAT     H189684   2.176   3.784   6.610
29814WAT     H289685   2.185   3.890   6.486
29815WAT      O89686   7.856   2.609   9.181
29815WAT     H189687   7.864   2.671   9.258
29815WAT     H289688   7.763   2.613   9.144
29816WAT      O89689   6.170   8.912   7.163
29816WAT     H189690   6.129   8.869   7.082
29816WAT     H289691   6.098   8.933   7.229
29817WAT      O89692   6.021   4.662   7.104
29817WAT     H189693   6.092   4.593   7.121
29817WAT     H289694   6.044   4.713   7.021
29818WAT      O89695   4.037   3.444   5.980
29818WAT     H189696   3.973   3.513   5.947
29818WAT     H289697   4.088   3.480   6.058
29819WAT      O89698   2.872   1.855   1.390
29819WAT     H189699   2.944   1.847   1.322
29819WAT     H289700   2.829   1.766   1.404
29820WAT      O89701   2.235   1.998   4.652
29820WAT     H189702   2.247   2.096   4.637
29820WAT     H289703   2.310   1.964   4.710
29821WAT      O89704   2.535   5.433   3.471
29821WAT     H189705   2.442   5.406   3.497
29821WAT     H289706   2.544   5.426   3.371
29822WAT      O89707   8.518   3.626   4.268
29822WAT     H189708   8.496   3.581   4.182
29822WAT     H289709   8.575   3.565   4.324
29823WAT      O89710   3.801   3.611   5.941
29823WAT     H189711   3.843   3.657   5.863
29823WAT     H289712   3.765   3.680   6.005
29824WAT      O89713   2.446   9.625   6.276
29824WAT     H189714   2.383   9.546   6.275
29824WAT     H289715   2.465   9.651   6.370
29825WAT      O89716   3.753   2.056   4.607
29825WAT     H189717   3.802   2.068   4.520
29825WAT     H289718   3.799   1.985   4.661
29826WAT      O89719   0.399   4.390   7.763
29826WAT     H189720   0.410   4.402   7.665
29826WAT     H289721   0.431   4.299   7.789
29827WAT      O89722   0.259   7.236   8.980
29827WAT     H189723   0.188   7.301   9.008
29827WAT     H289724   0.248   7.151   9.031
29828WAT      O89725   2.261   9.673   3.397
29828WAT     H189726   2.191   9.620   3.445
29828WAT     H289727   2.232   9.768   3.391
29829WAT      O89728   5.066   3.238   4.253
29829WAT     H189729   4.984   3.296   4.254
29829WAT     H289730   5.137   3.282   4.197
29830WAT      O89731   3.414   7.318   6.662
29830WAT     H189732   3.442   7.374   6.584
29830WAT     H289733   3.379   7.230   6.629
29831WAT      O89734   1.845   2.166   2.895
29831WAT     H189735   1.936   2.162   2.854
29831WAT     H289736   1.840   2.104   2.973
29832WAT      O89737   5.372   4.168   9.412
29832WAT     H189738   5.352   4.070   9.402
29832WAT     H289739   5.469   4.180   9.432
29833WAT      O89740   4.643   9.411   9.222
29833WAT     H189741   4.714   9.340   9.226
29833WAT     H289742   4.570   9.382   9.161
29834WAT      O89743   5.982   1.763   9.113
29834WAT     H189744   5.932   1.843   9.146
29834WAT     H289745   5.997   1.700   9.189
29835WAT      O89746   2.256   6.765   5.496
29835WAT     H189747   2.293   6.855   5.521
29835WAT     H289748   2.290   6.696   5.559
29836WAT      O89749   4.246   7.743   6.644
29836WAT     H189750   4.147   7.752   6.630
29836WAT     H289751   4.266   7.752   6.742
29837WAT      O89752   4.022   2.786   7.047
29837WAT     H189753   4.061   2.741   7.128
29837WAT     H289754   3.926   2.808   7.065
29838WAT      O89755   0.272   5.557   3.455
29838WAT     H189756   0.183   5.511   3.457
29838WAT     H289757   0.279   5.612   3.372
29839WAT      O89758   7.874   8.459   7.297
29839WAT     H189759   7.901   8.375   7.249
29839WAT     H289760   7.812   8.437   7.372
29840WAT      O89761   7.382   1.990   9.134
29840WAT     H189762   7.377   2.071   9.192
29840WAT     H289763   7.375   1.907   9.190
29841WAT      O89764   6.701   5.635   6.368
29841WAT     H189765   6.614   5.598   6.399
29841WAT     H289766   6.751   5.566   6.316
29842WAT      O89767   1.773   0.740   2.322
29842WAT     H189768   1.818   0.813   2.371
29842WAT     H289769   1.747   0.772   2.230
29843WAT      O89770   8.679   2.554   3.924
29843WAT     H189771   8.623   2.472   3.937
29843WAT     H289772   8.669   2.587   3.830
29844WAT      O89773   7.088   9.532   7.411
29844WAT     H189774   7.132   9.620   7.393
29844WAT     H289775   7.005   9.523   7.356
29845WAT      O89776   4.460   8.146   5.449
29845WAT     H189777   4.372   8.175   5.486
29845WAT     H289778   4.473   8.187   5.358
29846WAT      O89779   5.282   8.369   7.678
29846WAT     H189780   5.191   8.328   7.691
29846WAT     H289781   5.284   8.459   7.721
29847WAT      O89782   5.460   6.432   3.569
29847WAT     H189783   5.531   6.401   3.506
29847WAT     H289784   5.382   6.371   3.566
29848WAT      O89785   7.238   1.541   8.886
29848WAT     H189786   7.171   1.481   8.844
29848WAT     H289787   7.330   1.504   8.871
29849WAT      O89788   0.704   3.858   6.453
29849WAT     H189789   0.628   3.793   6.457
29849WAT     H289790   0.783   3.819   6.499
29850WAT      O89791   0.195   6.501   1.209
29850WAT     H189792   0.228   6.513   1.115
29850WAT     H289793   0.095   6.489   1.207
29851WAT      O89794   9.229   1.359   8.311
29851WAT     H189795   9.262   1.435   8.367
29851WAT     H289796   9.271   1.363   8.220
29852WAT      O89797   5.028   7.435   2.387
29852WAT     H189798   5.081   7.509   2.427
29852WAT     H289799   5.087   7.381   2.326
29853WAT      O89800   4.113   7.969  -0.002
29853WAT     H189801   4.159   7.906   0.060
29853WAT     H289802   4.048   8.025   0.049
29854WAT      O89803   5.725   4.221   6.048
29854WAT     H189804   5.801   4.276   6.083
29854WAT     H289805   5.735   4.210   5.949
29855WAT      O89806   3.543   1.653   1.572
29855WAT     H189807   3.536   1.751   1.555
29855WAT     H289808   3.466   1.624   1.629
29856WAT      O89809   7.496   1.712   9.868
29856WAT     H189810   7.419   1.746   9.922
29856WAT     H289811   7.526   1.624   9.904
29857WAT      O89812   0.800   8.488   2.265
29857WAT     H189813   0.708   8.508   2.300
29857WAT     H289814   0.862   8.471   2.342
29858WAT      O89815   2.872   7.127   4.199
29858WAT     H189816   2.829   7.097   4.284
29858WAT     H289817   2.958   7.173   4.219
29859WAT      O89818   2.607   0.936   1.333
29859WAT     H189819   2.575   0.997   1.407
29859WAT     H289820   2.643   0.992   1.258
29860WAT      O89821   4.926   2.846   8.506
29860WAT     H189822   4.946   2.915   8.577
29860WAT     H289823   4.841   2.870   8.459
29861WAT      O89824   2.682   8.718   4.227
29861WAT     H189825   2.663   8.744   4.322
29861WAT     H289826   2.748   8.643   4.226
29862WAT      O89827   8.931   4.523   5.786
29862WAT     H189828   8.994   4.469   5.842
29862WAT     H289829   8.837   4.493   5.801
29863WAT      O89830   1.399   7.647   6.773
29863WAT     H189831   1.315   7.597   6.753
29863WAT     H289832   1.463   7.636   6.697
29864WAT      O89833   0.290   4.468   3.780
29864WAT     H189834   0.258   4.404   3.710
29864WAT     H289835   0.327   4.418   3.858
29865WAT      O89836   3.159   8.165   7.908
29865WAT     H189837   3.190   8.106   7.982
29865WAT     H289838   3.184   8.125   7.820
29866WAT      O89839   0.327   5.842   9.520
29866WAT     H189840   0.272   5.845   9.436
29866WAT     H289841   0.334   5.748   9.552
29867WAT      O89842   5.346   4.698   4.238
29867WAT     H189843   5.326   4.796   4.239
29867WAT     H289844   5.408   4.675   4.313
29868WAT      O89845   4.830   0.862   4.378
29868WAT     H189846   4.926   0.883   4.397
29868WAT     H289847   4.825   0.794   4.305
29869WAT      O89848   5.092   0.347   6.571
29869WAT     H189849   5.029   0.291   6.516
29869WAT     H289850   5.071   0.334   6.668
29870WAT      O89851   5.660   7.496   7.692
29870WAT     H189852   5.666   7.585   7.737
29870WAT     H289853   5.752   7.465   7.669
29871WAT      O89854   4.342   6.352   5.691
29871WAT     H189855   4.295   6.296   5.758
29871WAT     H289856   4.441   6.347   5.707
29872WAT      O89857   3.348   3.073   6.084
29872WAT     H189858   3.386   3.162   6.111
29872WAT     H289859   3.248   3.076   6.088
29873WAT      O89860   0.473   6.587   4.418
29873WAT     H189861   0.528   6.509   4.389
29873WAT     H289862   0.406   6.609   4.347
29874WAT      O89863   5.280   3.790   6.957
29874WAT     H189864   5.285   3.871   6.898
29874WAT     H289865   5.344   3.801   7.033
29875WAT      O89866   6.089   6.791   2.921
29875WAT     H189867   6.177   6.836   2.905
29875WAT     H289868   6.035   6.795   2.837
29876WAT      O89869   5.673   6.518   7.005
29876WAT     H189870   5.710   6.590   7.063
29876WAT     H289871   5.629   6.448   7.062
29877WAT      O89872   4.881   3.174   6.682
29877WAT     H189873   4.903   3.077   6.698
29877WAT     H289874   4.963   3.222   6.651
29878WAT      O89875   1.584   5.825   7.925
29878WAT     H189876   1.651   5.888   7.964
29878WAT     H289877   1.615   5.796   7.835
29879WAT      O89878   9.513   9.568   7.064
29879WAT     H189879   9.528   9.553   7.161
29879WAT     H289880   9.589   9.530   7.011
29880WAT      O89881   6.149   0.860   5.279
29880WAT     H189882   6.209   0.810   5.216
29880WAT     H289883   6.147   0.956   5.254
29881WAT      O89884   5.017   6.359   1.508
29881WAT     H189885   4.980   6.424   1.442
29881WAT     H289886   4.955   6.280   1.515
29882WAT      O89887   8.355   7.609   2.499
29882WAT     H189888   8.302   7.525   2.487
29882WAT     H289889   8.320   7.660   2.578
29883WAT      O89890   2.121   4.884   2.276
29883WAT     H189891   2.037   4.917   2.232
29883WAT     H289892   2.101   4.801   2.327
29884WAT      O89893   0.830   3.993   4.592
29884WAT     H189894   0.769   4.063   4.555
29884WAT     H289895   0.922   4.030   4.600
29885WAT      O89896   4.156   4.003   5.241
29885WAT     H189897   4.124   3.999   5.335
29885WAT     H289898   4.255   3.985   5.238
29886WAT      O89899   7.260   4.175   4.755
29886WAT     H189900   7.200   4.126   4.818
29886WAT     H289901   7.245   4.142   4.662
29887WAT      O89902   3.958   5.695   2.221
29887WAT     H189903   4.006   5.718   2.305
29887WAT     H289904   3.859   5.706   2.235
29888WAT      O89905   0.296   1.006   5.995
29888WAT     H189906   0.210   1.050   5.973
29888WAT     H289907   0.336   0.967   5.912
29889WAT      O89908   3.244   3.708   7.552
29889WAT     H189909   3.166   3.727   7.611
29889WAT     H289910   3.214   3.656   7.472
29890WAT      O89911   1.786   0.812   4.871
29890WAT     H189912   1.827   0.901   4.895
29890WAT     H289913   1.859   0.747   4.848
29891WAT      O89914   6.217   8.731   3.578
29891WAT     H189915   6.214   8.822   3.620
29891WAT     H289916   6.255   8.738   3.486
29892WAT      O89917   0.028   0.866   5.448
29892WAT     H189918  -0.060   0.911   5.436
29892WAT     H289919   0.074   0.857   5.360
29893WAT      O89920   3.832   1.215   4.612
29893WAT     H189921   3.744   1.235   4.568
29893WAT     H289922   3.821   1.212   4.711
29894WAT      O89923   6.365   7.890   4.599
29894WAT     H189924   6.411   7.943   4.527
29894WAT     H289925   6.428   7.875   4.675
29895WAT      O89926   1.434   8.173   7.830
29895WAT     H189927   1.445   8.269   7.859
29895WAT     H289928   1.444   8.167   7.731
29896WAT      O89929   1.028   2.540   6.406
29896WAT     H189930   1.049   2.537   6.504
29896WAT     H289931   1.077   2.467   6.359
29897WAT      O89932   3.027   8.508   7.640
29897WAT     H189933   2.993   8.588   7.690
29897WAT     H289934   2.976   8.427   7.668
29898WAT      O89935   3.535   9.348   4.572
29898WAT     H189936   3.623   9.378   4.609
29898WAT     H289937   3.551   9.273   4.508
29899WAT      O89938   7.627   8.577   3.594
29899WAT     H189939   7.698   8.530   3.648
29899WAT     H289940   7.638   8.552   3.497
29900WAT      O89941   0.676   4.281   4.928
29900WAT     H189942   0.775   4.273   4.939
29900WAT     H289943   0.655   4.333   4.845
29901WAT      O89944   3.376   0.450   6.380
29901WAT     H189945   3.357   0.547   6.393
29901WAT     H289946   3.291   0.398   6.386
29902WAT      O89947   7.875   7.471   8.814
29902WAT     H189948   7.821   7.486   8.731
29902WAT     H289949   7.960   7.524   8.808
29903WAT      O89950   4.978   9.494   0.223
29903WAT     H189951   4.972   9.591   0.201
29903WAT     H289952   5.037   9.482   0.303
29904WAT      O89953   7.273   2.354   2.408
29904WAT     H189954   7.355   2.380   2.459
29904WAT     H289955   7.213   2.300   2.468
29905WAT      O89956   7.874   6.076   9.157
29905WAT     H189957   7.947   6.079   9.226
29905WAT     H289958   7.867   6.166   9.112
29906WAT      O89959   2.089   0.031   8.532
29906WAT     H189960   2.156   0.064   8.598
29906WAT     H289961   2.026   0.105   8.507
29907WAT      O89962   0.171   9.688   9.306
29907WAT     H189963   0.174   9.609   9.244
29907WAT     H289964   0.262   9.702   9.345
29908WAT      O89965   2.960   5.133   5.450
29908WAT     H189966   3.008   5.050   5.421
29908WAT     H289967   2.954   5.136   5.549
29909WAT      O89968   8.739   7.734   5.667
29909WAT     H189969   8.697   7.692   5.587
29909WAT     H289970   8.769   7.662   5.730
29910WAT      O89971   8.563   2.101   4.865
29910WAT     H189972   8.634   2.046   4.908
29910WAT     H289973   8.592   2.197   4.860
29911WAT      O89974   0.348   3.343   1.882
29911WAT     H189975   0.409   3.350   1.961
29911WAT     H289976   0.388   3.391   1.804
29912WAT      O89977   2.678   9.702   9.126
29912WAT     H189978   2.607   9.771   9.137
29912WAT     H289979   2.759   9.744   9.084
29913WAT      O89980   7.191   6.236   0.826
29913WAT     H189981   7.286   6.266   0.818
29913WAT     H289982   7.182   6.175   0.905
29914WAT      O89983   6.246   3.296   8.876
29914WAT     H189984   6.186   3.376   8.884
29914WAT     H289985   6.334   3.324   8.837
29915WAT      O89986   9.255   2.309   1.012
29915WAT     H189987   9.157   2.291   1.016
29915WAT     H289988   9.298   2.277   1.097
29916WAT      O89989   4.322   2.207   6.014
29916WAT     H189990   4.313   2.168   6.106
29916WAT     H289991   4.403   2.265   6.010
29917WAT      O89992   3.879   4.985   9.691
29917WAT     H189993   3.916   5.071   9.724
29917WAT     H289994   3.926   4.909   9.736
29918WAT      O89995   6.880   3.520   4.401
29918WAT     H189996   6.895   3.548   4.496
29918WAT     H289997   6.887   3.600   4.341
29919WAT      O89998   7.015   9.613   0.757
29919WAT     H189999   7.028   9.710   0.735
29919WAT     H290000   7.010   9.603   0.856
29920WAT      O90001   0.709   4.618   8.483
29920WAT     H190002   0.737   4.713   8.473
29920WAT     H290003   0.628   4.613   8.541
29921WAT      O90004   4.045   4.653   7.539
29921WAT     H190005   4.142   4.636   7.555
29921WAT     H290006   3.994   4.567   7.550
29922WAT      O90007   6.112   0.137   4.277
29922WAT     H190008   6.123   0.165   4.373
29922WAT     H290009   6.049   0.060   4.273
29923WAT      O90010   2.646   1.774   8.057
29923WAT     H190011   2.639   1.689   8.004
29923WAT     H290012   2.604   1.761   8.146
29924WAT      O90013   8.112   2.280   7.173
29924WAT     H190014   8.107   2.355   7.106
29924WAT     H290015   8.141   2.196   7.127
29925WAT      O90016   4.654   6.051   1.382
29925WAT     H190017   4.634   5.986   1.455
29925WAT     H290018   4.640   6.144   1.415
29926WAT      O90019   7.954   3.757   2.967
29926WAT     H190020   7.981   3.847   3.003
29926WAT     H290021   7.976   3.752   2.870
29927WAT      O90022   6.650   8.564   9.148
29927WAT     H190023   6.554   8.556   9.174
29927WAT     H290024   6.658   8.626   9.070
29928WAT      O90025   7.728   5.101   0.072
29928WAT     H190026   7.732   5.001   0.078
29928WAT     H290027   7.657   5.127   0.006
29929WAT      O90028   8.795   5.164   4.947
29929WAT     H190029   8.851   5.213   5.015
29929WAT     H290030   8.702   5.155   4.981
29930WAT      O90031   1.954   1.119   2.370
29930WAT     H190032   1.986   1.069   2.290
29930WAT     H290033   1.854   1.116   2.374
29931WAT      O90034   9.818   5.706   1.008
29931WAT     H190035   9.746   5.671   0.948
29931WAT     H290036   9.791   5.795   1.044
29932WAT      O90037   1.678   6.021   4.163
29932WAT     H190038   1.580   6.006   4.176
29932WAT     H290039   1.730   5.952   4.214
29933WAT      O90040   8.205   2.217   7.950
29933WAT     H190041   8.190   2.138   7.890
29933WAT     H290042   8.204   2.301   7.895
29934WAT      O90043   8.340   3.774   9.217
29934WAT     H190044   8.341   3.826   9.302
29934WAT     H290045   8.247   3.745   9.197
29935WAT      O90046   7.920   4.248   2.245
29935WAT     H190047   7.971   4.264   2.330
29935WAT     H290048   7.947   4.159   2.207
29936WAT      O90049   8.204   6.650   2.084
29936WAT     H190050   8.205   6.642   2.183
29936WAT     H290051   8.296   6.674   2.051
29937WAT      O90052   5.609   6.626   7.606
29937WAT     H190053   5.643   6.710   7.565
29937WAT     H290054   5.675   6.552   7.590
29938WAT      O90055   7.949   4.269   6.623
29938WAT     H190056   7.968   4.343   6.557
29938WAT     H290057   8.008   4.191   6.602
29939WAT      O90058   0.197   0.058   1.623
29939WAT     H190059   0.276   0.032   1.679
29939WAT     H290060   0.172   0.152   1.642
29940WAT      O90061   2.451   1.778   6.158
29940WAT     H190062   2.463   1.703   6.222
29940WAT     H290063   2.364   1.769   6.110
29941WAT      O90064   3.564   5.346   0.771
29941WAT     H190065   3.476   5.316   0.735
29941WAT     H290066   3.629   5.270   0.771
29942WAT      O90067   9.292   8.375   8.224
29942WAT     H190068   9.378   8.426   8.218
29942WAT     H290069   9.223   8.431   8.269
29943WAT      O90070   1.061   1.695   9.128
29943WAT     H190071   1.080   1.624   9.059
29943WAT     H290072   1.055   1.784   9.083
29944WAT      O90073   9.623   4.687   2.341
29944WAT     H190074   9.654   4.761   2.401
29944WAT     H290075   9.574   4.619   2.396
29945WAT      O90076   5.108   6.197   0.790
29945WAT     H190077   5.185   6.259   0.807
29945WAT     H290078   5.107   6.172   0.693
29946WAT      O90079   3.887   4.172   1.000
29946WAT     H190080   3.906   4.169   0.902
29946WAT     H290081   3.797   4.133   1.018
29947WAT      O90082   2.276   4.314   1.247
29947WAT     H190083   2.237   4.345   1.161
29947WAT     H290084   2.257   4.382   1.318
29948WAT      O90085   4.838   5.233   8.623
29948WAT     H190086   4.838   5.230   8.723
29948WAT     H290087   4.825   5.141   8.587
29949WAT      O90088   9.063   5.963   5.368
29949WAT     H190089   8.979   5.958   5.314
29949WAT     H290090   9.141   5.938   5.311
29950WAT      O90091   8.600   7.529   6.180
29950WAT     H190092   8.593   7.480   6.267
29950WAT     H290093   8.688   7.577   6.176
29951WAT      O90094   6.357   2.365   4.175
29951WAT     H190095   6.289   2.358   4.102
29951WAT     H290096   6.317   2.333   4.261
29952WAT      O90097   2.389   4.055   0.091
29952WAT     H190098   2.381   3.971   0.144
29952WAT     H290099   2.313   4.116   0.112
29953WAT      O90100   6.579   7.555   1.952
29953WAT     H190101   6.539   7.645   1.966
29953WAT     H290102   6.629   7.528   2.034
29954WAT      O90103   3.302   2.649   4.376
29954WAT     H190104   3.327   2.736   4.418
29954WAT     H290105   3.239   2.665   4.300
29955WAT      O90106   4.128   7.833   1.156
29955WAT     H190107   4.151   7.890   1.235
29955WAT     H290108   4.030   7.815   1.155
29956WAT      O90109   2.720   2.530   9.345
29956WAT     H190110   2.678   2.501   9.259
29956WAT     H290111   2.669   2.607   9.383
29957WAT      O90112   7.989   7.354   7.997
29957WAT     H190113   8.080   7.319   7.976
29957WAT     H290114   7.987   7.385   8.093
29958WAT      O90115   3.994   6.858   5.711
29958WAT     H190116   3.978   6.813   5.799
29958WAT     H290117   3.917   6.840   5.650
29959WAT      O90118   8.337   9.140   8.228
29959WAT     H190119   8.257   9.199   8.212
29959WAT     H290120   8.370   9.106   8.140
29960WAT      O90121   6.263   2.743   0.170
29960WAT     H190122   6.212   2.698   0.097
29960WAT     H290123   6.325   2.677   0.212
29961WAT      O90124   6.458   7.035   9.863
29961WAT     H190125   6.527   6.965   9.876
29961WAT     H290126   6.500   7.126   9.870
29962WAT      O90127   7.564   9.634   0.928
29962WAT     H190128   7.634   9.588   0.873
29962WAT     H290129   7.525   9.710   0.876
29963WAT      O90130   7.521   0.837   6.492
29963WAT     H190131   7.570   0.852   6.406
29963WAT     H290132   7.503   0.740   6.504
29964WAT      O90133   1.115   1.805   5.227
29964WAT     H190134   1.045   1.733   5.232
29964WAT     H290135   1.099   1.861   5.146
29965WAT      O90136   4.587   8.488   0.425
29965WAT     H190137   4.655   8.557   0.451
29965WAT     H290138   4.508   8.494   0.486
29966WAT      O90139   9.146   2.711   4.297
29966WAT     H190140   9.073   2.740   4.235
29966WAT     H290141   9.223   2.676   4.244
29967WAT      O90142   8.534   9.602   5.765
29967WAT     H190143   8.563   9.597   5.669
29967WAT     H290144   8.499   9.513   5.793
29968WAT      O90145   0.369   2.966   0.786
29968WAT     H190146   0.348   3.023   0.706
29968WAT     H290147   0.456   2.918   0.771
29969WAT      O90148   3.941   3.908   8.830
29969WAT     H190149   3.885   3.881   8.751
29969WAT     H290150   3.931   4.006   8.845
29970WAT      O90151   6.954   6.701   2.194
29970WAT     H190152   6.956   6.780   2.255
29970WAT     H290153   6.913   6.727   2.107
29971WAT      O90154   7.154   9.656   4.672
29971WAT     H190155   7.228   9.599   4.637
29971WAT     H290156   7.069   9.634   4.624
29972WAT      O90157   5.387   8.616   5.858
29972WAT     H190158   5.316   8.551   5.883
29972WAT     H290159   5.416   8.600   5.764
29973WAT      O90160   5.662   8.556   4.754
29973WAT     H190161   5.565   8.553   4.731
29973WAT     H290162   5.715   8.565   4.669
29974WAT      O90163   0.261   4.954   9.585
29974WAT     H190164   0.205   5.023   9.631
29974WAT     H290165   0.257   4.869   9.636
29975WAT      O90166   8.827   5.945   5.259
29975WAT     H190167   8.800   6.040   5.241
29975WAT     H290168   8.787   5.885   5.190
29976WAT      O90169   6.931   7.451   4.346
29976WAT     H190170   6.842   7.494   4.328
29976WAT     H290171   6.963   7.406   4.263
29977WAT      O90172   5.698   4.887   0.209
29977WAT     H190173   5.637   4.966   0.200
29977WAT     H290174   5.644   4.803   0.216
29978WAT      O90175   3.077   2.889   2.590
29978WAT     H190176   3.026   2.878   2.675
29978WAT     H290177   3.121   2.803   2.566
29979WAT      O90178   1.199   4.956   8.173
29979WAT     H190179   1.239   5.009   8.248
29979WAT     H290180   1.216   5.003   8.087
29980WAT      O90181   7.988   4.858   4.184
29980WAT     H190182   8.088   4.866   4.183
29980WAT     H290183   7.959   4.821   4.272
29981WAT      O90184   6.028   3.264   4.015
29981WAT     H190185   5.962   3.269   4.090
29981WAT     H290186   5.981   3.273   3.927
29982WAT      O90187   3.047   6.456   4.603
29982WAT     H190188   3.081   6.482   4.512
29982WAT     H290189   3.071   6.527   4.669
29983WAT      O90190   4.018   2.055   4.213
29983WAT     H190191   4.083   1.996   4.262
29983WAT     H290192   3.981   2.122   4.276
29984WAT      O90193   2.242   3.122   1.981
29984WAT     H190194   2.248   3.106   1.882
29984WAT     H290195   2.146   3.135   2.006
29985WAT      O90196   6.924   3.078   1.614
29985WAT     H190197   6.925   3.178   1.626
29985WAT     H290198   6.839   3.041   1.653
29986WAT      O90199   6.284   6.015   7.639
29986WAT     H190200   6.313   5.933   7.591
29986WAT     H290201   6.350   6.038   7.710
29987WAT      O90202   7.866   3.626   6.762
29987WAT     H190203   7.822   3.608   6.850
29987WAT     H290204   7.872   3.540   6.711
29988WAT      O90205   2.220   3.928   5.690
29988WAT     H190206   2.211   4.027   5.676
29988WAT     H290207   2.214   3.881   5.602
29989WAT      O90208   2.372   2.045   1.508
29989WAT     H190209   2.340   2.037   1.602
29989WAT     H290210   2.346   2.135   1.471
29990WAT      O90211   2.929   5.908   6.760
29990WAT     H190212   3.018   5.875   6.730
29990WAT     H290213   2.883   5.836   6.812
29991WAT      O90214   5.310   2.639   0.151
29991WAT     H190215   5.350   2.565   0.206
29991WAT     H290216   5.372   2.663   0.077
29992WAT      O90217   4.881   2.669   6.067
29992WAT     H190218   4.830   2.683   6.151
29992WAT     H290219   4.950   2.598   6.082
29993WAT      O90220   0.054   0.088   9.269
29993WAT     H190221   0.108   0.005   9.285
29993WAT     H290222   0.097   0.165   9.317
29994WAT      O90223   7.998   1.740   6.970
29994WAT     H190224   7.950   1.823   6.998
29994WAT     H290225   8.095   1.761   6.955
29995WAT      O90226   2.614   0.067   2.209
29995WAT     H190227   2.650   0.160   2.206
29995WAT     H290228   2.570   0.045   2.122
29996WAT      O90229   9.530   6.387   6.649
29996WAT     H190230   9.507   6.408   6.555
29996WAT     H290231   9.461   6.425   6.710
29997WAT      O90232   3.771   6.266   8.200
29997WAT     H190233   3.800   6.245   8.294
29997WAT     H290234   3.783   6.186   8.142
29998WAT      O90235   7.724   2.266   5.640
29998WAT     H190236   7.724   2.185   5.581
29998WAT     H290237   7.814   2.277   5.682
29999WAT      O90238   6.382   7.318   5.989
29999WAT     H190239   6.452   7.252   5.960
29999WAT     H290240   6.427   7.400   6.025
30000WAT      O90241   5.882   4.084   7.213
30000WAT     H190242   5.894   4.170   7.163
30000WAT     H290243   5.971   4.048   7.239
30001WAT      O90244   5.346   3.376   2.124
30001WAT     H190245   5.369   3.472   2.108
30001WAT     H290246   5.350   3.357   2.222
30002WAT      O90247   6.179   3.767   0.735
30002WAT     H190248   6.121   3.687   0.716
30002WAT     H290249   6.250   3.741   0.800
30003WAT      O90250   9.022   3.263   3.188
30003WAT     H190251   9.114   3.293   3.212
30003WAT     H290252   8.956   3.332   3.218
30004WAT      O90253   5.513   6.061   0.876
30004WAT     H190254   5.579   6.102   0.814
30004WAT     H290255   5.480   6.131   0.940
30005WAT      O90256   0.145   3.484   3.539
30005WAT     H190257   0.092   3.556   3.582
30005WAT     H290258   0.106   3.462   3.449
30006WAT      O90259   4.044   5.590   1.871
30006WAT     H190260   3.987   5.630   1.800
30006WAT     H290261   3.988   5.532   1.930
30007WAT      O90262   6.222   9.370   7.045
30007WAT     H190263   6.172   9.420   6.974
30007WAT     H290264   6.305   9.330   7.006
30008WAT      O90265   1.797   7.111   8.071
30008WAT     H190266   1.729   7.173   8.034
30008WAT     H290267   1.869   7.164   8.116
30009WAT      O90268   1.198   2.152   5.157
30009WAT     H190269   1.143   2.094   5.098
30009WAT     H290270   1.287   2.169   5.114
30010WAT      O90271   4.319   4.007   3.101
30010WAT     H190272   4.343   3.979   3.008
30010WAT     H290273   4.230   3.969   3.125
30011WAT      O90274   2.372   3.815   2.926
30011WAT     H190275   2.457   3.771   2.897
30011WAT     H290276   2.390   3.873   3.005
30012WAT      O90277   7.421   4.465   4.052
30012WAT     H190278   7.502   4.487   4.106
30012WAT     H290279   7.431   4.504   3.960
30013WAT      O90280   4.976   9.282   7.035
30013WAT     H190281   5.029   9.201   7.008
30013WAT     H290282   5.029   9.336   7.100
30014WAT      O90283   4.960   0.848   7.178
30014WAT     H190284   5.011   0.933   7.181
30014WAT     H290285   4.875   0.858   7.230
30015WAT      O90286   3.875   5.155   1.964
30015WAT     H190287   3.875   5.146   2.064
30015WAT     H290288   3.937   5.087   1.925
30016WAT      O90289   3.936   9.234   0.312
30016WAT     H190290   3.990   9.206   0.233
30016WAT     H290291   3.996   9.240   0.392
30017WAT      O90292   3.259   5.494   5.132
30017WAT     H190293   3.258   5.403   5.175
30017WAT     H290294   3.195   5.554   5.180
30018WAT      O90295   2.389   1.312   0.571
30018WAT     H190296   2.336   1.396   0.554
30018WAT     H290297   2.478   1.319   0.526
30019WAT      O90298   3.061   7.499   6.963
30019WAT     H190299   3.046   7.530   7.057
30019WAT     H290300   2.993   7.430   6.939
30020WAT      O90301   5.591   9.751   2.892
30020WAT     H190302   5.531   9.782   2.965
30020WAT     H290303   5.686   9.768   2.917
30021WAT      O90304   1.790   2.658   5.641
30021WAT     H190305   1.861   2.649   5.710
30021WAT     H290306   1.771   2.754   5.624
30022WAT      O90307   7.915   7.074   7.864
30022WAT     H190308   7.953   7.153   7.815
30022WAT     H290309   7.916   7.092   7.962
30023WAT      O90310   2.181   4.781   0.866
30023WAT     H190311   2.084   4.790   0.840
30023WAT     H290312   2.187   4.765   0.964
30024WAT      O90313   2.036   7.153   9.804
30024WAT     H190314   2.108   7.223   9.804
30024WAT     H290315   2.001   7.142   9.711
30025WAT      O90316   0.065   5.436   7.779
30025WAT     H190317   0.029   5.395   7.864
30025WAT     H290318   0.033   5.383   7.701
30026WAT      O90319   3.313   5.661   3.403
30026WAT     H190320   3.377   5.737   3.415
30026WAT     H290321   3.331   5.591   3.472
30027WAT      O90322   6.342   6.241   5.434
30027WAT     H190323   6.424   6.213   5.485
30027WAT     H290324   6.368   6.308   5.364
30028WAT      O90325   6.541   8.679   1.716
30028WAT     H190326   6.553   8.688   1.815
30028WAT     H290327   6.514   8.585   1.694
30029WAT      O90328   8.627   1.213   0.572
30029WAT     H190329   8.566   1.220   0.651
30029WAT     H290330   8.623   1.298   0.520
30030WAT      O90331   7.036   3.534   6.128
30030WAT     H190332   7.103   3.487   6.186
30030WAT     H290333   6.983   3.467   6.077
30031WAT      O90334   5.975   3.891   9.789
30031WAT     H190335   5.989   3.829   9.867
30031WAT     H290336   5.986   3.839   9.704
30032WAT      O90337   3.250   0.990   3.403
30032WAT     H190338   3.173   0.932   3.428
30032WAT     H290339   3.223   1.086   3.407
30033WAT      O90340   8.768   5.971   1.169
30033WAT     H190341   8.851   6.004   1.215
30033WAT     H290342   8.771   5.872   1.162
30034WAT      O90343   7.733   5.926   9.365
30034WAT     H190344   7.769   5.977   9.287
30034WAT     H290345   7.809   5.899   9.425
30035WAT      O90346   1.645   5.145   7.499
30035WAT     H190347   1.580   5.158   7.424
30035WAT     H290348   1.722   5.207   7.487
30036WAT      O90349   3.931   5.080   5.019
30036WAT     H190350   3.947   5.146   4.945
30036WAT     H290351   4.017   5.035   5.042
30037WAT      O90352   6.385   4.593   3.876
30037WAT     H190353   6.448   4.516   3.883
30037WAT     H290354   6.344   4.612   3.965
30038WAT      O90355   4.475   2.645   7.031
30038WAT     H190356   4.516   2.631   7.121
30038WAT     H290357   4.393   2.589   7.023
30039WAT      O90358   5.936   3.577   2.323
30039WAT     H190359   6.000   3.505   2.352
30039WAT     H290360   5.868   3.537   2.261
30040WAT      O90361   4.275   7.031   8.667
30040WAT     H190362   4.257   7.043   8.569
30040WAT     H290363   4.266   7.119   8.714
30041WAT      O90364   6.227   2.996   6.207
30041WAT     H190365   6.153   2.957   6.261
30041WAT     H290366   6.201   2.997   6.110
30042WAT      O90367   3.879   6.950   6.804
30042WAT     H190368   3.971   6.987   6.820
30042WAT     H290369   3.815   6.991   6.869
30043WAT      O90370   5.128   4.682   1.567
30043WAT     H190371   5.170   4.596   1.595
30043WAT     H290372   5.196   4.740   1.522
30044WAT      O90373   4.512   1.585   5.579
30044WAT     H190374   4.557   1.496   5.571
30044WAT     H290375   4.576   1.651   5.618
30045WAT      O90376   7.154   5.785   1.582
30045WAT     H190377   7.179   5.772   1.486
30045WAT     H290378   7.059   5.815   1.588
30046WAT      O90379   1.893   0.591   3.632
30046WAT     H190380   1.873   0.582   3.730
30046WAT     H290381   1.813   0.627   3.585
30047WAT      O90382   1.234   3.570   2.522
30047WAT     H190383   1.182   3.565   2.607
30047WAT     H290384   1.304   3.499   2.521
30048WAT      O90385   5.638   4.599   9.119
30048WAT     H190386   5.734   4.573   9.126
30048WAT     H290387   5.625   4.657   9.039
30049WAT      O90388   1.282   9.085   4.330
30049WAT     H190389   1.254   9.024   4.255
30049WAT     H290390   1.203   9.140   4.359
30050WAT      O90391   4.402   5.221   8.324
30050WAT     H190392   4.403   5.164   8.406
30050WAT     H290393   4.376   5.165   8.245
30051WAT      O90394   9.112   3.412   7.118
30051WAT     H190395   9.106   3.478   7.043
30051WAT     H290396   9.040   3.432   7.185
30052WAT      O90397   3.005   8.931   0.360
30052WAT     H190398   3.015   8.849   0.304
30052WAT     H290399   3.091   8.950   0.407
30053WAT      O90400   0.049   8.889   4.233
30053WAT     H190401   0.135   8.914   4.189
30053WAT     H290402   0.010   8.808   4.187
30054WAT      O90403   7.196   3.113   8.614
30054WAT     H190404   7.202   3.086   8.710
30054WAT     H290405   7.276   3.079   8.565
30055WAT      O90406   6.371   7.931   3.163
30055WAT     H190407   6.335   8.021   3.187
30055WAT     H290408   6.388   7.928   3.064
30056WAT      O90409   9.049   5.149   1.095
30056WAT     H190410   9.022   5.206   1.172
30056WAT     H290411   9.148   5.134   1.098
30057WAT      O90412   5.625   2.186   0.751
30057WAT     H190413   5.645   2.216   0.844
30057WAT     H290414   5.533   2.146   0.748
30058WAT      O90415   8.643   5.891   6.931
30058WAT     H190416   8.696   5.925   7.009
30058WAT     H290417   8.593   5.967   6.889
30059WAT      O90418   8.458   7.532   4.179
30059WAT     H190419   8.547   7.561   4.213
30059WAT     H290420   8.404   7.494   4.254
30060WAT      O90421   7.678   1.064   7.849
30060WAT     H190422   7.759   1.086   7.795
30060WAT     H290423   7.696   0.986   7.908
30061WAT      O90424   7.885   4.796   1.867
30061WAT     H190425   7.941   4.723   1.907
30061WAT     H290426   7.945   4.862   1.822
30062WAT      O90427   2.724   7.768   0.621
30062WAT     H190428   2.690   7.742   0.531
30062WAT     H290429   2.735   7.868   0.625
30063WAT      O90430   2.589   8.161   8.322
30063WAT     H190431   2.498   8.190   8.292
30063WAT     H290432   2.585   8.133   8.418
30064WAT      O90433   3.125   6.040   5.958
30064WAT     H190434   3.059   5.976   5.917
30064WAT     H290435   3.076   6.121   5.991
30065WAT      O90436   6.473   1.051   2.687
30065WAT     H190437   6.444   1.129   2.743
30065WAT     H290438   6.434   0.967   2.724
30066WAT      O90439   0.517   2.648   3.671
30066WAT     H190440   0.433   2.594   3.661
30066WAT     H290441   0.524   2.713   3.595
30067WAT      O90442   4.359   8.357   2.866
30067WAT     H190443   4.343   8.391   2.959
30067WAT     H290444   4.396   8.431   2.810
30068WAT      O90445   5.661   8.478   3.400
30068WAT     H190446   5.680   8.432   3.486
30068WAT     H290447   5.636   8.411   3.330
30069WAT      O90448   3.994   3.560   0.832
30069WAT     H190449   3.914   3.605   0.871
30069WAT     H290450   4.051   3.525   0.907
30070WAT      O90451   4.720   7.276   1.511
30070WAT     H190452   4.727   7.194   1.567
30070WAT     H290453   4.747   7.255   1.417
30071WAT      O90454   0.923   4.488   8.556
30071WAT     H190455   0.853   4.549   8.521
30071WAT     H290456   0.978   4.536   8.624
30072WAT      O90457   0.138   5.054   4.073
30072WAT     H190458   0.119   4.962   4.109
30072WAT     H290459   0.120   5.055   3.975
30073WAT      O90460   2.132   7.951   3.151
30073WAT     H190461   2.198   7.947   3.077
30073WAT     H290462   2.174   7.921   3.236
30074WAT      O90463   8.450   8.661   4.327
30074WAT     H190464   8.427   8.714   4.246
30074WAT     H290465   8.428   8.714   4.409
30075WAT      O90466   1.984   3.508   3.721
30075WAT     H190467   1.932   3.481   3.640
30075WAT     H290468   1.944   3.465   3.802
30076WAT      O90469   4.994   8.220   7.003
30076WAT     H190470   4.932   8.235   7.080
30076WAT     H290471   5.083   8.189   7.037
30077WAT      O90472   8.771   6.052   3.314
30077WAT     H190473   8.837   6.109   3.265
30077WAT     H290474   8.789   6.057   3.412
30078WAT      O90475   8.189   9.542   6.003
30078WAT     H190476   8.212   9.574   6.095
30078WAT     H290477   8.165   9.620   5.945
30079WAT      O90478   2.620   0.887   7.497
30079WAT     H190479   2.658   0.976   7.521
30079WAT     H290480   2.540   0.899   7.438
30080WAT      O90481   5.123   5.230   3.573
30080WAT     H190482   5.127   5.259   3.477
30080WAT     H290483   5.196   5.276   3.624
30081WAT      O90484   5.359   7.569   8.487
30081WAT     H190485   5.349   7.603   8.393
30081WAT     H290486   5.446   7.521   8.496
30082WAT      O90487   6.781   7.678   1.621
30082WAT     H190488   6.796   7.766   1.667
30082WAT     H290489   6.683   7.662   1.613
30083WAT      O90490   5.721   5.199   4.574
30083WAT     H190491   5.689   5.171   4.483
30083WAT     H290492   5.643   5.204   4.637
30084WAT      O90493   9.142   6.216   0.399
30084WAT     H190494   9.231   6.183   0.431
30084WAT     H290495   9.149   6.247   0.305
30085WAT      O90496   6.260   8.084   9.308
30085WAT     H190497   6.310   8.111   9.390
30085WAT     H290498   6.175   8.137   9.302
30086WAT      O90499   8.574   0.618   6.998
30086WAT     H190500   8.646   0.589   7.060
30086WAT     H290501   8.509   0.676   7.047
30087WAT      O90502   4.957   5.558   9.268
30087WAT     H190503   4.952   5.617   9.187
30087WAT     H290504   5.046   5.569   9.312
30088WAT      O90505   3.745   3.176   9.076
30088WAT     H190506   3.717   3.088   9.036
30088WAT     H290507   3.729   3.174   9.175
30089WAT      O90508   8.485   5.939   4.931
30089WAT     H190509   8.501   5.911   4.836
30089WAT     H290510   8.469   5.858   4.987
30090WAT      O90511   2.860   2.992   9.249
30090WAT     H190512   2.909   2.907   9.226
30090WAT     H290513   2.767   2.987   9.214
30091WAT      O90514   1.909   5.761   3.090
30091WAT     H190515   2.008   5.746   3.083
30091WAT     H290516   1.886   5.792   3.183
30092WAT      O90517   2.412   3.028   8.479
30092WAT     H190518   2.453   2.938   8.464
30092WAT     H290519   2.314   3.018   8.496
30093WAT      O90520   5.908   7.095   2.637
30093WAT     H190521   5.812   7.124   2.648
30093WAT     H290522   5.926   7.077   2.540
30094WAT      O90523   8.019   2.442   6.972
30094WAT     H190524   7.979   2.495   7.047
30094WAT     H290525   8.098   2.490   6.934
30095WAT      O90526   8.997   5.212   9.054
30095WAT     H190527   9.047   5.131   9.022
30095WAT     H290528   9.035   5.293   9.009
30096WAT      O90529   1.688   5.157   4.980
30096WAT     H190530   1.729   5.097   4.912
30096WAT     H290531   1.758   5.218   5.018
30097WAT      O90532   5.562   0.262   2.735
30097WAT     H190533   5.589   0.357   2.728
30097WAT     H290534   5.595   0.224   2.822
30098WAT      O90535   5.804   0.420   9.593
30098WAT     H190536   5.805   0.519   9.578
30098WAT     H290537   5.879   0.377   9.544
30099WAT      O90538   0.044   7.010   0.890
30099WAT     H190539   0.023   7.093   0.941
30099WAT     H290540   0.101   6.950   0.946
30100WAT      O90541   1.883   0.020   7.947
30100WAT     H190542   1.873   0.064   7.858
30100WAT     H290543   1.795  -0.017   7.976
30101WAT      O90544   3.266   3.301   5.867
30101WAT     H190545   3.310   3.298   5.957
30101WAT     H290546   3.207   3.221   5.857
30102WAT      O90547   9.155   4.787   5.825
30102WAT     H190548   9.126   4.875   5.865
30102WAT     H290549   9.106   4.771   5.740
30103WAT      O90550   8.621   0.937   4.138
30103WAT     H190551   8.600   0.932   4.040
30103WAT     H290552   8.577   1.018   4.177
30104WAT      O90553   5.569   1.608   9.163
30104WAT     H190554   5.637   1.565   9.103
30104WAT     H290555   5.617   1.657   9.237
30105WAT      O90556   1.698   5.441   2.241
30105WAT     H190557   1.612   5.474   2.203
30105WAT     H290558   1.703   5.464   2.338
30106WAT      O90559   0.613   0.024   8.069
30106WAT     H190560   0.687  -0.016   8.016
30106WAT     H290561   0.650   0.089   8.135
30107WAT      O90562   3.498   7.846   7.438
30107WAT     H190563   3.518   7.904   7.517
30107WAT     H290564   3.514   7.750   7.462
30108WAT      O90565   2.164   1.703   7.745
30108WAT     H190566   2.088   1.763   7.722
30108WAT     H290567   2.206   1.668   7.661
30109WAT      O90568   9.089   1.707   4.790
30109WAT     H190569   9.153   1.704   4.866
30109WAT     H290570   9.048   1.798   4.784
30110WAT      O90571   7.213   1.641   1.485
30110WAT     H190572   7.243   1.554   1.447
30110WAT     H290573   7.207   1.634   1.585
30111WAT      O90574   5.601   2.540   8.026
30111WAT     H190575   5.579   2.569   8.120
30111WAT     H290576   5.618   2.441   8.025
30112WAT      O90577   8.772   8.040   2.840
30112WAT     H190578   8.791   7.942   2.852
30112WAT     H290579   8.724   8.074   2.921
30113WAT      O90580   4.523   9.790   8.515
30113WAT     H190581   4.562   9.868   8.563
30113WAT     H290582   4.494   9.721   8.582
30114WAT      O90583   3.631   3.146   2.467
30114WAT     H190584   3.722   3.108   2.450
30114WAT     H290585   3.570   3.074   2.499
30115WAT      O90586   0.713   4.134   8.703
30115WAT     H190587   0.631   4.174   8.661
30115WAT     H290588   0.779   4.206   8.723
30116WAT      O90589   3.925   9.658   2.610
30116WAT     H190590   3.912   9.738   2.552
30116WAT     H290591   3.836   9.623   2.639
30117WAT      O90592   0.197   8.499   3.562
30117WAT     H190593   0.177   8.597   3.563
30117WAT     H290594   0.296   8.486   3.551
30118WAT      O90595   1.426   9.593   8.914
30118WAT     H190596   1.415   9.536   8.833
30118WAT     H290597   1.337   9.628   8.943
30119WAT      O90598   9.371   3.427   1.594
30119WAT     H190599   9.413   3.389   1.512
30119WAT     H290600   9.333   3.353   1.649
30120WAT      O90601   0.344   7.494   6.188
30120WAT     H190602   0.378   7.573   6.137
30120WAT     H290603   0.274   7.524   6.253
30121WAT      O90604   2.734   8.487   1.274
30121WAT     H190605   2.651   8.458   1.322
30121WAT     H290606   2.814   8.463   1.329
30122WAT      O90607   8.866   5.450   6.839
30122WAT     H190608   8.853   5.444   6.938
30122WAT     H290609   8.817   5.530   6.804
30123WAT      O90610   6.975   6.840   0.558
30123WAT     H190611   7.000   6.932   0.588
30123WAT     H290612   6.902   6.846   0.490
30124WAT      O90613   6.409   0.305   2.483
30124WAT     H190614   6.434   0.382   2.425
30124WAT     H290615   6.438   0.323   2.577
30125WAT      O90616   0.120   7.418   7.854
30125WAT     H190617   0.165   7.419   7.765
30125WAT     H290618   0.031   7.374   7.847
30126WAT      O90619   7.947   1.180   1.445
30126WAT     H190620   7.974   1.271   1.475
30126WAT     H290621   7.857   1.184   1.402
30127WAT      O90622   2.797   2.242   6.636
30127WAT     H190623   2.743   2.310   6.587
30127WAT     H290624   2.822   2.168   6.573
30128WAT      O90625   3.650   0.628   5.732
30128WAT     H190626   3.574   0.618   5.667
30128WAT     H290627   3.660   0.544   5.785
30129WAT      O90628   5.306   5.151   0.081
30129WAT     H190629   5.235   5.092   0.040
30129WAT     H290630   5.268   5.242   0.097
30130WAT      O90631   6.622   5.563   2.517
30130WAT     H190632   6.666   5.552   2.605
30130WAT     H290633   6.590   5.475   2.484
30131WAT      O90634   1.607   9.578   4.017
30131WAT     H190635   1.585   9.629   4.101
30131WAT     H290636   1.548   9.498   4.011
30132WAT      O90637   4.203   4.479   8.679
30132WAT     H190638   4.163   4.571   8.681
30132WAT     H290639   4.181   4.432   8.764
30133WAT      O90640   4.639   4.217   7.458
30133WAT     H190641   4.631   4.259   7.368
30133WAT     H290642   4.574   4.140   7.465
30134WAT      O90643   9.584   6.466   7.740
30134WAT     H190644   9.637   6.480   7.656
30134WAT     H290645   9.532   6.549   7.761
30135WAT      O90646   5.015   8.094   4.264
30135WAT     H190647   4.984   8.031   4.193
30135WAT     H290648   4.937   8.123   4.320
30136WAT      O90649   8.981   2.085   7.094
30136WAT     H190650   8.977   2.021   7.018
30136WAT     H290651   9.054   2.057   7.158
30137WAT      O90652   9.063   1.650   8.139
30137WAT     H190653   8.978   1.608   8.171
30137WAT     H290654   9.119   1.582   8.092
30138WAT      O90655   1.359   3.767   7.696
30138WAT     H190656   1.459   3.760   7.697
30138WAT     H290657   1.327   3.774   7.601
30139WAT      O90658   9.392   1.408   3.565
30139WAT     H190659   9.349   1.342   3.504
30139WAT     H290660   9.323   1.447   3.625
30140WAT      O90661   0.213   1.015   2.234
30140WAT     H190662   0.142   1.066   2.283
30140WAT     H290663   0.185   0.920   2.223
30141WAT      O90664   0.399   2.811   4.130
30141WAT     H190665   0.450   2.825   4.215
30141WAT     H290666   0.312   2.767   4.151
30142WAT      O90667   3.288   6.289   9.706
30142WAT     H190668   3.360   6.260   9.769
30142WAT     H290669   3.220   6.344   9.754
30143WAT      O90670   0.728   7.796   5.616
30143WAT     H190671   0.674   7.763   5.694
30143WAT     H290672   0.766   7.717   5.567
30144WAT      O90673   2.669   4.073   0.475
30144WAT     H190674   2.678   4.095   0.572
30144WAT     H290675   2.633   4.153   0.426
30145WAT      O90676   0.999   6.765   2.900
30145WAT     H190677   0.970   6.828   2.829
30145WAT     H290678   1.045   6.686   2.858
30146WAT      O90679   5.182   4.910   0.215
30146WAT     H190680   5.196   5.004   0.245
30146WAT     H290681   5.084   4.894   0.201
30147WAT      O90682   5.929   9.158   6.972
30147WAT     H190683   6.015   9.124   6.932
30147WAT     H290684   5.866   9.081   6.986
30148WAT      O90685   1.044   3.481   1.250
30148WAT     H190686   1.077   3.453   1.340
30148WAT     H290687   1.049   3.404   1.187
30149WAT      O90688   9.641   0.543   1.305
30149WAT     H190689   9.585   0.624   1.291
30149WAT     H290690   9.597   0.482   1.372
30150WAT      O90691   5.421   2.683   9.289
30150WAT     H190692   5.494   2.615   9.298
30150WAT     H290693   5.401   2.722   9.379
30151WAT      O90694   9.090   4.478   2.181
30151WAT     H190695   9.020   4.487   2.252
30151WAT     H290696   9.090   4.561   2.124
30152WAT      O90697   9.540   2.963   4.223
30152WAT     H190698   9.577   2.889   4.166
30152WAT     H290699   9.563   3.051   4.183
30153WAT      O90700   0.834   8.723   2.074
30153WAT     H190701   0.756   8.786   2.071
30153WAT     H290702   0.834   8.675   2.162
30154WAT      O90703   5.900   7.031   6.743
30154WAT     H190704   5.987   7.026   6.790
30154WAT     H290705   5.892   6.956   6.677
30155WAT      O90706   7.784   6.949   2.819
30155WAT     H190707   7.788   6.870   2.758
30155WAT     H290708   7.824   6.925   2.907
30156WAT      O90709   9.463   3.731   5.445
30156WAT     H190710   9.549   3.680   5.449
30156WAT     H290711   9.442   3.769   5.536
30157WAT      O90712   1.239   0.712   8.597
30157WAT     H190713   1.330   0.673   8.616
30157WAT     H290714   1.205   0.675   8.511
30158WAT      O90715   5.446   4.600   2.416
30158WAT     H190716   5.421   4.593   2.512
30158WAT     H290717   5.391   4.671   2.372
30159WAT      O90718   4.133   6.338   7.895
30159WAT     H190719   4.181   6.383   7.971
30159WAT     H290720   4.106   6.246   7.923
30160WAT      O90721   2.934   1.513   0.134
30160WAT     H190722   2.938   1.534   0.036
30160WAT     H290723   2.839   1.517   0.165
30161WAT      O90724   1.376   8.810   8.685
30161WAT     H190725   1.356   8.724   8.638
30161WAT     H290726   1.473   8.813   8.709
30162WAT      O90727   4.232   4.592   5.863
30162WAT     H190728   4.133   4.593   5.878
30162WAT     H290729   4.256   4.665   5.799
30163WAT      O90730   3.853   1.633   9.829
30163WAT     H190731   3.919   1.635   9.754
30163WAT     H290732   3.882   1.565   9.897
30164WAT      O90733   6.119   8.193   4.234
30164WAT     H190734   6.146   8.178   4.138
30164WAT     H290735   6.073   8.281   4.242
30165WAT      O90736   2.631   6.277   1.168
30165WAT     H190737   2.663   6.195   1.121
30165WAT     H290738   2.692   6.296   1.245
30166WAT      O90739   1.271   6.536   0.550
30166WAT     H190740   1.244   6.439   0.551
30166WAT     H290741   1.192   6.592   0.575
30167WAT      O90742   2.040   7.345   5.896
30167WAT     H190743   2.115   7.377   5.838
30167WAT     H290744   2.076   7.316   5.985
30168WAT      O90745   8.161   4.978   1.014
30168WAT     H190746   8.258   4.960   1.028
30168WAT     H290747   8.129   4.930   0.932
30169WAT      O90748   6.481   0.003   8.455
30169WAT     H190749   6.422   0.078   8.484
30169WAT     H290750   6.573   0.017   8.490
30170WAT      O90751   0.559   1.914   6.405
30170WAT     H190752   0.637   1.856   6.379
30170WAT     H290753   0.478   1.856   6.417
30171WAT      O90754   7.208   1.233   0.001
30171WAT     H190755   7.219   1.331  -0.019
30171WAT     H290756   7.297   1.191   0.010
30172WAT      O90757   2.313   5.135   2.606
30172WAT     H190758   2.316   5.103   2.511
30172WAT     H290759   2.265   5.069   2.662
30173WAT      O90760   5.565   6.952   8.956
30173WAT     H190761   5.636   6.923   9.020
30173WAT     H290762   5.560   7.052   8.954
30174WAT      O90763   3.162   7.008   2.915
30174WAT     H190764   3.238   6.956   2.876
30174WAT     H290765   3.091   7.021   2.846
30175WAT      O90766   3.985   8.844   3.378
30175WAT     H190767   3.904   8.896   3.349
30175WAT     H290768   4.017   8.787   3.303
30176WAT      O90769   8.627   2.115   9.881
30176WAT     H190770   8.698   2.127   9.813
30176WAT     H290771   8.666   2.074   9.964
30177WAT      O90772   1.172   9.314   5.073
30177WAT     H190773   1.182   9.218   5.102
30177WAT     H290774   1.117   9.363   5.141
30178WAT      O90775   2.786   8.762   1.263
30178WAT     H190776   2.771   8.667   1.292
30178WAT     H290777   2.709   8.790   1.205
30179WAT      O90778   7.305   1.302   2.030
30179WAT     H190779   7.215   1.332   2.063
30179WAT     H290780   7.343   1.371   1.969
30180WAT      O90781   4.774   8.092   1.569
30180WAT     H190782   4.867   8.065   1.546
30180WAT     H290783   4.735   8.144   1.493
30181WAT      O90784   7.812   3.523   7.609
30181WAT     H190785   7.893   3.561   7.654
30181WAT     H290786   7.839   3.476   7.525
30182WAT      O90787   4.869   6.938   6.916
30182WAT     H190788   4.876   6.985   7.004
30182WAT     H290789   4.783   6.962   6.871
30183WAT      O90790   8.021   5.493   9.279
30183WAT     H190791   8.050   5.397   9.281
30183WAT     H290792   8.025   5.532   9.371
30184WAT      O90793   6.735   2.451   7.566
30184WAT     H190794   6.794   2.531   7.562
30184WAT     H290795   6.744   2.398   7.482
30185WAT      O90796   9.355   2.230   8.274
30185WAT     H190797   9.293   2.211   8.197
30185WAT     H290798   9.406   2.147   8.297
30186WAT      O90799   7.541   4.383   8.623
30186WAT     H190800   7.563   4.476   8.593
30186WAT     H290801   7.626   4.334   8.645
30187WAT      O90802   7.875   2.687   8.422
30187WAT     H190803   7.854   2.761   8.487
30187WAT     H290804   7.875   2.723   8.329
30188WAT      O90805   9.799   6.217   7.505
30188WAT     H190806   9.710   6.172   7.510
30188WAT     H290807   9.849   6.182   7.425
30189WAT      O90808   2.121   9.638   6.765
30189WAT     H190809   2.119   9.717   6.826
30189WAT     H290810   2.059   9.653   6.688
30190WAT      O90811   7.175   2.063   0.567
30190WAT     H190812   7.208   2.054   0.662
30190WAT     H290813   7.248   2.037   0.504
30191WAT      O90814   8.293   6.896   8.922
30191WAT     H190815   8.249   6.808   8.938
30191WAT     H290816   8.390   6.890   8.944
30192WAT      O90817   6.214   8.418   0.878
30192WAT     H190818   6.270   8.433   0.796
30192WAT     H290819   6.117   8.424   0.854
30193WAT      O90820   7.680   6.382   8.517
30193WAT     H190821   7.765   6.344   8.482
30193WAT     H290822   7.676   6.367   8.616
30194WAT      O90823   7.933   6.274   3.692
30194WAT     H190824   7.846   6.318   3.713
30194WAT     H290825   7.986   6.333   3.631
30195WAT      O90826   5.951   5.874   0.160
30195WAT     H190827   5.981   5.958   0.114
30195WAT     H290828   5.907   5.897   0.246
30196WAT      O90829   2.702   0.594   9.381
30196WAT     H190830   2.724   0.498   9.400
30196WAT     H290831   2.777   0.634   9.328
30197WAT      O90832   4.324   6.461   9.088
30197WAT     H190833   4.304   6.499   9.178
30197WAT     H290834   4.265   6.383   9.071
30198WAT      O90835   8.243   8.937   1.948
30198WAT     H190836   8.159   8.947   1.894
30198WAT     H290837   8.277   9.027   1.974
30199WAT      O90838   7.038   0.786   3.862
30199WAT     H190839   6.942   0.756   3.869
30199WAT     H290840   7.096   0.707   3.845
30200WAT      O90841   1.659   5.131   4.011
30200WAT     H190842   1.692   5.221   4.040
30200WAT     H290843   1.735   5.066   4.011
30201WAT      O90844   0.553   1.423   2.640
30201WAT     H190845   0.503   1.508   2.626
30201WAT     H290846   0.494   1.356   2.686
30202WAT      O90847   8.794   6.849   6.998
30202WAT     H190848   8.793   6.845   7.097
30202WAT     H290849   8.836   6.766   6.961
30203WAT      O90850   5.819   6.340   6.598
30203WAT     H190851   5.721   6.350   6.615
30203WAT     H290852   5.867   6.420   6.633
30204WAT      O90853   8.501   0.710   1.995
30204WAT     H190854   8.482   0.681   1.902
30204WAT     H290855   8.557   0.641   2.041
30205WAT      O90856   4.312   5.240   5.103
30205WAT     H190857   4.369   5.159   5.107
30205WAT     H290858   4.219   5.215   5.076
30206WAT      O90859   4.507   7.816   1.324
30206WAT     H190860   4.461   7.728   1.313
30206WAT     H290861   4.602   7.801   1.353
30207WAT      O90862   0.132   5.189   7.207
30207WAT     H190863   0.078   5.118   7.254
30207WAT     H290864   0.226   5.188   7.241
30208WAT      O90865   6.795   5.974   1.318
30208WAT     H190866   6.751   5.888   1.346
30208WAT     H290867   6.894   5.963   1.322
30209WAT      O90868   4.403   4.578   0.406
30209WAT     H190869   4.418   4.501   0.468
30209WAT     H290870   4.383   4.544   0.314
30210WAT      O90871   2.771   1.267   9.592
30210WAT     H190872   2.765   1.181   9.642
30210WAT     H290873   2.739   1.253   9.498
30211WAT      O90874   0.202   8.259   3.259
30211WAT     H190875   0.116   8.222   3.224
30211WAT     H290876   0.184   8.314   3.341
30212WAT      O90877   9.190   6.254   1.305
30212WAT     H190878   9.263   6.300   1.355
30212WAT     H290879   9.230   6.192   1.237
30213WAT      O90880   8.395   8.159   2.212
30213WAT     H190881   8.463   8.140   2.142
30213WAT     H290882   8.325   8.220   2.174
30214WAT      O90883   5.374   2.280   4.336
30214WAT     H190884   5.296   2.292   4.397
30214WAT     H290885   5.452   2.333   4.371
30215WAT      O90886   9.395   2.186   3.470
30215WAT     H190887   9.335   2.265   3.477
30215WAT     H290888   9.481   2.213   3.427
30216WAT      O90889   7.315   7.820   5.618
30216WAT     H190890   7.217   7.809   5.600
30216WAT     H290891   7.368   7.777   5.544
30217WAT      O90892   2.309   3.446   0.105
30217WAT     H190893   2.259   3.531   0.088
30217WAT     H290894   2.391   3.444   0.048
30218WAT      O90895   2.701   8.318   8.712
30218WAT     H190896   2.791   8.283   8.738
30218WAT     H290897   2.713   8.394   8.649
30219WAT      O90898   7.663   9.768   6.328
30219WAT     H190899   7.611   9.743   6.410
30219WAT     H290900   7.611   9.835   6.275
30220WAT      O90901   0.292   7.322   4.444
30220WAT     H190902   0.314   7.357   4.535
30220WAT     H290903   0.287   7.399   4.379
30221WAT      O90904   6.874   4.508   0.386
30221WAT     H190905   6.874   4.413   0.418
30221WAT     H290906   6.834   4.512   0.295
30222WAT      O90907   4.433   0.481   5.219
30222WAT     H190908   4.489   0.547   5.168
30222WAT     H290909   4.421   0.399   5.164
30223WAT      O90910   4.620   1.194   3.135
30223WAT     H190911   4.627   1.232   3.227
30223WAT     H290912   4.674   1.250   3.072
30224WAT      O90913   2.541   8.970   2.523
30224WAT     H190914   2.516   9.017   2.608
30224WAT     H290915   2.460   8.955   2.468
30225WAT      O90916   0.070   8.153   4.887
30225WAT     H190917   0.006   8.183   4.958
30225WAT     H290918   0.130   8.229   4.862
30226WAT      O90919   1.379   1.437   7.832
30226WAT     H190920   1.319   1.486   7.894
30226WAT     H290921   1.356   1.339   7.833
30227WAT      O90922   5.862   7.560   4.759
30227WAT     H190923   5.803   7.636   4.734
30227WAT     H290924   5.877   7.501   4.680
30228WAT      O90925   2.736   5.362   1.793
30228WAT     H190926   2.692   5.436   1.844
30228WAT     H290927   2.682   5.279   1.804
30229WAT      O90928   9.536   9.626   8.569
30229WAT     H190929   9.442   9.599   8.548
30229WAT     H290930   9.580   9.553   8.623
30230WAT      O90931   2.473   5.673   1.121
30230WAT     H190932   2.440   5.579   1.110
30230WAT     H290933   2.551   5.674   1.182
30231WAT      O90934   7.770   2.159   7.976
30231WAT     H190935   7.852   2.110   8.004
30231WAT     H290936   7.690   2.100   7.990
30232WAT      O90937   2.309   6.776   2.677
30232WAT     H190938   2.306   6.779   2.776
30232WAT     H290939   2.389   6.723   2.648
30233WAT      O90940   1.497   3.692   2.460
30233WAT     H190941   1.459   3.628   2.527
30233WAT     H290942   1.579   3.735   2.497
30234WAT      O90943   3.749   4.412   7.051
30234WAT     H190944   3.751   4.347   6.975
30234WAT     H290945   3.690   4.375   7.123
30235WAT      O90946   5.539   8.474   1.398
30235WAT     H190947   5.637   8.467   1.379
30235WAT     H290948   5.525   8.546   1.466
30236WAT      O90949   1.534   8.612   3.484
30236WAT     H190950   1.496   8.693   3.440
30236WAT     H290951   1.461   8.558   3.524
30237WAT      O90952   6.703   0.273   7.452
30237WAT     H190953   6.793   0.263   7.410
30237WAT     H290954   6.666   0.364   7.432
30238WAT      O90955   8.709   8.544   7.076
30238WAT     H190956   8.762   8.460   7.067
30238WAT     H290957   8.633   8.543   7.011
30239WAT      O90958   3.751   5.795   4.075
30239WAT     H190959   3.801   5.732   4.134
30239WAT     H290960   3.811   5.871   4.050
30240WAT      O90961   9.651   1.023   8.957
30240WAT     H190962   9.697   0.959   8.895
30240WAT     H290963   9.611   0.972   9.034
30241WAT      O90964   9.756   5.632   9.352
30241WAT     H190965   9.825   5.632   9.424
30241WAT     H290966   9.777   5.703   9.285
30242WAT      O90967   0.862   1.386   6.442
30242WAT     H190968   0.958   1.378   6.414
30242WAT     H290969   0.808   1.317   6.394
30243WAT      O90970   2.289   2.212   8.295
30243WAT     H190971   2.387   2.190   8.294
30243WAT     H290972   2.257   2.226   8.202
30244WAT      O90973   9.347   1.922   3.385
30244WAT     H190974   9.262   1.902   3.433
30244WAT     H290975   9.376   2.015   3.405
30245WAT      O90976   1.258   7.904   4.376
30245WAT     H190977   1.319   7.829   4.401
30245WAT     H290978   1.292   7.989   4.417
30246WAT      O90979   1.404   6.175   5.390
30246WAT     H190980   1.471   6.101   5.395
30246WAT     H290981   1.440   6.257   5.434
30247WAT      O90982   1.459   8.975   0.933
30247WAT     H190983   1.435   9.070   0.953
30247WAT     H290984   1.443   8.919   1.014
30248WAT      O90985   8.224   1.977   2.487
30248WAT     H190986   8.214   2.075   2.500
30248WAT     H290987   8.193   1.952   2.395
30249WAT      O90988   4.135   8.047   3.868
30249WAT     H190989   4.156   7.950   3.859
30249WAT     H290990   4.050   8.059   3.919
30250WAT      O90991   0.051   7.420   0.701
30250WAT     H190992   0.042   7.322   0.681
30250WAT     H290993   0.089   7.467   0.621
30251WAT      O90994   3.110   5.743   2.397
30251WAT     H190995   3.100   5.712   2.303
30251WAT     H290996   3.020   5.742   2.442
30252WAT      O90997   6.296   6.188   8.837
30252WAT     H190998   6.294   6.262   8.905
30252WAT     H290999   6.388   6.148   8.835
30253WAT      O91000   9.625   7.494   0.934
30253WAT     H191001   9.624   7.468   0.837
30253WAT     H291002   9.661   7.586   0.944
30254WAT      O91003   6.981   8.280   1.464
30254WAT     H191004   7.060   8.218   1.464
30254WAT     H291005   6.999   8.356   1.526
30255WAT      O91006   9.574   3.368   5.417
30255WAT     H191007   9.617   3.295   5.471
30255WAT     H291008   9.631   3.450   5.421
30256WAT      O91009   6.361   3.386   7.184
30256WAT     H191010   6.435   3.451   7.166
30256WAT     H291011   6.393   3.316   7.248
30257WAT      O91012   9.683   8.822   5.411
30257WAT     H191013   9.593   8.778   5.413
30257WAT     H291014   9.754   8.752   5.399
30258WAT      O91015   5.717   9.285   9.023
30258WAT     H191016   5.631   9.237   9.007
30258WAT     H291017   5.706   9.351   9.097
30259WAT      O91018   6.701   7.295   3.733
30259WAT     H191019   6.601   7.292   3.732
30259WAT     H291020   6.736   7.215   3.782
30260WAT      O91021   0.987   3.278   9.004
30260WAT     H191022   1.020   3.327   9.085
30260WAT     H291023   1.017   3.183   9.008
30261WAT      O91024   8.157   4.576   0.467
30261WAT     H191025   8.073   4.523   0.479
30261WAT     H291026   8.175   4.588   0.369
30262WAT      O91027   9.219   7.406   3.162
30262WAT     H191028   9.288   7.361   3.220
30262WAT     H291029   9.146   7.340   3.141
30263WAT      O91030   7.073   4.280   7.779
30263WAT     H191031   7.001   4.330   7.828
30263WAT     H291032   7.106   4.205   7.836
30264WAT      O91033   6.771   8.923   6.841
30264WAT     H191034   6.704   8.990   6.874
30264WAT     H291035   6.792   8.858   6.914
30265WAT      O91036   9.205   9.260   8.412
30265WAT     H191037   9.294   9.304   8.398
30265WAT     H291038   9.153   9.312   8.480
30266WAT      O91039   8.876   5.758   1.763
30266WAT     H191040   8.885   5.711   1.850
30266WAT     H291041   8.921   5.847   1.768
30267WAT      O91042   9.150   1.511   8.588
30267WAT     H191043   9.107   1.422   8.601
30267WAT     H291044   9.105   1.579   8.646
30268WAT      O91045   2.838   1.834   8.676
30268WAT     H191046   2.880   1.799   8.759
30268WAT     H291047   2.895   1.907   8.638
30269WAT      O91048   4.627   2.582   1.391
30269WAT     H191049   4.719   2.621   1.392
30269WAT     H291050   4.632   2.482   1.393
30270WAT      O91051   5.962   9.419   0.426
30270WAT     H191052   5.903   9.380   0.496
30270WAT     H291053   5.906   9.470   0.360
30271WAT      O91054   0.468   5.184   1.701
30271WAT     H191055   0.475   5.093   1.659
30271WAT     H291056   0.526   5.187   1.783
30272WAT      O91057   7.044   1.858   6.105
30272WAT     H191058   7.048   1.774   6.051
30272WAT     H291059   7.105   1.926   6.064
30273WAT      O91060   2.397   0.649   1.606
30273WAT     H191061   2.459   0.600   1.668
30273WAT     H291062   2.384   0.594   1.523
30274WAT      O91063   8.491   3.604   9.036
30274WAT     H191064   8.424   3.530   9.037
30274WAT     H291065   8.458   3.679   9.093
30275WAT      O91066   2.558   0.526   5.790
30275WAT     H191067   2.516   0.571   5.869
30275WAT     H291068   2.630   0.464   5.821
30276WAT      O91069   7.080   4.848   3.837
30276WAT     H191070   7.025   4.790   3.897
30276WAT     H291071   7.136   4.910   3.892
30277WAT      O91072   0.609   2.830   6.626
30277WAT     H191073   0.646   2.892   6.557
30277WAT     H291074   0.537   2.773   6.585
30278WAT      O91075   0.414   3.794   1.830
30278WAT     H191076   0.399   3.765   1.735
30278WAT     H291077   0.331   3.837   1.864
30279WAT      O91078   7.217   6.407   8.864
30279WAT     H191079   7.294   6.445   8.916
30279WAT     H291080   7.131   6.438   8.903
30280WAT      O91081   2.650   7.812   3.521
30280WAT     H191082   2.628   7.858   3.607
30280WAT     H291083   2.690   7.722   3.540
30281WAT      O91084   7.180   2.532   2.002
30281WAT     H191085   7.167   2.556   2.098
30281WAT     H291086   7.129   2.449   1.981
30282WAT      O91087   0.065   4.540   2.267
30282WAT     H191088   0.013   4.585   2.194
30282WAT     H291089   0.065   4.598   2.348
30283WAT      O91090   0.225   7.840   3.059
30283WAT     H191091   0.271   7.776   2.998
30283WAT     H291092   0.152   7.888   3.008
30284WAT      O91093   4.894   5.889   9.390
30284WAT     H191094   4.854   5.954   9.455
30284WAT     H291095   4.915   5.803   9.437
30285WAT      O91096   0.845   3.985   3.878
30285WAT     H191097   0.786   3.909   3.850
30285WAT     H291098   0.799   4.072   3.859
30286WAT      O91099   2.323   0.157   5.708
30286WAT     H191100   2.257   0.121   5.773
30286WAT     H291101   2.290   0.244   5.670
30287WAT      O91102   9.159   5.068   3.459
30287WAT     H191103   9.172   5.142   3.524
30287WAT     H291104   9.066   5.073   3.422
30288WAT      O91105   7.906   5.417   2.660
30288WAT     H191106   7.871   5.509   2.641
30288WAT     H291107   8.005   5.420   2.666
30289WAT      O91108   4.596   7.849   7.838
30289WAT     H191109   4.643   7.769   7.873
30289WAT     H291110   4.499   7.829   7.827
30290WAT      O91111   0.433   5.230   2.922
30290WAT     H191112   0.499   5.289   2.874
30290WAT     H291113   0.426   5.143   2.874
30291WAT      O91114   2.780   5.730   0.488
30291WAT     H191115   2.686   5.701   0.501
30291WAT     H291116   2.830   5.720   0.574
30292WAT      O91117   6.768   0.261   0.894
30292WAT     H191118   6.688   0.264   0.954
30292WAT     H291119   6.757   0.188   0.827
30293WAT      O91120   4.160   7.502   9.517
30293WAT     H191121   4.241   7.552   9.548
30293WAT     H291122   4.164   7.490   9.418
30294WAT      O91123   4.345   4.515   0.153
30294WAT     H191124   4.247   4.527   0.134
30294WAT     H291125   4.386   4.458   0.083
30295WAT      O91126   9.301   7.580   1.538
30295WAT     H191127   9.263   7.660   1.491
30295WAT     H291128   9.387   7.554   1.495
30296WAT      O91129   5.614   0.649   3.649
30296WAT     H191130   5.629   0.734   3.599
30296WAT     H291131   5.563   0.585   3.591
30297WAT      O91132   6.887   5.818   2.926
30297WAT     H191133   6.827   5.803   2.847
30297WAT     H291134   6.970   5.865   2.896
30298WAT      O91135   7.036   1.444   6.711
30298WAT     H191136   7.131   1.415   6.698
30298WAT     H291137   6.982   1.366   6.743
30299WAT      O91138   8.595   0.046   8.446
30299WAT     H191139   8.658   0.020   8.519
30299WAT     H291140   8.645   0.086   8.370
30300WAT      O91141   0.519   2.487   8.097
30300WAT     H191142   0.541   2.426   8.173
30300WAT     H291143   0.601   2.539   8.071
30301WAT      O91144   6.829   2.650   6.189
30301WAT     H191145   6.858   2.554   6.194
30301WAT     H291146   6.910   2.708   6.182
30302WAT      O91147   9.565   0.190   2.881
30302WAT     H191148   9.504   0.112   2.865
30302WAT     H291149   9.609   0.216   2.795
30303WAT      O91150   2.634   0.609   7.466
30303WAT     H191151   2.605   0.585   7.373
30303WAT     H291152   2.637   0.709   7.475
30304WAT      O91153   5.226   1.716   1.293
30304WAT     H191154   5.177   1.746   1.374
30304WAT     H291155   5.202   1.774   1.215
30305WAT      O91156   5.577   4.862   0.810
30305WAT     H191157   5.558   4.792   0.741
30305WAT     H291158   5.610   4.945   0.766
30306WAT      O91159   4.740   3.091   2.283
30306WAT     H191160   4.703   3.109   2.374
30306WAT     H291161   4.838   3.071   2.290
30307WAT      O91162   2.730   4.209   6.073
30307WAT     H191163   2.778   4.206   5.985
30307WAT     H291164   2.652   4.145   6.071
30308WAT      O91165   2.843   2.793   6.922
30308WAT     H191166   2.887   2.876   6.887
30308WAT     H291167   2.912   2.721   6.933
30309WAT      O91168   8.977   0.603   1.385
30309WAT     H191169   8.917   0.531   1.421
30309WAT     H291170   9.026   0.568   1.306
30310WAT      O91171   6.836   6.876   6.307
30310WAT     H191172   6.930   6.871   6.275
30310WAT     H291173   6.823   6.962   6.357
30311WAT      O91174   3.672   7.788   8.685
30311WAT     H191175   3.625   7.710   8.643
30311WAT     H291176   3.718   7.842   8.615
30312WAT      O91177   5.278   0.906   6.569
30312WAT     H191178   5.238   0.821   6.533
30312WAT     H291179   5.211   0.980   6.562
30313WAT      O91180   1.853   8.472   2.254
30313WAT     H191181   1.792   8.536   2.208
30313WAT     H291182   1.844   8.481   2.353
30314WAT      O91183   8.772   5.762   2.619
30314WAT     H191184   8.869   5.737   2.615
30314WAT     H291185   8.762   5.850   2.664
30315WAT      O91186   6.827   0.741   1.126
30315WAT     H191187   6.812   0.840   1.136
30315WAT     H291188   6.925   0.724   1.118
30316WAT      O91189   6.449   9.559   7.456
30316WAT     H191190   6.449   9.494   7.380
30316WAT     H291191   6.368   9.544   7.513
30317WAT      O91192   2.072   0.663   9.722
30317WAT     H191193   2.064   0.574   9.766
30317WAT     H291194   1.993   0.720   9.747
30318WAT      O91195   5.635   2.714   5.035
30318WAT     H191196   5.651   2.651   5.112
30318WAT     H291197   5.624   2.807   5.070
30319WAT      O91198   8.141   5.544   2.043
30319WAT     H191199   8.108   5.558   2.137
30319WAT     H291200   8.140   5.446   2.022
30320WAT      O91201   8.946   7.794   3.266
30320WAT     H191202   9.030   7.821   3.313
30320WAT     H291203   8.957   7.806   3.167
30321WAT      O91204   5.766   4.313   2.028
30321WAT     H191205   5.796   4.382   1.962
30321WAT     H291206   5.757   4.354   2.118
30322WAT      O91207   7.443   4.724   1.840
30322WAT     H191208   7.395   4.734   1.927
30322WAT     H291209   7.456   4.627   1.820
30323WAT      O91210   9.063   2.195   2.579
30323WAT     H191211   8.964   2.180   2.582
30323WAT     H291212   9.092   2.242   2.663
30324WAT      O91213   1.426   1.614   8.253
30324WAT     H191214   1.415   1.706   8.214
30324WAT     H291215   1.523   1.592   8.258
30325WAT      O91216   9.715   8.997   4.935
30325WAT     H191217   9.672   8.920   4.983
30325WAT     H291218   9.808   9.010   4.971
30326WAT      O91219   6.469   9.829   6.526
30326WAT     H191220   6.498   9.798   6.435
30326WAT     H291221   6.405   9.764   6.565
30327WAT      O91222   6.241   9.840   9.527
30327WAT     H191223   6.323   9.818   9.578
30327WAT     H291224   6.162   9.795   9.569
30328WAT      O91225   1.455   3.526   7.027
30328WAT     H191226   1.507   3.517   6.942
30328WAT     H291227   1.457   3.439   7.076
30329WAT      O91228   6.748   2.093   7.059
30329WAT     H191229   6.693   2.116   7.140
30329WAT     H291230   6.815   2.164   7.043
30330WAT      O91231   2.273   3.966   6.977
30330WAT     H191232   2.311   3.882   6.938
30330WAT     H291233   2.212   4.009   6.911
30331WAT      O91234   6.451   9.230   3.267
30331WAT     H191235   6.517   9.160   3.244
30331WAT     H291236   6.455   9.248   3.366
30332WAT      O91237   4.609   5.426   0.876
30332WAT     H191238   4.630   5.396   0.969
30332WAT     H291239   4.591   5.347   0.818
30333WAT      O91240   0.295   4.957   0.307
30333WAT     H191241   0.345   4.973   0.222
30333WAT     H291242   0.344   5.001   0.383
30334WAT      O91243   8.144   7.270   7.562
30334WAT     H191244   8.065   7.317   7.521
30334WAT     H291245   8.203   7.237   7.489
30335WAT      O91246   6.344   3.825   4.527
30335WAT     H191247   6.267   3.791   4.581
30335WAT     H291248   6.382   3.750   4.472
30336WAT      O91249   6.667   8.317   2.080
30336WAT     H191250   6.592   8.274   2.029
30336WAT     H291251   6.644   8.317   2.178
30337WAT      O91252   5.085   9.459   6.594
30337WAT     H191253   5.179   9.482   6.569
30337WAT     H291254   5.022   9.501   6.528
30338WAT      O91255   0.149   3.082   6.057
30338WAT     H191256   0.122   3.163   6.109
30338WAT     H291257   0.079   3.011   6.066
30339WAT      O91258   6.378   8.001   7.976
30339WAT     H191259   6.320   8.038   7.904
30339WAT     H291260   6.413   8.075   8.033
30340WAT      O91261   7.461   1.134   4.473
30340WAT     H191262   7.539   1.104   4.528
30340WAT     H291263   7.415   1.054   4.435
30341WAT      O91264   9.665   4.154   5.187
30341WAT     H191265   9.573   4.116   5.177
30341WAT     H291266   9.670   4.241   5.138
30342WAT      O91267   0.391   7.691   1.218
30342WAT     H191268   0.443   7.757   1.164
30342WAT     H291269   0.443   7.667   1.300
30343WAT      O91270   6.825   7.288   3.508
30343WAT     H191271   6.904   7.345   3.490
30343WAT     H291272   6.783   7.315   3.595
30344WAT      O91273   1.165   4.958   6.806
30344WAT     H191274   1.189   4.932   6.713
30344WAT     H291275   1.225   5.032   6.837
30345WAT      O91276   1.180   8.204   0.053
30345WAT     H191277   1.173   8.152   0.138
30345WAT     H291278   1.116   8.282   0.057
30346WAT      O91279   5.356   8.032   8.907
30346WAT     H191280   5.260   8.055   8.926
30346WAT     H291281   5.362   7.989   8.817
30347WAT      O91282   7.372   7.512   3.587
30347WAT     H191283   7.456   7.512   3.641
30347WAT     H291284   7.367   7.429   3.532
30348WAT      O91285   8.804   5.752   2.215
30348WAT     H191286   8.804   5.690   2.294
30348WAT     H291287   8.714   5.749   2.171
30349WAT      O91288   9.618   7.079   4.047
30349WAT     H191289   9.649   7.046   3.957
30349WAT     H291290   9.575   7.168   4.036
30350WAT      O91291   6.155   5.579   6.672
30350WAT     H191292   6.175   5.556   6.767
30350WAT     H291293   6.167   5.677   6.658
30351WAT      O91294   6.269   3.447   7.500
30351WAT     H191295   6.171   3.433   7.491
30351WAT     H291296   6.307   3.383   7.566
30352WAT      O91297   8.065   6.454   0.730
30352WAT     H191298   8.034   6.491   0.817
30352WAT     H291299   8.111   6.525   0.677
30353WAT      O91300   8.582   7.339   2.727
30353WAT     H191301   8.587   7.290   2.640
30353WAT     H291302   8.586   7.437   2.711
30354WAT      O91303   4.683   4.709   9.077
30354WAT     H191304   4.752   4.780   9.090
30354WAT     H291305   4.601   4.750   9.036
30355WAT      O91306   6.697   3.096   3.528
30355WAT     H191307   6.638   3.024   3.563
30355WAT     H291308   6.789   3.085   3.565
30356WAT      O91309   4.295   1.667   8.364
30356WAT     H191310   4.199   1.692   8.350
30356WAT     H291311   4.306   1.630   8.457
30357WAT      O91312   2.226   7.503   1.018
30357WAT     H191313   2.311   7.454   1.037
30357WAT     H291314   2.150   7.455   1.062
30358WAT      O91315   3.476   5.990   7.559
30358WAT     H191316   3.548   5.964   7.623
30358WAT     H291317   3.389   5.951   7.588
30359WAT      O91318   8.982   4.401   0.190
30359WAT     H191319   8.973   4.459   0.271
30359WAT     H291320   8.895   4.356   0.171
30360WAT      O91321   8.629   8.185   6.532
30360WAT     H191322   8.583   8.104   6.569
30360WAT     H291323   8.725   8.163   6.513
30361WAT      O91324   6.846   6.243   5.862
30361WAT     H191325   6.925   6.295   5.829
30361WAT     H291326   6.844   6.154   5.816
30362WAT      O91327   1.915   3.326   5.220
30362WAT     H191328   1.955   3.326   5.128
30362WAT     H291329   1.818   3.304   5.214
30363WAT      O91330   5.257   6.220   1.269
30363WAT     H191331   5.265   6.170   1.355
30363WAT     H291332   5.296   6.311   1.280
30364WAT      O91333   2.812   6.301   2.496
30364WAT     H191334   2.850   6.234   2.560
30364WAT     H291335   2.885   6.333   2.435
30365WAT      O91336   5.815   7.918   7.123
30365WAT     H191337   5.839   7.986   7.054
30365WAT     H291338   5.735   7.866   7.092
30366WAT      O91339   2.295   9.435   2.775
30366WAT     H191340   2.244   9.382   2.707
30366WAT     H291341   2.235   9.456   2.852
30367WAT      O91342   7.544   7.087   2.175
30367WAT     H191343   7.527   7.116   2.269
30367WAT     H291344   7.515   7.159   2.112
30368WAT      O91345   1.841   2.193   7.563
30368WAT     H191346   1.748   2.155   7.562
30368WAT     H291347   1.838   2.290   7.542
30369WAT      O91348   3.212   4.578   2.506
30369WAT     H191349   3.124   4.568   2.460
30369WAT     H291350   3.214   4.520   2.587
30370WAT      O91351   4.672   3.517   6.910
30370WAT     H191352   4.654   3.456   6.833
30370WAT     H291353   4.585   3.548   6.949
30371WAT      O91354   2.580   6.647   3.668
30371WAT     H191355   2.617   6.558   3.697
30371WAT     H291356   2.634   6.720   3.708
30372WAT      O91357   6.280   7.779   4.920
30372WAT     H191358   6.370   7.783   4.876
30372WAT     H291359   6.264   7.687   4.955
30373WAT      O91360   9.002   9.360   2.354
30373WAT     H191361   8.963   9.451   2.368
30373WAT     H291362   9.099   9.360   2.380
30374WAT      O91363   9.641   9.058   2.308
30374WAT     H191364   9.700   9.043   2.229
30374WAT     H291365   9.691   9.032   2.391
30375WAT      O91366   5.498   5.952   8.569
30375WAT     H191367   5.433   5.965   8.645
30375WAT     H291368   5.563   5.880   8.593
30376WAT      O91369   7.024   6.227   4.960
30376WAT     H191370   6.988   6.138   4.989
30376WAT     H291371   7.034   6.227   4.861
30377WAT      O91372   3.141   4.613   3.793
30377WAT     H191373   3.051   4.653   3.807
30377WAT     H291374   3.146   4.524   3.838
30378WAT      O91375   4.387   0.852   5.193
30378WAT     H191376   4.440   0.936   5.205
30378WAT     H291377   4.353   0.822   5.282
30379WAT      O91378   3.861   5.998   0.632
30379WAT     H191379   3.808   6.032   0.554
30379WAT     H291380   3.924   6.069   0.663
30380WAT      O91381   5.615   7.484   0.994
30380WAT     H191382   5.604   7.385   1.002
30380WAT     H291383   5.679   7.505   0.921
30381WAT      O91384   9.828   4.496   0.453
30381WAT     H191385   9.860   4.493   0.358
30381WAT     H291386   9.738   4.453   0.459
30382WAT      O91387   2.202   4.223   0.150
30382WAT     H191388   2.114   4.180   0.133
30382WAT     H291389   2.209   4.248   0.247
30383WAT      O91390   1.486   2.840   8.535
30383WAT     H191391   1.398   2.888   8.536
30383WAT     H291392   1.540   2.871   8.457
30384WAT      O91393   4.183   5.684   4.742
30384WAT     H191394   4.138   5.748   4.679
30384WAT     H291395   4.255   5.732   4.791
30385WAT      O91396   0.389   3.235   1.185
30385WAT     H191397   0.350   3.149   1.217
30385WAT     H291398   0.329   3.276   1.117
30386WAT      O91399   6.790   6.966   9.042
30386WAT     H191400   6.755   7.041   8.986
30386WAT     H291401   6.889   6.964   9.036
30387WAT      O91402   5.629   7.711   4.782
30387WAT     H191403   5.641   7.806   4.753
30387WAT     H291404   5.673   7.698   4.871
30388WAT      O91405   8.590   8.195   0.907
30388WAT     H191406   8.492   8.178   0.907
30388WAT     H291407   8.610   8.274   0.849
30389WAT      O91408   7.003   7.463   2.130
30389WAT     H191409   7.002   7.366   2.156
30389WAT     H291410   7.024   7.519   2.209
30390WAT      O91411   1.420   0.744   3.154
30390WAT     H191412   1.504   0.755   3.100
30390WAT     H291413   1.424   0.656   3.202
30391WAT      O91414   6.265   6.907   2.174
30391WAT     H191415   6.360   6.935   2.185
30391WAT     H291416   6.261   6.820   2.125
30392WAT      O91417   5.990   1.557   5.053
30392WAT     H191418   6.070   1.583   5.107
30392WAT     H291419   5.930   1.499   5.108
30393WAT      O91420   1.314   5.363   2.223
30393WAT     H191421   1.270   5.273   2.218
30393WAT     H291422   1.247   5.431   2.253
30394WAT      O91423   5.064   3.024   2.204
30394WAT     H191424   5.056   3.073   2.291
30394WAT     H291425   5.090   3.087   2.132
30395WAT      O91426   6.954   3.508   8.612
30395WAT     H191427   7.028   3.513   8.679
30395WAT     H291428   6.992   3.521   8.520
30396WAT      O91429   2.986   5.644   7.892
30396WAT     H191430   3.070   5.600   7.861
30396WAT     H291431   2.985   5.739   7.860
30397WAT      O91432   4.764   7.544   3.460
30397WAT     H191433   4.828   7.475   3.493
30397WAT     H291434   4.699   7.501   3.397
30398WAT      O91435   9.235   3.344   3.979
30398WAT     H191436   9.220   3.264   4.036
30398WAT     H291437   9.196   3.329   3.888
30399WAT      O91438   6.444   1.056   7.336
30399WAT     H191439   6.489   0.976   7.295
30399WAT     H291440   6.390   1.026   7.414
30400WAT      O91441   6.899   0.664   0.833
30400WAT     H191442   6.981   0.685   0.887
30400WAT     H291443   6.821   0.715   0.869
30401WAT      O91444   1.587   9.443   2.154
30401WAT     H191445   1.504   9.390   2.138
30401WAT     H291446   1.586   9.478   2.248
30402WAT      O91447   3.684   4.655   2.351
30402WAT     H191448   3.653   4.708   2.430
30402WAT     H291449   3.606   4.632   2.293
30403WAT      O91450   7.221   4.550   8.059
30403WAT     H191451   7.208   4.573   7.963
30403WAT     H291452   7.138   4.573   8.110
30404WAT      O91453   0.056   0.771   6.750
30404WAT     H191454   0.042   0.715   6.831
30404WAT     H291455  -0.012   0.845   6.748
30405WAT      O91456   9.129   3.019   9.364
30405WAT     H191457   9.186   3.094   9.397
30405WAT     H291458   9.048   3.056   9.319
30406WAT      O91459   6.127   4.211   4.466
30406WAT     H191460   6.128   4.257   4.555
30406WAT     H291461   6.212   4.159   4.454
30407WAT      O91462   8.355   9.456   6.720
30407WAT     H191463   8.282   9.399   6.758
30407WAT     H291464   8.319   9.546   6.695
30408WAT      O91465   4.976   0.594   2.925
30408WAT     H191466   4.948   0.498   2.937
30408WAT     H291467   4.960   0.644   3.010
30409WAT      O91468   6.152   4.745   1.898
30409WAT     H191469   6.191   4.784   1.982
30409WAT     H291470   6.118   4.653   1.917
30410WAT      O91471   8.071   1.388   8.604
30410WAT     H191472   8.058   1.336   8.519
30410WAT     H291473   8.140   1.342   8.660
30411WAT      O91474   0.196   7.908   6.862
30411WAT     H191475   0.215   7.995   6.908
30411WAT     H291476   0.168   7.840   6.929
30412WAT      O91477   8.351   2.826   0.424
30412WAT     H191478   8.369   2.759   0.352
30412WAT     H291479   8.356   2.782   0.513
30413WAT      O91480   7.820   3.211   9.213
30413WAT     H191481   7.875   3.270   9.272
30413WAT     H291482   7.821   3.246   9.120
30414WAT      O91483   4.698   0.473   6.683
30414WAT     H191484   4.683   0.442   6.777
30414WAT     H291485   4.656   0.408   6.620
30415WAT      O91486   9.296   0.103   5.892
30415WAT     H191487   9.310   0.202   5.886
30415WAT     H291488   9.337   0.058   5.813
30416WAT      O91489   8.333   6.695   7.008
30416WAT     H191490   8.349   6.741   6.921
30416WAT     H291491   8.366   6.601   7.002
30417WAT      O91492   1.855   8.556   9.531
30417WAT     H191493   1.871   8.587   9.437
30417WAT     H291494   1.820   8.632   9.585
30418WAT      O91495   8.956   2.251   1.667
30418WAT     H191496   9.011   2.178   1.627
30418WAT     H291497   8.873   2.213   1.707
30419WAT      O91498   9.020   8.063   7.330
30419WAT     H191499   8.931   8.088   7.368
30419WAT     H291500   9.088   8.130   7.358
30420WAT      O91501   2.026   9.812   1.185
30420WAT     H191502   1.938   9.776   1.216
30420WAT     H291503   2.035   9.908   1.213
30421WAT      O91504   3.848   5.322   4.105
30421WAT     H191505   3.824   5.233   4.068
30421WAT     H291506   3.826   5.325   4.202
30422WAT      O91507   5.046   0.058   2.313
30422WAT     H191508   5.015   0.012   2.230
30422WAT     H291509   5.117   0.002   2.357
30423WAT      O91510   8.969   8.506   1.871
30423WAT     H191511   8.872   8.487   1.886
30423WAT     H291512   9.016   8.510   1.959
30424WAT      O91513   4.459   3.669   1.556
30424WAT     H191514   4.374   3.665   1.503
30424WAT     H291515   4.504   3.756   1.539
30425WAT      O91516   5.547   8.507   2.843
30425WAT     H191517   5.584   8.414   2.839
30425WAT     H291518   5.476   8.510   2.914
30426WAT      O91519   1.030   3.014   3.882
30426WAT     H191520   1.115   3.063   3.899
30426WAT     H291521   0.979   3.007   3.968
30427WAT      O91522   0.766   8.072   4.557
30427WAT     H191523   0.783   8.154   4.611
30427WAT     H291524   0.847   8.051   4.502
30428WAT      O91525   9.619   9.477   0.456
30428WAT     H191526   9.653   9.532   0.379
30428WAT     H291527   9.620   9.380   0.431
30429WAT      O91528   8.277   0.751   5.018
30429WAT     H191529   8.348   0.820   5.009
30429WAT     H291530   8.188   0.795   5.022
30430WAT      O91531   8.430   0.679   7.536
30430WAT     H191532   8.517   0.721   7.510
30430WAT     H291533   8.377   0.659   7.454
30431WAT      O91534   5.803   4.861   1.942
30431WAT     H191535   5.725   4.890   1.996
30431WAT     H291536   5.801   4.761   1.932
30432WAT      O91537   8.909   0.144   1.530
30432WAT     H191538   9.002   0.155   1.566
30432WAT     H291539   8.857   0.086   1.592
30433WAT      O91540   8.893   9.699   3.768
30433WAT     H191541   8.851   9.627   3.823
30433WAT     H291542   8.935   9.767   3.828
30434WAT      O91543   4.272   2.840   1.114
30434WAT     H191544   4.190   2.794   1.149
30434WAT     H291545   4.259   2.864   1.018
30435WAT      O91546   7.657   5.140   9.655
30435WAT     H191547   7.577   5.125   9.713
30435WAT     H291548   7.710   5.217   9.689
30436WAT      O91549   0.364   4.344   4.004
30436WAT     H191550   0.383   4.247   3.991
30436WAT     H291551   0.398   4.374   4.093
30437WAT      O91552   5.580   8.722   2.415
30437WAT     H191553   5.577   8.628   2.450
30437WAT     H291554   5.492   8.746   2.376
30438WAT      O91555  -0.001   5.409   7.156
30438WAT     H191556  -0.024   5.459   7.239
30438WAT     H291557   0.076   5.348   7.175
30439WAT      O91558   2.462   3.321   5.709
30439WAT     H191559   2.540   3.352   5.654
30439WAT     H291560   2.426   3.398   5.762
30440WAT      O91561   7.701   2.727   3.081
30440WAT     H191562   7.706   2.661   3.006
30440WAT     H291563   7.724   2.681   3.167
30441WAT      O91564   9.767   0.577   8.246
30441WAT     H191565   9.837   0.642   8.275
30441WAT     H291566   9.763   0.575   8.146
30442WAT      O91567   6.500   7.194   9.541
30442WAT     H191568   6.590   7.219   9.505
30442WAT     H291569   6.493   7.094   9.543
30443WAT      O91570   4.496   9.474   2.056
30443WAT     H191571   4.401   9.445   2.043
30443WAT     H291572   4.517   9.475   2.154
30444WAT      O91573   7.242   7.418   9.619
30444WAT     H191574   7.221   7.507   9.660
30444WAT     H291575   7.321   7.377   9.667
30445WAT      O91576   0.869   4.094   0.505
30445WAT     H191577   0.781   4.053   0.479
30445WAT     H291578   0.853   4.181   0.551
30446WAT      O91579   1.196   0.622   8.307
30446WAT     H191580   1.281   0.572   8.291
30446WAT     H291581   1.189   0.697   8.242
30447WAT      O91582   3.415   4.428   1.469
30447WAT     H191583   3.466   4.371   1.405
30447WAT     H291584   3.326   4.451   1.429
30448WAT      O91585   9.153   7.113   8.873
30448WAT     H191586   9.164   7.103   8.775
30448WAT     H291587   9.156   7.022   8.916
30449WAT      O91588   0.625   6.059   3.733
30449WAT     H191589   0.584   6.021   3.815
30449WAT     H291590   0.672   5.986   3.682
30450WAT      O91591   7.405   8.027   2.738
30450WAT     H191592   7.391   7.936   2.779
30450WAT     H291593   7.472   8.020   2.665
30451WAT      O91594   2.192   8.091   1.305
30451WAT     H191595   2.188   8.182   1.346
30451WAT     H291596   2.261   8.036   1.353
30452WAT      O91597   3.381   5.385   4.460
30452WAT     H191598   3.398   5.483   4.466
30452WAT     H291599   3.434   5.346   4.385
30453WAT      O91600   5.859   0.893   7.211
30453WAT     H191601   5.886   0.810   7.259
30453WAT     H291602   5.807   0.953   7.273
30454WAT      O91603   4.593   5.031   5.583
30454WAT     H191604   4.547   5.045   5.670
30454WAT     H291605   4.680   5.081   5.584
30455WAT      O91606   6.352   1.021   5.493
30455WAT     H191607   6.287   0.946   5.506
30455WAT     H291608   6.302   1.104   5.466
30456WAT      O91609   5.108   6.510   6.163
30456WAT     H191610   5.139   6.567   6.087
30456WAT     H291611   5.009   6.497   6.157
30457WAT      O91612   7.458   5.449   5.969
30457WAT     H191613   7.366   5.445   5.930
30457WAT     H291614   7.462   5.520   6.039
30458WAT      O91615   5.273   6.382   4.299
30458WAT     H191616   5.325   6.455   4.345
30458WAT     H291617   5.335   6.313   4.264
30459WAT      O91618   6.381   4.756   6.896
30459WAT     H191619   6.283   4.771   6.887
30459WAT     H291620   6.414   4.795   6.982
30460WAT      O91621   4.590   5.460   5.905
30460WAT     H191622   4.545   5.469   5.817
30460WAT     H291623   4.623   5.366   5.917
30461WAT      O91624   4.599   9.331   7.827
30461WAT     H191625   4.541   9.264   7.873
30461WAT     H291626   4.665   9.283   7.769
30462WAT      O91627   0.383   8.228   2.280
30462WAT     H191628   0.405   8.326   2.274
30462WAT     H291629   0.457   8.175   2.239
30463WAT      O91630   1.999   2.757   2.853
30463WAT     H191631   2.033   2.665   2.834
30463WAT     H291632   1.996   2.771   2.952
30464WAT      O91633   5.592   1.705   0.252
30464WAT     H191634   5.502   1.724   0.291
30464WAT     H291635   5.581   1.667   0.161
30465WAT      O91636   4.096   7.162   7.779
30465WAT     H191637   4.074   7.098   7.706
30465WAT     H291638   4.140   7.243   7.740
30466WAT      O91639   5.125   1.185   0.554
30466WAT     H191640   5.077   1.236   0.483
30466WAT     H291641   5.067   1.176   0.634
30467WAT      O91642   0.077   8.381   5.324
30467WAT     H191643   0.127   8.364   5.408
30467WAT     H291644   0.105   8.314   5.255
30468WAT      O91645   1.730   5.352   4.297
30468WAT     H191646   1.698   5.426   4.237
30468WAT     H291647   1.811   5.310   4.257
30469WAT      O91648   7.883   8.300   2.558
30469WAT     H191649   7.864   8.323   2.653
30469WAT     H291650   7.903   8.202   2.551
30470WAT      O91651   2.667   4.130   9.494
30470WAT     H191652   2.751   4.150   9.443
30470WAT     H291653   2.643   4.034   9.481
30471WAT      O91654   9.603   8.502   2.399
30471WAT     H191655   9.519   8.539   2.439
30471WAT     H291656   9.580   8.437   2.327
30472WAT      O91657   0.493   0.994   5.405
30472WAT     H191658   0.557   0.919   5.423
30472WAT     H291659   0.405   0.974   5.449
30473WAT      O91660   8.854   8.164   1.405
30473WAT     H191661   8.854   8.239   1.472
30473WAT     H291662   8.947   8.146   1.375
30474WAT      O91663   1.159   2.844   3.292
30474WAT     H191664   1.228   2.783   3.331
30474WAT     H291665   1.134   2.914   3.359
30475WAT      O91666   7.402   4.573   8.299
30475WAT     H191667   7.493   4.583   8.257
30475WAT     H291668   7.332   4.598   8.233
30476WAT      O91669   5.333   8.038   8.396
30476WAT     H191670   5.333   7.941   8.373
30476WAT     H291671   5.401   8.085   8.340
30477WAT      O91672   6.025   6.782   9.261
30477WAT     H191673   6.017   6.881   9.274
30477WAT     H291674   6.067   6.763   9.173
30478WAT      O91675   6.558   9.180   5.025
30478WAT     H191676   6.536   9.200   5.121
30478WAT     H291677   6.653   9.207   5.007
30479WAT      O91678   0.092   5.963   6.156
30479WAT     H191679   0.051   5.981   6.246
30479WAT     H291680   0.046   6.017   6.087
30480WAT      O91681   0.398   0.945   6.407
30480WAT     H191682   0.342   0.968   6.487
30480WAT     H291683   0.459   0.869   6.430
30481WAT      O91684   1.259   5.340   5.779
30481WAT     H191685   1.329   5.393   5.826
30481WAT     H291686   1.294   5.311   5.689
30482WAT      O91687   5.166   8.745   2.592
30482WAT     H191688   5.172   8.715   2.687
30482WAT     H291689   5.164   8.845   2.588
30483WAT      O91690   3.148   0.928   2.125
30483WAT     H191691   3.051   0.950   2.132
30483WAT     H291692   3.178   0.881   2.209
30484WAT      O91693   5.615   4.016   3.353
30484WAT     H191694   5.527   4.027   3.399
30484WAT     H291695   5.622   4.082   3.278
30485WAT      O91696   4.468   7.022   0.662
30485WAT     H191697   4.540   7.071   0.711
30485WAT     H291698   4.508   6.968   0.588
30486WAT      O91699   3.531   6.807   5.341
30486WAT     H191700   3.585   6.787   5.260
30486WAT     H291701   3.568   6.888   5.387
30487WAT      O91702   4.433   7.051   6.290
30487WAT     H191703   4.501   7.089   6.228
30487WAT     H291704   4.350   7.106   6.287
30488WAT      O91705   3.956   2.378   2.759
30488WAT     H191706   3.954   2.477   2.770
30488WAT     H291707   3.924   2.354   2.668
30489WAT      O91708   1.322   2.923   0.567
30489WAT     H191709   1.323   3.004   0.624
30489WAT     H291710   1.305   2.949   0.472
30490WAT      O91711   5.676   5.747   5.091
30490WAT     H191712   5.590   5.789   5.120
30490WAT     H291713   5.707   5.790   5.007
30491WAT      O91714   6.655   2.000   3.259
30491WAT     H191715   6.615   1.921   3.305
30491WAT     H291716   6.662   1.982   3.161
30492WAT      O91717   8.853   9.501   4.520
30492WAT     H191718   8.917   9.487   4.444
30492WAT     H291719   8.903   9.534   4.599
30493WAT      O91720   5.667   2.529   9.304
30493WAT     H191721   5.664   2.440   9.258
30493WAT     H291722   5.755   2.538   9.351
30494WAT      O91723   1.795   9.730   7.138
30494WAT     H191724   1.714   9.751   7.084
30494WAT     H291725   1.821   9.634   7.124
30495WAT      O91726   3.436   0.021   4.268
30495WAT     H191727   3.382   0.075   4.204
30495WAT     H291728   3.440   0.069   4.356
30496WAT      O91729   1.277   8.820   5.091
30496WAT     H191730   1.244   8.751   5.155
30496WAT     H291731   1.324   8.776   5.016
30497WAT      O91732   9.478   5.614   9.718
30497WAT     H191733   9.498   5.577   9.627
30497WAT     H291734   9.501   5.711   9.721
30498WAT      O91735   4.569   1.599   3.809
30498WAT     H191736   4.577   1.697   3.826
30498WAT     H291737   4.473   1.572   3.814
30499WAT      O91738   1.888   7.326   1.089
30499WAT     H191739   1.827   7.265   1.038
30499WAT     H291740   1.874   7.420   1.059
30500WAT      O91741   2.931   8.420   9.683
30500WAT     H191742   2.917   8.374   9.771
30500WAT     H291743   2.917   8.353   9.609
30501WAT      O91744   5.334   7.664   7.858
30501WAT     H191745   5.433   7.663   7.874
30501WAT     H291746   5.302   7.759   7.855
30502WAT      O91747   8.517   5.233   8.346
30502WAT     H191748   8.567   5.301   8.293
30502WAT     H291749   8.499   5.152   8.289
30503WAT      O91750   5.226   2.545   4.345
30503WAT     H191751   5.152   2.607   4.370
30503WAT     H291752   5.229   2.535   4.245
30504WAT      O91753   7.851   6.048   4.205
30504WAT     H191754   7.835   5.950   4.206
30504WAT     H291755   7.803   6.090   4.282
30505WAT      O91756   9.148   7.342   4.659
30505WAT     H191757   9.110   7.432   4.635
30505WAT     H291758   9.121   7.318   4.752
30506WAT      O91759   9.761   8.614   0.437
30506WAT     H191760   9.854   8.593   0.407
30506WAT     H291761   9.743   8.569   0.524
30507WAT      O91762   6.240   3.260   0.145
30507WAT     H191763   6.263   3.165   0.126
30507WAT     H291764   6.295   3.294   0.222
30508WAT      O91765   5.942   8.189   5.068
30508WAT     H191766   5.862   8.246   5.050
30508WAT     H291767   6.020   8.222   5.016
30509WAT      O91768   4.324   5.693   3.452
30509WAT     H191769   4.383   5.649   3.384
30509WAT     H291770   4.273   5.622   3.502
30510WAT      O91771   8.208   4.065   5.776
30510WAT     H191772   8.247   4.010   5.850
30510WAT     H291773   8.157   4.142   5.816
30511WAT      O91774   1.518   7.335   8.630
30511WAT     H191775   1.465   7.408   8.672
30511WAT     H291776   1.520   7.256   8.691
30512WAT      O91777   8.728   1.242   9.741
30512WAT     H191778   8.802   1.270   9.680
30512WAT     H291779   8.692   1.154   9.713
30513WAT      O91780   0.907   2.820   3.253
30513WAT     H191781   1.004   2.832   3.274
30513WAT     H291782   0.857   2.904   3.275
30514WAT      O91783   4.446   9.815   9.541
30514WAT     H191784   4.534   9.823   9.587
30514WAT     H291785   4.454   9.753   9.464
30515WAT      O91786   5.535   7.897   7.664
30515WAT     H191787   5.509   7.901   7.567
30515WAT     H291788   5.581   7.982   7.690
30516WAT      O91789   1.882   0.145   9.483
30516WAT     H191790   1.785   0.117   9.480
30516WAT     H291791   1.903   0.198   9.401
30517WAT      O91792   1.300   4.584   3.190
30517WAT     H191793   1.395   4.614   3.191
30517WAT     H291794   1.240   4.661   3.207
30518WAT      O91795   1.953   0.630   4.803
30518WAT     H191796   2.051   0.639   4.818
30518WAT     H291797   1.936   0.558   4.737
30519WAT      O91798   8.183   7.516   2.090
30519WAT     H191799   8.262   7.458   2.070
30519WAT     H291800   8.103   7.459   2.107
30520WAT      O91801   1.117   7.099   5.155
30520WAT     H191802   1.021   7.075   5.170
30520WAT     H291803   1.134   7.112   5.058
30521WAT      O91804   7.978   7.429   1.858
30521WAT     H191805   8.073   7.420   1.828
30521WAT     H291806   7.973   7.423   1.958
30522WAT      O91807   3.640   0.325   5.457
30522WAT     H191808   3.680   0.236   5.436
30522WAT     H291809   3.595   0.361   5.375
30523WAT      O91810   9.583   3.090   8.051
30523WAT     H191811   9.609   2.995   8.031
30523WAT     H291812   9.648   3.130   8.115
30524WAT      O91813   4.475   9.747   5.057
30524WAT     H191814   4.475   9.834   5.108
30524WAT     H291815   4.474   9.671   5.121
30525WAT      O91816   0.238   2.838   3.630
30525WAT     H191817   0.260   2.772   3.558
30525WAT     H291818   0.239   2.792   3.719
30526WAT      O91819   3.205   9.839   0.130
30526WAT     H191820   3.182   9.748   0.096
30526WAT     H291821   3.294   9.866   0.094
30527WAT      O91822   7.183   0.185   9.464
30527WAT     H191823   7.207   0.191   9.367
30527WAT     H291824   7.184   0.090   9.494
30528WAT      O91825   0.188   8.835   7.155
30528WAT     H191826   0.115   8.902   7.147
30528WAT     H291827   0.259   8.855   7.088
30529WAT      O91828   0.073   2.726   0.452
30529WAT     H191829   0.019   2.805   0.483
30529WAT     H291830   0.105   2.674   0.531
30530WAT      O91831   8.570   5.876   6.349
30530WAT     H191832   8.504   5.950   6.356
30530WAT     H291833   8.555   5.825   6.264
30531WAT      O91834   3.816   1.439   6.894
30531WAT     H191835   3.809   1.410   6.989
30531WAT     H291836   3.760   1.378   6.837
30532WAT      O91837   4.215   1.459   5.237
30532WAT     H191838   4.216   1.359   5.240
30532WAT     H291839   4.179   1.495   5.323
30533WAT      O91840   1.776   1.842   8.441
30533WAT     H191841   1.834   1.868   8.519
30533WAT     H291842   1.681   1.865   8.461
30534WAT      O91843   1.202   3.046   3.474
30534WAT     H191844   1.223   3.125   3.531
30534WAT     H291845   1.171   2.971   3.532
30535WAT      O91846   7.201   2.692   8.676
30535WAT     H191847   7.222   2.594   8.679
30535WAT     H291848   7.126   2.712   8.738
30536WAT      O91849   2.960   6.241   2.870
30536WAT     H191850   3.036   6.305   2.861
30536WAT     H291851   2.878   6.290   2.900
30537WAT      O91852   5.100   5.389   2.384
30537WAT     H191853   5.069   5.340   2.465
30537WAT     H291854   5.040   5.467   2.367
30538WAT      O91855   2.945   2.719   7.751
30538WAT     H191856   2.902   2.649   7.693
30538WAT     H291857   2.877   2.753   7.817
30539WAT      O91858   6.694   0.527   1.250
30539WAT     H191859   6.742   0.602   1.204
30539WAT     H291860   6.611   0.561   1.292
30540WAT      O91861   8.443   8.015   5.534
30540WAT     H191862   8.396   7.945   5.480
30540WAT     H291863   8.388   8.038   5.614
30541WAT      O91864   0.031   4.637   6.641
30541WAT     H191865   0.113   4.659   6.693
30541WAT     H291866  -0.042   4.610   6.704
30542WAT      O91867   7.121   2.642   9.367
30542WAT     H191868   7.127   2.720   9.305
30542WAT     H291869   7.184   2.655   9.444
30543WAT      O91870   5.361   0.094   5.705
30543WAT     H191871   5.300   0.024   5.667
30543WAT     H291872   5.321   0.185   5.692
30544WAT      O91873   1.567   9.722   9.272
30544WAT     H191874   1.587   9.736   9.175
30544WAT     H291875   1.646   9.748   9.327
30545WAT      O91876   6.805   8.375   0.091
30545WAT     H191877   6.777   8.319   0.013
30545WAT     H291878   6.800   8.471   0.066
30546WAT      O91879   0.122   5.915   5.555
30546WAT     H191880   0.169   5.917   5.643
30546WAT     H291881   0.119   6.007   5.516
30547WAT      O91882   6.878   0.097   3.955
30547WAT     H191883   6.889   0.070   3.859
30547WAT     H291884   6.793   0.058   3.991
30548WAT      O91885   6.918   2.692   5.885
30548WAT     H191886   6.947   2.736   5.970
30548WAT     H291887   6.945   2.748   5.807
30549WAT      O91888   4.227   7.218   6.275
30549WAT     H191889   4.167   7.243   6.351
30549WAT     H291890   4.272   7.301   6.240
30550WAT      O91891   1.241   7.338   5.183
30550WAT     H191892   1.332   7.337   5.141
30550WAT     H291893   1.195   7.251   5.165
30551WAT      O91894   0.859   6.235   3.246
30551WAT     H191895   0.893   6.290   3.170
30551WAT     H291896   0.760   6.223   3.237
30552WAT      O91897   6.282   4.257   5.617
30552WAT     H191898   6.356   4.191   5.603
30552WAT     H291899   6.194   4.213   5.596
30553WAT      O91900   8.029   2.617   6.125
30553WAT     H191901   8.051   2.692   6.188
30553WAT     H291902   7.948   2.642   6.071
30554WAT      O91903   4.030   0.006   9.876
30554WAT     H191904   4.087  -0.027   9.800
30554WAT     H291905   3.945   0.044   9.839
30555WAT      O91906   0.135   5.052   1.502
30555WAT     H191907   0.055   5.108   1.524
30555WAT     H291908   0.215   5.111   1.491
30556WAT      O91909   8.024   4.691   3.548
30556WAT     H191910   7.928   4.672   3.568
30556WAT     H291911   8.047   4.784   3.576
30557WAT      O91912   0.203   0.957   4.499
30557WAT     H191913   0.128   0.920   4.443
30557WAT     H291914   0.273   0.887   4.510
30558WAT      O91915   5.489   5.066   2.756
30558WAT     H191916   5.506   5.052   2.659
30558WAT     H291917   5.566   5.032   2.809
30559WAT      O91918   2.576   1.260   5.882
30559WAT     H191919   2.488   1.295   5.849
30559WAT     H291920   2.585   1.280   5.980
30560WAT      O91921   0.371   1.818   5.804
30560WAT     H191922   0.409   1.742   5.752
30560WAT     H291923   0.445   1.874   5.840
30561WAT      O91924   4.054   7.618   2.911
30561WAT     H191925   3.971   7.674   2.913
30561WAT     H291926   4.085   7.600   3.005
30562WAT      O91927   0.185   4.740   0.199
30562WAT     H191928   0.264   4.693   0.160
30562WAT     H291929   0.217   4.819   0.252
30563WAT      O91930   2.362   6.770   5.868
30563WAT     H191931   2.438   6.741   5.926
30563WAT     H291932   2.371   6.868   5.849
30564WAT      O91933   0.362   3.748   4.447
30564WAT     H191934   0.315   3.691   4.514
30564WAT     H291935   0.432   3.693   4.400
30565WAT      O91936   8.283   8.682   9.225
30565WAT     H191937   8.329   8.771   9.221
30565WAT     H291938   8.314   8.631   9.305
30566WAT      O91939   7.495   1.009   2.696
30566WAT     H191940   7.476   1.096   2.651
30566WAT     H291941   7.505   1.023   2.795
30567WAT      O91942   9.631   7.908   7.105
30567WAT     H191943   9.624   7.973   7.029
30567WAT     H291944   9.585   7.823   7.080
30568WAT      O91945   2.330   2.623   6.422
30568WAT     H191946   2.317   2.675   6.339
30568WAT     H291947   2.250   2.632   6.481
30569WAT      O91948   5.789   2.911   0.774
30569WAT     H191949   5.872   2.950   0.814
30569WAT     H291950   5.808   2.817   0.744
30570WAT      O91951   0.938   3.851   5.818
30570WAT     H191952   0.886   3.828   5.899
30570WAT     H291953   0.973   3.944   5.827
30571WAT      O91954   8.727   5.871   3.691
30571WAT     H191955   8.799   5.930   3.655
30571WAT     H291956   8.639   5.917   3.683
30572WAT      O91957   9.153   0.662   2.323
30572WAT     H191958   9.072   0.605   2.334
30572WAT     H291959   9.178   0.666   2.226
30573WAT      O91960   5.374   7.193   3.112
30573WAT     H191961   5.292   7.247   3.131
30573WAT     H291962   5.430   7.187   3.194
30574WAT      O91963   5.626   2.435   6.000
30574WAT     H191964   5.615   2.535   6.003
30574WAT     H291965   5.631   2.400   6.093
30575WAT      O91966   6.466   2.911   2.917
30575WAT     H191967   6.514   2.872   2.996
30575WAT     H291968   6.395   2.848   2.887
30576WAT      O91969   8.587   9.666   7.659
30576WAT     H191970   8.665   9.604   7.669
30576WAT     H291971   8.502   9.615   7.666
30577WAT      O91972   1.173   9.666   2.532
30577WAT     H191973   1.198   9.630   2.622
30577WAT     H291974   1.252   9.714   2.493
30578WAT      O91975   8.217   1.200   2.671
30578WAT     H191976   8.281   1.146   2.617
30578WAT     H291977   8.223   1.172   2.767
30579WAT      O91978   5.542   5.059   9.180
30579WAT     H191979   5.483   4.990   9.137
30579WAT     H291980   5.506   5.081   9.271
30580WAT      O91981   9.473   9.490   1.705
30580WAT     H191982   9.446   9.427   1.632
30580WAT     H291983   9.528   9.441   1.772
30581WAT      O91984   7.799   2.020   2.542
30581WAT     H191985   7.811   2.113   2.508
30581WAT     H291986   7.851   1.957   2.485
30582WAT      O91987   6.881   2.469   2.237
30582WAT     H191988   6.862   2.376   2.207
30582WAT     H291989   6.800   2.526   2.222
30583WAT      O91990   1.599   7.366   2.158
30583WAT     H191991   1.580   7.270   2.140
30583WAT     H291992   1.695   7.385   2.138
30584WAT      O91993   3.800   3.206   8.617
30584WAT     H191994   3.715   3.256   8.635
30584WAT     H291995   3.878   3.259   8.651
30585WAT      O91996   8.169   0.816   4.503
30585WAT     H191997   8.105   0.849   4.434
30585WAT     H291998   8.232   0.751   4.461
30586WAT      O91999   4.918   7.622   2.006
30586WAT     H192000   4.886   7.694   2.068
30586WAT     H292001   4.885   7.640   1.913
30587WAT      O92002   7.539   3.393   1.663
30587WAT     H192003   7.610   3.323   1.666
30587WAT     H292004   7.553   3.450   1.582
30588WAT      O92005   2.948   2.773   8.194
30588WAT     H192006   2.903   2.731   8.273
30588WAT     H292007   3.020   2.835   8.226
30589WAT      O92008   6.020   3.705   3.972
30589WAT     H192009   6.032   3.732   4.068
30589WAT     H292010   6.106   3.668   3.937
30590WAT      O92011   0.832   2.769   9.827
30590WAT     H192012   0.930   2.753   9.820
30590WAT     H292013   0.797   2.729   9.912
30591WAT      O92014   2.303   8.831   1.571
30591WAT     H192015   2.366   8.869   1.639
30591WAT     H292016   2.343   8.749   1.530
30592WAT      O92017   4.698   3.824   0.714
30592WAT     H192018   4.617   3.766   0.726
30592WAT     H292019   4.694   3.901   0.778
30593WAT      O92020   2.740   3.267   3.783
30593WAT     H192021   2.699   3.302   3.868
30593WAT     H292022   2.839   3.276   3.789
30594WAT      O92023   6.862   8.823   1.608
30594WAT     H192024   6.803   8.902   1.590
30594WAT     H292025   6.883   8.777   1.522
30595WAT      O92026   7.869   8.690   7.521
30595WAT     H192027   7.788   8.726   7.568
30595WAT     H292028   7.939   8.666   7.588
30596WAT      O92029   4.842   8.748   7.173
30596WAT     H192030   4.853   8.682   7.098
30596WAT     H292031   4.820   8.838   7.134
30597WAT      O92032   9.319   4.769   6.913
30597WAT     H192033   9.331   4.697   6.982
30597WAT     H292034   9.369   4.851   6.940
30598WAT      O92035   0.538   1.813   1.345
30598WAT     H192036   0.485   1.844   1.424
30598WAT     H292037   0.634   1.804   1.371
30599WAT      O92038   6.427   7.135   1.931
30599WAT     H192039   6.517   7.094   1.916
30599WAT     H292040   6.429   7.231   1.905
30600WAT      O92041   5.358   1.244   5.102
30600WAT     H192042   5.292   1.319   5.096
30600WAT     H292043   5.312   1.162   5.135
30601WAT      O92044   1.376   2.317   9.177
30601WAT     H192045   1.295   2.263   9.198
30601WAT     H292046   1.435   2.267   9.113
30602WAT      O92047   5.949   1.202   8.311
30602WAT     H192048   6.041   1.177   8.283
30602WAT     H292049   5.883   1.171   8.242
30603WAT      O92050   8.831   5.530   4.895
30603WAT     H192051   8.869   5.528   4.803
30603WAT     H292052   8.902   5.505   4.961
30604WAT      O92053   1.493   4.401   4.568
30604WAT     H192054   1.512   4.483   4.514
30604WAT     H292055   1.539   4.407   4.656
30605WAT      O92056   0.133   7.622   9.510
30605WAT     H192057   0.080   7.559   9.565
30605WAT     H292058   0.209   7.658   9.564
30606WAT      O92059   7.282   7.688   9.163
30606WAT     H192060   7.365   7.744   9.169
30606WAT     H292061   7.273   7.634   9.247
30607WAT      O92062   3.194   4.549   6.282
30607WAT     H192063   3.201   4.625   6.346
30607WAT     H292064   3.261   4.559   6.210
30608WAT      O92065   5.898   2.648   6.411
30608WAT     H192066   5.891   2.607   6.501
30608WAT     H292067   5.825   2.613   6.352
30609WAT      O92068   7.292   6.472   1.083
30609WAT     H192069   7.247   6.545   1.032
30609WAT     H292070   7.336   6.409   1.018
30610WAT      O92071   4.537   9.353   2.661
30610WAT     H192072   4.474   9.281   2.631
30610WAT     H292073   4.485   9.433   2.691
30611WAT      O92074   0.511   7.745   4.420
30611WAT     H192075   0.529   7.656   4.378
30611WAT     H292076   0.423   7.780   4.388
30612WAT      O92077   1.650   7.806   7.644
30612WAT     H192078   1.737   7.786   7.599
30612WAT     H292079   1.660   7.890   7.698
30613WAT      O92080   8.247   0.922   4.211
30613WAT     H192081   8.183   0.949   4.139
30613WAT     H292082   8.268   1.001   4.269
30614WAT      O92083   4.931   7.419   1.615
30614WAT     H192084   4.852   7.371   1.577
30614WAT     H292085   4.901   7.505   1.656
30615WAT      O92086   0.594   4.690   0.201
30615WAT     H192087   0.595   4.605   0.253
30615WAT     H292088   0.648   4.679   0.117
30616WAT      O92089   4.709   2.515   4.485
30616WAT     H192090   4.674   2.604   4.458
30616WAT     H292091   4.674   2.445   4.422
30617WAT      O92092   8.305   0.309   7.319
30617WAT     H192093   8.392   0.339   7.280
30617WAT     H292094   8.318   0.222   7.366
30618WAT      O92095   2.795   5.367   3.110
30618WAT     H192096   2.798   5.267   3.118
30618WAT     H292097   2.849   5.395   3.031
30619WAT      O92098   6.167   7.132   1.556
30619WAT     H192099   6.148   7.034   1.547
30619WAT     H292100   6.158   7.175   1.466
30620WAT      O92101   8.597   6.965   8.584
30620WAT     H192102   8.676   6.918   8.624
30620WAT     H292103   8.526   6.899   8.561
30621WAT      O92104   8.488   9.195   0.552
30621WAT     H192105   8.403   9.200   0.499
30621WAT     H292106   8.519   9.100   0.557
30622WAT      O92107   1.757   2.342   6.853
30622WAT     H192108   1.820   2.356   6.929
30622WAT     H292109   1.733   2.245   6.847
30623WAT      O92110   3.829   5.163   2.244
30623WAT     H192111   3.788   5.081   2.286
30623WAT     H292112   3.780   5.244   2.275
30624WAT      O92113   0.479   4.786   9.236
30624WAT     H192114   0.427   4.767   9.153
30624WAT     H292115   0.531   4.871   9.223
30625WAT      O92116   6.304   7.851   8.806
30625WAT     H192117   6.269   7.908   8.880
30625WAT     H292118   6.287   7.897   8.718
30626WAT      O92119   0.452   5.737   8.231
30626WAT     H192120   0.480   5.680   8.153
30626WAT     H292121   0.352   5.735   8.239
30627WAT      O92122   8.556   8.843   8.261
30627WAT     H192123   8.647   8.882   8.269
30627WAT     H292124   8.493   8.893   8.320
30628WAT      O92125   1.247   5.336   6.810
30628WAT     H192126   1.156   5.338   6.768
30628WAT     H292127   1.242   5.377   6.901
30629WAT      O92128   1.257   8.068   7.155
30629WAT     H192129   1.172   8.016   7.149
30629WAT     H292130   1.240   8.156   7.197
30630WAT      O92131   2.758   9.264   6.931
30630WAT     H192132   2.801   9.218   6.854
30630WAT     H292133   2.776   9.362   6.926
30631WAT      O92134   7.649   4.382   9.725
30631WAT     H192135   7.644   4.386   9.625
30631WAT     H292136   7.728   4.327   9.752
30632WAT      O92137   5.390   1.453   4.542
30632WAT     H192138   5.357   1.366   4.577
30632WAT     H292139   5.334   1.528   4.577
30633WAT      O92140   3.576   8.907   7.450
30633WAT     H192141   3.478   8.922   7.432
30633WAT     H292142   3.602   8.817   7.414
30634WAT      O92143   9.057   1.275   1.043
30634WAT     H192144   8.973   1.310   1.001
30634WAT     H292145   9.085   1.337   1.116
30635WAT      O92146   7.851   1.419   2.985
30635WAT     H192147   7.853   1.413   2.885
30635WAT     H292148   7.846   1.515   3.012
30636WAT      O92149   0.898   1.628   4.524
30636WAT     H192150   0.948   1.715   4.523
30636WAT     H292151   0.909   1.583   4.435
30637WAT      O92152   2.437   8.682   1.395
30637WAT     H192153   2.476   8.614   1.458
30637WAT     H292154   2.395   8.635   1.317
30638WAT      O92155   3.586   4.919   7.158
30638WAT     H192156   3.620   4.982   7.088
30638WAT     H292157   3.521   4.855   7.117
30639WAT      O92158   7.094   3.216   2.085
30639WAT     H192159   7.003   3.257   2.071
30639WAT     H292160   7.162   3.267   2.032
30640WAT      O92161   3.338   0.808   3.795
30640WAT     H192162   3.321   0.748   3.717
30640WAT     H292163   3.300   0.899   3.777
30641WAT      O92164   8.628   2.309   1.249
30641WAT     H192165   8.568   2.381   1.213
30641WAT     H292166   8.579   2.221   1.247
30642WAT      O92167   0.517   3.210   0.501
30642WAT     H192168   0.435   3.159   0.527
30642WAT     H292169   0.568   3.159   0.433
30643WAT      O92170   8.933   5.650   7.374
30643WAT     H192171   8.954   5.692   7.285
30643WAT     H292172   8.973   5.706   7.446
30644WAT      O92173   4.467   6.036   3.192
30644WAT     H192174   4.493   5.995   3.105
30644WAT     H292175   4.549   6.057   3.245
30645WAT      O92176   6.017   8.487   6.417
30645WAT     H192177   6.003   8.408   6.357
30645WAT     H292178   6.093   8.541   6.383
30646WAT      O92179   6.570   8.655   1.985
30646WAT     H192180   6.533   8.734   2.035
30646WAT     H292181   6.657   8.627   2.027
30647WAT      O92182   3.768   8.861   1.183
30647WAT     H192183   3.687   8.856   1.124
30647WAT     H292184   3.824   8.940   1.156
30648WAT      O92185   3.799   6.991   4.778
30648WAT     H192186   3.819   7.009   4.682
30648WAT     H292187   3.866   6.926   4.815
30649WAT      O92188   2.659   7.699   6.707
30649WAT     H192189   2.746   7.749   6.703
30649WAT     H292190   2.583   7.762   6.693
30650WAT      O92191   4.467   6.920   2.993
30650WAT     H192192   4.475   6.991   2.923
30650WAT     H292193   4.535   6.849   2.976
30651WAT      O92194   1.486   9.384   7.166
30651WAT     H192195   1.511   9.369   7.070
30651WAT     H292196   1.503   9.301   7.218
30652WAT      O92197   4.931   3.432   2.194
30652WAT     H192198   4.837   3.397   2.197
30652WAT     H292199   4.977   3.410   2.280
30653WAT      O92200   7.175   3.447   8.779
30653WAT     H192201   7.162   3.526   8.839
30653WAT     H292202   7.255   3.395   8.808
30654WAT      O92203   8.157   4.378   1.869
30654WAT     H192204   8.113   4.294   1.901
30654WAT     H292205   8.126   4.455   1.925
30655WAT      O92206   3.759   1.277   9.074
30655WAT     H192207   3.780   1.231   9.161
30655WAT     H292208   3.758   1.210   9.000
30656WAT      O92209   2.854   6.458   4.245
30656WAT     H192210   2.803   6.374   4.227
30656WAT     H292211   2.950   6.444   4.222
30657WAT      O92212   9.651   6.728   7.407
30657WAT     H192213   9.572   6.678   7.371
30657WAT     H292214   9.627   6.825   7.417
30658WAT      O92215   2.285   3.663   5.146
30658WAT     H192216   2.188   3.686   5.142
30658WAT     H292217   2.304   3.614   5.231
30659WAT      O92218   2.241   8.942   0.175
30659WAT     H192219   2.187   8.965   0.094
30659WAT     H292220   2.263   9.025   0.226
30660WAT      O92221   7.205   5.836   2.799
30660WAT     H192222   7.156   5.914   2.760
30660WAT     H292223   7.188   5.754   2.745
30661WAT      O92224   7.905   8.083   4.773
30661WAT     H192225   7.869   8.020   4.703
30661WAT     H292226   7.968   8.033   4.832
30662WAT      O92227   6.451   0.395   6.309
30662WAT     H192228   6.447   0.481   6.359
30662WAT     H292229   6.463   0.319   6.373
30663WAT      O92230   7.680   2.048   5.462
30663WAT     H192231   7.724   1.958   5.456
30663WAT     H292232   7.584   2.037   5.486
30664WAT      O92233   6.744   2.769   9.212
30664WAT     H192234   6.649   2.746   9.232
30664WAT     H292235   6.803   2.733   9.285
30665WAT      O92236   1.995   1.339   4.620
30665WAT     H192237   1.945   1.302   4.542
30665WAT     H292238   1.980   1.438   4.625
30666WAT      O92239   4.085   7.986   9.113
30666WAT     H192240   4.175   8.013   9.147
30666WAT     H292241   4.086   7.983   9.013
30667WAT      O92242   2.574   1.198   2.930
30667WAT     H192243   2.481   1.175   2.902
30667WAT     H292244   2.610   1.125   2.989
30668WAT      O92245   0.308   7.001   8.222
30668WAT     H192246   0.389   7.042   8.180
30668WAT     H292247   0.304   6.904   8.199
30669WAT      O92248   5.340   5.670   8.824
30669WAT     H192249   5.347   5.768   8.806
30669WAT     H292250   5.377   5.619   8.746
30670WAT      O92251   2.965   3.260   4.944
30670WAT     H192252   2.963   3.183   4.879
30670WAT     H292253   2.935   3.343   4.898
30671WAT      O92254   1.075   8.626   1.177
30671WAT     H192255   1.074   8.581   1.088
30671WAT     H292256   1.154   8.594   1.229
30672WAT      O92257   9.837   2.883   2.806
30672WAT     H192258   9.763   2.872   2.872
30672WAT     H292259   9.825   2.969   2.757
30673WAT      O92260   5.671   3.206   7.295
30673WAT     H192261   5.616   3.173   7.219
30673WAT     H292262   5.768   3.201   7.271
30674WAT      O92263   8.928   6.737   5.368
30674WAT     H192264   9.020   6.771   5.386
30674WAT     H292265   8.918   6.646   5.409
30675WAT      O92266   4.645   5.935   2.990
30675WAT     H192267   4.688   5.862   2.938
30675WAT     H292268   4.690   6.022   2.970
30676WAT      O92269   9.374   6.475   4.001
30676WAT     H192270   9.372   6.387   4.048
30676WAT     H292271   9.283   6.496   3.964
30677WAT      O92272   5.281   0.827   0.057
30677WAT     H192273   5.318   0.786  -0.026
30677WAT     H292274   5.275   0.926   0.045
30678WAT      O92275   8.768   6.501   9.116
30678WAT     H192276   8.836   6.428   9.125
30678WAT     H292277   8.724   6.496   9.026
30679WAT      O92278   2.786   3.418   2.289
30679WAT     H192279   2.726   3.438   2.211
30679WAT     H292280   2.744   3.451   2.373
30680WAT      O92281   7.855   5.689   2.658
30680WAT     H192282   7.769   5.740   2.662
30680WAT     H292283   7.926   5.745   2.616
30681WAT      O92284   4.518   6.374   2.975
30681WAT     H192285   4.515   6.447   3.043
30681WAT     H292286   4.454   6.394   2.901
30682WAT      O92287   5.939   8.561   1.182
30682WAT     H192288   5.880   8.625   1.134
30682WAT     H292289   6.020   8.609   1.216
30683WAT      O92290   7.546   9.676   4.707
30683WAT     H192291   7.592   9.614   4.770
30683WAT     H292292   7.491   9.742   4.759
30684WAT      O92293   4.872   8.945   8.061
30684WAT     H192294   4.920   9.032   8.072
30684WAT     H292295   4.774   8.958   8.076
30685WAT      O92296   4.191   7.459   0.880
30685WAT     H192297   4.234   7.524   0.944
30685WAT     H292298   4.249   7.447   0.800
30686WAT      O92299   2.414   5.447   7.986
30686WAT     H192300   2.399   5.348   7.986
30686WAT     H292301   2.326   5.494   7.998
30687WAT      O92302   7.095   9.260   2.474
30687WAT     H192303   7.051   9.349   2.488
30687WAT     H292304   7.039   9.189   2.516
30688WAT      O92305   8.535   8.842   0.011
30688WAT     H192306   8.483   8.917   0.051
30688WAT     H292307   8.612   8.819   0.071
30689WAT      O92308   3.659   0.788   3.268
30689WAT     H192309   3.618   0.697   3.273
30689WAT     H292310   3.588   0.857   3.260
30690WAT      O92311   4.923   4.230   2.998
30690WAT     H192312   4.895   4.316   3.041
30690WAT     H292313   4.991   4.185   3.055
30691WAT      O92314   9.269   7.371   3.981
30691WAT     H192315   9.278   7.371   3.882
30691WAT     H292316   9.248   7.279   4.013
30692WAT      O92317   6.529   9.022   9.582
30692WAT     H192318   6.599   9.065   9.525
30692WAT     H292319   6.480   9.093   9.632
30693WAT      O92320   2.358   9.409   7.445
30693WAT     H192321   2.308   9.422   7.359
30693WAT     H292322   2.456   9.420   7.428
30694WAT      O92323   4.888   6.867   4.044
30694WAT     H192324   4.820   6.805   4.004
30694WAT     H292325   4.884   6.955   3.997
30695WAT      O92326   3.428   2.387   7.425
30695WAT     H192327   3.350   2.344   7.471
30695WAT     H292328   3.447   2.476   7.466
30696WAT      O92329   7.646   6.148   2.225
30696WAT     H192330   7.549   6.140   2.245
30696WAT     H292331   7.660   6.142   2.126
30697WAT      O92332   3.905   9.596   0.646
30697WAT     H192333   3.962   9.642   0.578
30697WAT     H292334   3.865   9.664   0.708
30698WAT      O92335   0.438   7.344   4.960
30698WAT     H192336   0.535   7.325   4.973
30698WAT     H292337   0.402   7.286   4.887
30699WAT      O92338   7.906   4.559   5.726
30699WAT     H192339   7.961   4.598   5.652
30699WAT     H292340   7.966   4.514   5.792
30700WAT      O92341   8.915   2.353   3.751
30700WAT     H192342   8.843   2.374   3.685
30700WAT     H292343   8.964   2.271   3.722
30701WAT      O92344   8.461   6.895   2.833
30701WAT     H192345   8.518   6.976   2.817
30701WAT     H292346   8.502   6.838   2.904
30702WAT      O92347   8.326   2.742   5.734
30702WAT     H192348   8.416   2.787   5.730
30702WAT     H292349   8.323   2.684   5.816
30703WAT      O92350   5.584   7.979   2.978
30703WAT     H192351   5.501   7.929   3.000
30703WAT     H292352   5.568   8.037   2.898
30704WAT      O92353   5.158   4.518   2.265
30704WAT     H192354   5.170   4.523   2.166
30704WAT     H292355   5.152   4.611   2.302
30705WAT      O92356   8.931   7.368   0.532
30705WAT     H192357   8.913   7.459   0.494
30705WAT     H292358   8.882   7.299   0.481
30706WAT      O92359   0.344   4.787   0.635
30706WAT     H192360   0.391   4.871   0.663
30706WAT     H292361   0.408   4.727   0.586
30707WAT      O92362   0.220   7.033   9.151
30707WAT     H192363   0.192   6.976   9.074
30707WAT     H292364   0.213   6.980   9.236
30708WAT      O92365   2.554   6.639   7.918
30708WAT     H192366   2.541   6.582   7.999
30708WAT     H292367   2.606   6.588   7.849
30709WAT      O92368   0.710   2.947   2.670
30709WAT     H192369   0.624   2.970   2.623
30709WAT     H292370   0.697   2.957   2.768
30710WAT      O92371   8.952   1.042   3.196
30710WAT     H192372   8.935   1.137   3.168
30710WAT     H292373   8.868   0.989   3.183
30711WAT      O92374   8.735   2.126   4.341
30711WAT     H192375   8.766   2.186   4.415
30711WAT     H292376   8.677   2.177   4.278
30712WAT      O92377   8.813   3.732   8.936
30712WAT     H192378   8.720   3.742   8.973
30712WAT     H292379   8.852   3.646   8.969
30713WAT      O92380   2.169   1.766   9.447
30713WAT     H192381   2.242   1.717   9.494
30713WAT     H292382   2.188   1.864   9.448
30714WAT      O92383   6.838   2.139   5.865
30714WAT     H192384   6.819   2.043   5.846
30714WAT     H292385   6.794   2.165   5.951
30715WAT      O92386   9.346   0.171   2.604
30715WAT     H192387   9.342   0.252   2.545
30715WAT     H292388   9.438   0.133   2.602
30716WAT      O92389   5.933   6.249   7.994
30716WAT     H192390   5.949   6.303   7.911
30716WAT     H292391   5.851   6.193   7.982
30717WAT      O92392   0.603   7.549   5.671
30717WAT     H192393   0.551   7.544   5.757
30717WAT     H292394   0.688   7.497   5.681
30718WAT      O92395   9.316   0.890   7.193
30718WAT     H192396   9.336   0.797   7.225
30718WAT     H292397   9.251   0.934   7.255
30719WAT      O92398   1.115   6.588   5.070
30719WAT     H192399   1.035   6.561   5.123
30719WAT     H292400   1.198   6.561   5.118
30720WAT      O92401   3.103   7.807   5.285
30720WAT     H192402   3.046   7.887   5.301
30720WAT     H292403   3.186   7.834   5.237
30721WAT      O92404   3.070   7.936   2.534
30721WAT     H192405   3.105   7.862   2.477
30721WAT     H292406   3.043   8.013   2.477
30722WAT      O92407   5.410   0.755   1.953
30722WAT     H192408   5.441   0.662   1.933
30722WAT     H292409   5.486   0.808   1.991
30723WAT      O92410   9.282   0.777   5.390
30723WAT     H192411   9.190   0.755   5.420
30723WAT     H292412   9.341   0.697   5.401
30724WAT      O92413   5.903   0.234   2.310
30724WAT     H192414   5.987   0.196   2.271
30724WAT     H292415   5.839   0.159   2.329
30725WAT      O92416   8.281   3.441   2.843
30725WAT     H192417   8.182   3.428   2.841
30725WAT     H292418   8.317   3.408   2.931
30726WAT      O92419   0.099   3.210   0.387
30726WAT     H192420   0.144   3.209   0.297
30726WAT     H292421   0.001   3.192   0.375
30727WAT      O92422   1.043   1.124   3.165
30727WAT     H192423   0.951   1.090   3.185
30727WAT     H292424   1.110   1.064   3.207
30728WAT      O92425   2.275   9.418   9.463
30728WAT     H192426   2.302   9.515   9.471
30728WAT     H292427   2.302   9.370   9.546
30729WAT      O92428   9.308   7.326   8.895
30729WAT     H192429   9.407   7.323   8.882
30729WAT     H292430   9.271   7.232   8.893
30730WAT      O92431   2.092   6.679   9.246
30730WAT     H192432   2.138   6.642   9.327
30730WAT     H292433   1.995   6.656   9.249
30731WAT      O92434   6.217   6.732   1.778
30731WAT     H192435   6.282   6.683   1.720
30731WAT     H292436   6.135   6.754   1.725
30732WAT      O92437   7.952   2.358   5.752
30732WAT     H192438   8.001   2.342   5.837
30732WAT     H292439   7.958   2.455   5.727
30733WAT      O92440   8.181   8.201   9.617
30733WAT     H192441   8.107   8.264   9.593
30733WAT     H292442   8.143   8.111   9.639
30734WAT      O92443   1.488   0.011   5.948
30734WAT     H192444   1.477  -0.058   6.020
30734WAT     H292445   1.445  -0.021   5.864
30735WAT      O92446   3.670   5.553   0.410
30735WAT     H192447   3.703   5.627   0.352
30735WAT     H292448   3.581   5.522   0.378
30736WAT      O92449   7.484   2.808   3.717
30736WAT     H192450   7.440   2.873   3.656
30736WAT     H292451   7.543   2.747   3.664
30737WAT      O92452   4.348   7.736   2.098
30737WAT     H192453   4.351   7.831   2.067
30737WAT     H292454   4.441   7.703   2.113
30738WAT      O92455   9.533   4.735   4.375
30738WAT     H192456   9.630   4.742   4.397
30738WAT     H292457   9.508   4.806   4.309
30739WAT      O92458   2.246   3.967   1.505
30739WAT     H192459   2.246   4.004   1.598
30739WAT     H292460   2.198   3.879   1.504
30740WAT      O92461   1.279   6.802   8.673
30740WAT     H192462   1.183   6.776   8.673
30740WAT     H292463   1.329   6.743   8.737
30741WAT      O92464   9.284   9.782   2.451
30741WAT     H192465   9.313   9.869   2.490
30741WAT     H292466   9.187   9.766   2.474
30742WAT      O92467   1.198   2.751   4.341
30742WAT     H192468   1.172   2.829   4.284
30742WAT     H292469   1.190   2.776   4.438
30743WAT      O92470   2.076   3.837   0.212
30743WAT     H192471   2.089   3.773   0.137
30743WAT     H292472   2.102   3.795   0.298
30744WAT      O92473   1.894   7.850   1.916
30744WAT     H192474   1.808   7.864   1.868
30744WAT     H292475   1.951   7.932   1.908
30745WAT      O92476   1.875   2.561   5.906
30745WAT     H192477   1.784   2.526   5.929
30745WAT     H292478   1.927   2.491   5.858
30746WAT      O92479   9.417   7.135   6.626
30746WAT     H192480   9.364   7.135   6.541
30746WAT     H292481   9.514   7.145   6.604
30747WAT      O92482   5.409   3.856   7.628
30747WAT     H192483   5.404   3.799   7.710
30747WAT     H292484   5.338   3.926   7.632
30748WAT      O92485   7.689   1.388   5.969
30748WAT     H192486   7.701   1.457   5.898
30748WAT     H292487   7.758   1.402   6.040
30749WAT      O92488   3.414   1.083   2.989
30749WAT     H192489   3.484   1.140   3.031
30749WAT     H292490   3.457   1.005   2.943
30750WAT      O92491   0.748   6.382   4.927
30750WAT     H192492   0.665   6.424   4.963
30750WAT     H292493   0.740   6.371   4.828
30751WAT      O92494   9.739   3.142   5.503
30751WAT     H192495   9.757   3.094   5.416
30751WAT     H292496   9.690   3.081   5.564
30752WAT      O92497   6.450   7.455   1.479
30752WAT     H192498   6.490   7.547   1.476
30752WAT     H292499   6.399   7.438   1.395
30753WAT      O92500   2.750   0.974   1.886
30753WAT     H192501   2.766   0.973   1.787
30753WAT     H292502   2.812   1.041   1.929
30754WAT      O92503   0.313   8.482   2.861
30754WAT     H192504   0.348   8.569   2.896
30754WAT     H292505   0.265   8.497   2.775
30755WAT      O92506   5.347   9.188   4.908
30755WAT     H192507   5.378   9.111   4.852
30755WAT     H292508   5.416   9.208   4.978
30756WAT      O92509   0.729   8.914   9.322
30756WAT     H192510   0.809   8.861   9.352
30756WAT     H292511   0.683   8.866   9.247
30757WAT      O92512   6.770   1.143   9.643
30757WAT     H192513   6.764   1.145   9.543
30757WAT     H292514   6.839   1.077   9.672
30758WAT      O92515   5.502   5.089   6.878
30758WAT     H192516   5.601   5.074   6.868
30758WAT     H292517   5.471   5.150   6.805
30759WAT      O92518   5.276   9.073   9.687
30759WAT     H192519   5.193   9.103   9.733
30759WAT     H292520   5.278   8.973   9.684
30760WAT      O92521   0.832   3.452   3.823
30760WAT     H192522   0.847   3.353   3.819
30760WAT     H292523   0.910   3.496   3.867
30761WAT      O92524   2.162   0.697   5.885
30761WAT     H192525   2.099   0.748   5.827
30761WAT     H292526   2.125   0.692   5.978
30762WAT      O92527   7.946   3.562   6.189
30762WAT     H192528   7.884   3.568   6.268
30762WAT     H292529   7.988   3.471   6.188
30763WAT      O92530   1.569   6.576   0.889
30763WAT     H192531   1.506   6.606   0.962
30763WAT     H292532   1.561   6.477   0.877
30764WAT      O92533   2.616   7.491   8.257
30764WAT     H192534   2.532   7.451   8.219
30764WAT     H292535   2.594   7.544   8.339
30765WAT      O92536   8.153   3.890   3.670
30765WAT     H192537   8.102   3.861   3.751
30765WAT     H292538   8.178   3.810   3.616
30766WAT      O92539   2.975   8.600   0.972
30766WAT     H192540   2.884   8.583   0.936
30766WAT     H292541   3.041   8.542   0.925
30767WAT      O92542   8.199   1.286   5.178
30767WAT     H192543   8.156   1.319   5.095
30767WAT     H292544   8.269   1.350   5.208
30768WAT      O92545   2.222   6.089   1.751
30768WAT     H192546   2.193   6.001   1.714
30768WAT     H292547   2.157   6.118   1.822
30769WAT      O92548   5.884   2.146   0.647
30769WAT     H192549   5.786   2.150   0.666
30769WAT     H292550   5.934   2.196   0.717
30770WAT      O92551   0.519   6.752   0.354
30770WAT     H192552   0.561   6.823   0.411
30770WAT     H292553   0.438   6.717   0.400
30771WAT      O92554   0.366   7.493   8.502
30771WAT     H192555   0.368   7.563   8.431
30771WAT     H292556   0.345   7.537   8.590
30772WAT      O92557   6.069   1.841   2.700
30772WAT     H192558   6.052   1.936   2.675
30772WAT     H292559   6.088   1.836   2.798
30773WAT      O92560   8.686   6.204   0.510
30773WAT     H192561   8.609   6.192   0.571
30773WAT     H292562   8.763   6.150   0.542
30774WAT      O92563   4.419   3.867   6.533
30774WAT     H192564   4.509   3.841   6.498
30774WAT     H292565   4.350   3.806   6.495
30775WAT      O92566   9.442   8.912   0.202
30775WAT     H192567   9.352   8.942   0.169
30775WAT     H292568   9.436   8.893   0.300
30776WAT      O92569   6.281   3.376   3.991
30776WAT     H192570   6.327   3.387   4.079
30776WAT     H292571   6.184   3.359   4.006
30777WAT      O92572   1.300   0.039   8.116
30777WAT     H192573   1.260  -0.018   8.188
30777WAT     H292574   1.337   0.123   8.156
30778WAT      O92575   9.117   7.146   5.231
30778WAT     H192576   9.027   7.105   5.242
30778WAT     H292577   9.163   7.105   5.152
30779WAT      O92578   7.868   8.217   0.351
30779WAT     H192579   7.918   8.133   0.330
30779WAT     H292580   7.781   8.193   0.394
30780WAT      O92581   9.492   3.154   1.779
30780WAT     H192582   9.502   3.169   1.877
30780WAT     H292583   9.537   3.229   1.730
30781WAT      O92584   5.730   9.674   3.492
30781WAT     H192585   5.675   9.592   3.476
30781WAT     H292586   5.715   9.739   3.418
30782WAT      O92587   6.020   9.283   4.924
30782WAT     H192588   6.118   9.263   4.927
30782WAT     H292589   5.969   9.198   4.907
30783WAT      O92590   9.287   9.408   3.338
30783WAT     H192591   9.323   9.421   3.430
30783WAT     H292592   9.282   9.310   3.318
30784WAT      O92593   8.895   9.830   4.576
30784WAT     H192594   8.877   9.789   4.666
30784WAT     H292595   8.848   9.918   4.570
30785WAT      O92596   2.764   8.256   4.343
30785WAT     H192597   2.768   8.296   4.434
30785WAT     H292598   2.668   8.250   4.313
30786WAT      O92599   5.712   2.205   4.231
30786WAT     H192600   5.644   2.132   4.219
30786WAT     H292601   5.692   2.279   4.167
30787WAT      O92602   0.240   6.794   6.882
30787WAT     H192603   0.158   6.737   6.895
30787WAT     H292604   0.306   6.744   6.825
30788WAT      O92605   3.575   6.532   9.258
30788WAT     H192606   3.570   6.432   9.259
30788WAT     H292607   3.549   6.567   9.347
30789WAT      O92608   6.385   4.144   2.121
30789WAT     H192609   6.412   4.083   2.046
30789WAT     H292610   6.435   4.120   2.204
30790WAT      O92611   5.009   6.299   4.386
30790WAT     H192612   5.100   6.312   4.347
30790WAT     H292613   4.990   6.373   4.450
30791WAT      O92614   2.017   4.722   4.611
30791WAT     H192615   1.919   4.732   4.597
30791WAT     H292616   2.052   4.802   4.661
30792WAT      O92617   8.653   6.375   0.915
30792WAT     H192618   8.729   6.403   0.975
30792WAT     H292619   8.666   6.281   0.886
30793WAT      O92620   7.476   9.727   3.547
30793WAT     H192621   7.547   9.766   3.607
30793WAT     H292622   7.464   9.786   3.467
30794WAT      O92623   6.877   4.580   2.328
30794WAT     H192624   6.946   4.577   2.400
30794WAT     H292625   6.922   4.577   2.238
30795WAT      O92626   6.483   0.907   8.534
30795WAT     H192627   6.457   0.875   8.625
30795WAT     H292628   6.450   0.844   8.465
30796WAT      O92629   6.040   1.587   5.551
30796WAT     H192630   5.966   1.542   5.600
30796WAT     H292631   6.065   1.672   5.598
30797WAT      O92632   0.156   2.111   0.331
30797WAT     H192633   0.157   2.210   0.345
30797WAT     H292634   0.094   2.089   0.256
30798WAT      O92635   5.898   4.568   2.592
30798WAT     H192636   5.883   4.657   2.549
30798WAT     H292637   5.819   4.545   2.649
30799WAT      O92638   7.477   8.977   9.878
30799WAT     H192639   7.517   8.944   9.792
30799WAT     H292640   7.413   9.051   9.858
30800WAT      O92641   3.594   9.592   6.511
30800WAT     H192642   3.689   9.572   6.486
30800WAT     H292643   3.564   9.676   6.465
30801WAT      O92644   4.986   0.184   5.920
30801WAT     H192645   5.032   0.221   6.001
30801WAT     H292646   4.909   0.243   5.896
30802WAT      O92647   0.338   8.632   0.671
30802WAT     H192648   0.401   8.692   0.721
30802WAT     H292649   0.315   8.675   0.584
30803WAT      O92650   1.796   7.125   1.930
30803WAT     H192651   1.880   7.131   1.984
30803WAT     H292652   1.717   7.137   1.990
30804WAT      O92653   7.067   1.143   4.458
30804WAT     H192654   6.974   1.106   4.468
30804WAT     H292655   7.069   1.210   4.384
30805WAT      O92656   8.542   0.358   7.196
30805WAT     H192657   8.525   0.296   7.119
30805WAT     H292658   8.625   0.412   7.178
30806WAT      O92659   2.498   9.204   1.001
30806WAT     H192660   2.571   9.263   0.968
30806WAT     H292661   2.423   9.260   1.038
30807WAT      O92662   3.323   9.339   5.482
30807WAT     H192663   3.258   9.269   5.455
30807WAT     H292664   3.372   9.310   5.565
30808WAT      O92665   4.433   8.280   4.459
30808WAT     H192666   4.491   8.207   4.494
30808WAT     H292667   4.460   8.368   4.498
30809WAT      O92668   4.665   9.261   1.468
30809WAT     H192669   4.637   9.235   1.376
30809WAT     H292670   4.618   9.205   1.535
30810WAT      O92671   7.373   0.501   5.821
30810WAT     H192672   7.382   0.600   5.827
30810WAT     H292673   7.420   0.468   5.739
30811WAT      O92674   5.467   9.169   9.021
30811WAT     H192675   5.426   9.174   8.929
30811WAT     H292676   5.418   9.100   9.074
30812WAT      O92677   8.807   0.255   8.956
30812WAT     H192678   8.838   0.350   8.962
30812WAT     H292679   8.813   0.212   9.046
30813WAT      O92680   6.750   2.893   5.452
30813WAT     H192681   6.752   2.808   5.505
30813WAT     H292682   6.817   2.887   5.378
30814WAT      O92683   4.316   4.801   8.604
30814WAT     H192684   4.385   4.732   8.625
30814WAT     H292685   4.283   4.842   8.690
30815WAT      O92686   1.056   4.528   5.045
30815WAT     H192687   1.101   4.605   5.091
30815WAT     H292688   0.968   4.559   5.008
30816WAT      O92689   2.431   9.552   5.812
30816WAT     H192690   2.515   9.603   5.793
30816WAT     H292691   2.356   9.593   5.761
30817WAT      O92692   9.407   8.028   3.453
30817WAT     H192693   9.445   8.100   3.395
30817WAT     H292694   9.308   8.026   3.444
30818WAT      O92695   3.319   2.882   1.206
30818WAT     H192696   3.239   2.943   1.212
30818WAT     H292697   3.380   2.915   1.135
30819WAT      O92698   1.818   5.358   9.252
30819WAT     H192699   1.871   5.353   9.337
30819WAT     H292700   1.722   5.371   9.273
30820WAT      O92701   9.654   8.233   7.850
30820WAT     H192702   9.751   8.239   7.826
30820WAT     H292703   9.614   8.325   7.847
30821WAT      O92704   1.148   8.338   2.390
30821WAT     H192705   1.143   8.438   2.381
30821WAT     H292706   1.106   8.295   2.311
30822WAT      O92707   6.028   4.459   5.685
30822WAT     H192708   6.014   4.542   5.739
30822WAT     H292709   6.083   4.394   5.737
30823WAT      O92710   3.165   5.195   1.865
30823WAT     H192711   3.230   5.188   1.789
30823WAT     H292712   3.190   5.270   1.925
30824WAT      O92713   9.189   0.419   1.775
30824WAT     H192714   9.190   0.402   1.677
30824WAT     H292715   9.139   0.503   1.794
30825WAT      O92716   8.004   2.869   6.293
30825WAT     H192717   7.929   2.932   6.271
30825WAT     H292718   8.079   2.920   6.336
30826WAT      O92719   4.407   9.609   8.684
30826WAT     H192720   4.307   9.610   8.683
30826WAT     H292721   4.439   9.525   8.728
30827WAT      O92722   4.739   4.482   2.546
30827WAT     H192723   4.717   4.441   2.634
30827WAT     H292724   4.762   4.410   2.480
30828WAT      O92725   3.681   8.239   5.709
30828WAT     H192726   3.743   8.164   5.687
30828WAT     H292727   3.649   8.228   5.803
30829WAT      O92728   5.933   4.820   2.387
30829WAT     H192729   5.866   4.746   2.378
30829WAT     H292730   5.925   4.860   2.478
30830WAT      O92731   6.380   2.897   0.809
30830WAT     H192732   6.286   2.912   0.839
30830WAT     H292733   6.380   2.852   0.720
30831WAT      O92734   0.682   1.841   4.971
30831WAT     H192735   0.606   1.898   5.003
30831WAT     H292736   0.683   1.755   5.021
30832WAT      O92737   6.435   1.596   5.840
30832WAT     H192738   6.467   1.654   5.765
30832WAT     H292739   6.354   1.545   5.810
30833WAT      O92740   4.223   2.122   8.471
30833WAT     H192741   4.220   2.050   8.541
30833WAT     H292742   4.246   2.082   8.383
30834WAT      O92743   6.559   2.804   6.074
30834WAT     H192744   6.570   2.720   6.020
30834WAT     H292745   6.602   2.792   6.163
30835WAT      O92746   1.259   6.268   7.325
30835WAT     H192747   1.211   6.227   7.403
30835WAT     H292748   1.277   6.197   7.256
30836WAT      O92749   8.913   0.790   2.955
30836WAT     H192750   8.889   0.743   2.870
30836WAT     H292751   8.971   0.729   3.011
30837WAT      O92752   7.505   1.990   7.683
30837WAT     H192753   7.492   1.953   7.591
30837WAT     H292754   7.509   1.915   7.749
30838WAT      O92755   4.404   6.787   6.219
30838WAT     H192756   4.441   6.873   6.255
30838WAT     H292757   4.456   6.759   6.138
30839WAT      O92758   0.849   7.901   3.202
30839WAT     H192759   0.780   7.973   3.197
30839WAT     H292760   0.896   7.906   3.290
30840WAT      O92761   2.138   4.110   2.278
30840WAT     H192762   2.042   4.080   2.274
30840WAT     H292763   2.197   4.036   2.247
30841WAT      O92764   2.296   1.674   0.898
30841WAT     H192765   2.330   1.759   0.939
30841WAT     H292766   2.196   1.675   0.898
30842WAT      O92767   5.254   7.534   5.579
30842WAT     H192768   5.246   7.450   5.633
30842WAT     H292769   5.283   7.609   5.638
30843WAT      O92770   0.686   4.193   2.760
30843WAT     H192771   0.620   4.251   2.809
30843WAT     H292772   0.777   4.234   2.767
30844WAT      O92773   3.882   1.401   2.069
30844WAT     H192774   3.848   1.375   1.979
30844WAT     H292775   3.816   1.375   2.139
30845WAT      O92776   0.675   2.642   9.421
30845WAT     H192777   0.773   2.632   9.400
30845WAT     H292778   0.622   2.588   9.356
30846WAT      O92779   2.654   9.629   0.274
30846WAT     H192780   2.686   9.714   0.233
30846WAT     H292781   2.721   9.557   0.259
30847WAT      O92782   7.001   3.144   5.019
30847WAT     H192783   7.037   3.091   4.942
30847WAT     H292784   6.951   3.223   4.984
30848WAT      O92785   4.283   4.587   4.416
30848WAT     H192786   4.381   4.578   4.397
30848WAT     H292787   4.264   4.678   4.454
30849WAT      O92788   1.359   7.260   6.975
30849WAT     H192789   1.420   7.197   6.926
30849WAT     H292790   1.268   7.257   6.934
30850WAT      O92791   3.027   8.915   5.391
30850WAT     H192792   2.991   8.857   5.465
30850WAT     H292793   3.011   8.869   5.304
30851WAT      O92794   5.079   2.925   4.622
30851WAT     H192795   4.990   2.882   4.633
30851WAT     H292796   5.119   2.897   4.534
30852WAT      O92797   8.828   6.152   6.563
30852WAT     H192798   8.817   6.196   6.652
30852WAT     H292799   8.883   6.069   6.572
30853WAT      O92800   5.862   2.070   0.257
30853WAT     H192801   5.812   2.073   0.343
30853WAT     H292802   5.859   1.977   0.220
30854WAT      O92803   1.161   3.853   6.473
30854WAT     H192804   1.226   3.778   6.472
30854WAT     H292805   1.174   3.907   6.557
30855WAT      O92806   3.860   3.663   7.249
30855WAT     H192807   3.954   3.630   7.256
30855WAT     H292808   3.802   3.611   7.312
30856WAT      O92809   3.510   7.362   5.969
30856WAT     H192810   3.500   7.426   5.893
30856WAT     H292811   3.600   7.318   5.964
30857WAT      O92812   4.408   2.566   0.575
30857WAT     H192813   4.415   2.497   0.503
30857WAT     H292814   4.499   2.598   0.599
30858WAT      O92815   1.693   7.314   1.753
30858WAT     H192816   1.745   7.238   1.792
30858WAT     H292817   1.600   7.283   1.731
30859WAT      O92818   9.698   0.173   0.682
30859WAT     H192819   9.678   0.229   0.763
30859WAT     H292820   9.781   0.119   0.699
30860WAT      O92821   3.579   2.255   2.504
30860WAT     H192822   3.482   2.273   2.488
30860WAT     H292823   3.625   2.241   2.416
30861WAT      O92824   7.767   2.193   7.174
30861WAT     H192825   7.848   2.182   7.232
30861WAT     H292826   7.692   2.139   7.212
30862WAT      O92827   7.892   8.862   6.920
30862WAT     H192828   7.867   8.907   6.835
30862WAT     H292829   7.810   8.825   6.964
30863WAT      O92830   4.411   9.149   7.068
30863WAT     H192831   4.327   9.106   7.037
30863WAT     H292832   4.424   9.236   7.020
30864WAT      O92833   0.983   8.996   8.339
30864WAT     H192834   1.056   8.935   8.309
30864WAT     H292835   0.911   8.999   8.270
30865WAT      O92836   8.169   9.278   0.162
30865WAT     H192837   8.118   9.316   0.239
30865WAT     H292838   8.104   9.249   0.091
30866WAT      O92839   1.869   5.661   8.893
30866WAT     H192840   1.792   5.698   8.841
30866WAT     H292841   1.880   5.713   8.978
30867WAT      O92842   8.752   9.144   5.670
30867WAT     H192843   8.784   9.077   5.603
30867WAT     H292844   8.805   9.133   5.755
30868WAT      O92845   9.652   5.698   6.133
30868WAT     H192846   9.735   5.647   6.116
30868WAT     H292847   9.633   5.701   6.231
30869WAT      O92848   0.642   0.141   0.908
30869WAT     H192849   0.681   0.216   0.961
30869WAT     H292850   0.671   0.054   0.947
30870WAT      O92851   9.477   4.114   1.948
30870WAT     H192852   9.544   4.039   1.950
30870WAT     H292853   9.479   4.163   2.035
30871WAT      O92854   0.714   5.076   6.782
30871WAT     H192855   0.758   5.008   6.723
30871WAT     H292856   0.765   5.162   6.778
30872WAT      O92857   3.127   0.360   6.456
30872WAT     H192858   3.146   0.334   6.551
30872WAT     H292859   3.112   0.459   6.452
30873WAT      O92860   9.287   4.161   1.736
30873WAT     H192861   9.332   4.162   1.647
30873WAT     H292862   9.356   4.161   1.808
30874WAT      O92863   3.627   0.407   5.890
30874WAT     H192864   3.719   0.373   5.870
30874WAT     H292865   3.622   0.438   5.985
30875WAT      O92866   4.409   7.649   6.449
30875WAT     H192867   4.360   7.660   6.536
30875WAT     H292868   4.450   7.558   6.446
30876WAT      O92869   4.196   2.899   1.978
30876WAT     H192870   4.285   2.939   1.957
30876WAT     H292871   4.175   2.913   2.075
30877WAT      O92872   9.230   6.045   0.793
30877WAT     H192873   9.186   5.956   0.806
30877WAT     H292874   9.160   6.115   0.785
30878WAT      O92875   0.099   6.314   6.309
30878WAT     H192876   0.048   6.230   6.327
30878WAT     H292877   0.162   6.333   6.385
30879WAT      O92878   1.022   6.657   9.418
30879WAT     H192879   0.939   6.657   9.473
30879WAT     H292880   1.099   6.690   9.472
30880WAT      O92881   2.543   2.123   3.649
30880WAT     H192882   2.643   2.124   3.658
30880WAT     H292883   2.507   2.042   3.697
30881WAT      O92884   2.697   2.955   5.379
30881WAT     H192885   2.745   2.978   5.464
30881WAT     H292886   2.602   2.930   5.400
30882WAT      O92887   9.574   5.127   8.804
30882WAT     H192888   9.624   5.111   8.889
30882WAT     H292889   9.622   5.197   8.750
30883WAT      O92890   0.104   8.513   0.318
30883WAT     H192891   0.061   8.426   0.340
30883WAT     H292892   0.170   8.499   0.243
30884WAT      O92893   7.915   8.970   2.998
30884WAT     H192894   7.897   9.069   2.999
30884WAT     H292895   7.834   8.922   2.963
30885WAT      O92896   0.634   6.077   7.971
30885WAT     H192897   0.683   6.036   7.894
30885WAT     H292898   0.598   6.167   7.944
30886WAT      O92899   0.186   8.632   3.135
30886WAT     H192900   0.100   8.673   3.105
30886WAT     H292901   0.257   8.652   3.068
30887WAT      O92902   8.081   2.924   2.230
30887WAT     H192903   8.110   2.889   2.319
30887WAT     H292904   8.131   2.876   2.157
30888WAT      O92905   9.226   7.390   7.981
30888WAT     H192906   9.154   7.335   8.024
30888WAT     H292907   9.313   7.371   8.026
30889WAT      O92908   7.490   2.397   2.549
30889WAT     H192909   7.543   2.482   2.549
30889WAT     H292910   7.467   2.372   2.643
30890WAT      O92911   5.766   5.586   9.808
30890WAT     H192912   5.691   5.640   9.771
30890WAT     H292913   5.779   5.608   9.905
30891WAT      O92914   6.597   1.027   3.820
30891WAT     H192915   6.511   1.078   3.827
30891WAT     H292916   6.588   0.956   3.751
30892WAT      O92917   1.772   0.160   1.270
30892WAT     H192918   1.847   0.182   1.207
30892WAT     H292919   1.779   0.219   1.351
30893WAT      O92920   3.405   1.973   8.590
30893WAT     H192921   3.462   2.001   8.667
30893WAT     H292922   3.343   2.048   8.565
30894WAT      O92923   3.029   0.454   5.143
30894WAT     H192924   3.027   0.357   5.169
30894WAT     H292925   3.115   0.495   5.174
30895WAT      O92926   9.168   3.206   6.879
30895WAT     H192927   9.248   3.155   6.912
30895WAT     H292928   9.155   3.287   6.937
30896WAT      O92929   3.672   8.098   2.045
30896WAT     H192930   3.710   8.034   2.112
30896WAT     H292931   3.732   8.178   2.037
30897WAT      O92932   8.694   2.361   3.302
30897WAT     H192933   8.718   2.305   3.223
30897WAT     H292934   8.601   2.340   3.331
30898WAT      O92935   9.198   6.459   9.014
30898WAT     H192936   9.130   6.396   9.052
30898WAT     H292937   9.279   6.459   9.073
30899WAT      O92938   2.678   4.431   7.813
30899WAT     H192939   2.615   4.379   7.755
30899WAT     H292940   2.629   4.463   7.894
30900WAT      O92941   6.256   2.947   9.426
30900WAT     H192942   6.222   3.020   9.367
30900WAT     H292943   6.345   2.973   9.463
30901WAT      O92944   7.964   8.649   0.796
30901WAT     H192945   7.890   8.595   0.757
30901WAT     H292946   7.991   8.609   0.883
30902WAT      O92947   7.450   7.203   6.914
30902WAT     H192948   7.398   7.148   6.979
30902WAT     H292949   7.442   7.164   6.822
30903WAT      O92950   2.673   8.082   2.048
30903WAT     H192951   2.666   8.095   2.147
30903WAT     H292952   2.683   7.985   2.028
30904WAT      O92953   8.314   4.814   8.131
30904WAT     H192954   8.221   4.833   8.102
30904WAT     H292955   8.358   4.751   8.067
30905WAT      O92956   6.350   5.990   8.206
30905WAT     H192957   6.429   5.929   8.217
30905WAT     H292958   6.273   5.939   8.168
30906WAT      O92959   8.450   1.980   4.649
30906WAT     H192960   8.474   2.041   4.724
30906WAT     H292961   8.405   2.033   4.577
30907WAT      O92962   1.039   7.376   3.223
30907WAT     H192963   1.100   7.300   3.201
30907WAT     H292964   1.046   7.447   3.153
30908WAT      O92965   2.621   3.578   4.375
30908WAT     H192966   2.613   3.661   4.430
30908WAT     H292967   2.704   3.582   4.320
30909WAT      O92968   2.621   3.639   0.184
30909WAT     H192969   2.593   3.595   0.098
30909WAT     H292970   2.688   3.581   0.231
30910WAT      O92971   1.102   7.352   5.429
30910WAT     H192972   1.073   7.258   5.450
30910WAT     H292973   1.159   7.352   5.347
30911WAT      O92974   7.332   6.121   8.217
30911WAT     H192975   7.417   6.087   8.257
30911WAT     H292976   7.264   6.133   8.289
30912WAT      O92977   8.667   7.412   7.237
30912WAT     H192978   8.753   7.401   7.188
30912WAT     H292979   8.677   7.374   7.329
30913WAT      O92980   1.718   4.705   7.659
30913WAT     H192981   1.806   4.741   7.630
30913WAT     H292982   1.726   4.607   7.677
30914WAT      O92983   2.562   6.299   4.460
30914WAT     H192984   2.612   6.367   4.514
30914WAT     H292985   2.587   6.208   4.491
30915WAT      O92986   2.111   0.930   9.328
30915WAT     H192987   2.032   0.988   9.349
30915WAT     H292988   2.169   0.976   9.262
30916WAT      O92989   6.520   8.965   1.709
30916WAT     H192990   6.528   8.866   1.711
30916WAT     H292991   6.602   9.007   1.749
30917WAT      O92992   5.516   4.156   5.728
30917WAT     H192993   5.525   4.092   5.804
30917WAT     H292994   5.603   4.203   5.713
30918WAT      O92995   0.994   3.416   2.308
30918WAT     H192996   1.034   3.333   2.347
30918WAT     H292997   1.065   3.467   2.259
30919WAT      O92998   7.521   4.473   1.755
30919WAT     H192999   7.490   4.447   1.664
30919WAT     H293000   7.601   4.418   1.780
30920WAT      O93001   6.823   9.799   4.780
30920WAT     H193002   6.833   9.767   4.686
30920WAT     H293003   6.757   9.875   4.783
30921WAT      O93004   9.633   0.927   2.382
30921WAT     H193005   9.683   0.862   2.325
30921WAT     H293006   9.667   0.923   2.475
30922WAT      O93007   4.730   2.102   8.605
30922WAT     H193008   4.795   2.130   8.535
30922WAT     H293009   4.655   2.168   8.610
30923WAT      O93010   5.046   0.614   2.177
30923WAT     H193011   5.062   0.711   2.194
30923WAT     H293012   5.134   0.566   2.175
30924WAT      O93013   8.838   7.600   0.425
30924WAT     H193014   8.747   7.640   0.431
30924WAT     H293015   8.895   7.654   0.363
30925WAT      O93016   2.959   2.245   0.418
30925WAT     H193017   3.007   2.233   0.331
30925WAT     H293018   2.988   2.331   0.460
30926WAT      O93019   4.765   2.440   6.649
30926WAT     H193020   4.699   2.444   6.575
30926WAT     H293021   4.730   2.381   6.722
30927WAT      O93022   1.445   1.682   7.263
30927WAT     H193023   1.438   1.711   7.358
30927WAT     H293024   1.353   1.674   7.224
30928WAT      O93025   0.079   6.732   2.870
30928WAT     H193026   0.054   6.791   2.793
30928WAT     H293027   0.169   6.692   2.854
30929WAT      O93028   3.440   6.787   7.207
30929WAT     H193029   3.446   6.728   7.126
30929WAT     H293030   3.344   6.807   7.225
30930WAT      O93031   5.089   2.038   5.650
30930WAT     H193032   5.162   2.102   5.673
30930WAT     H293033   5.119   1.977   5.577
30931WAT      O93034   3.572   5.816   0.080
30931WAT     H193035   3.604   5.896   0.030
30931WAT     H293036   3.633   5.797   0.157
30932WAT      O93037   0.669   8.588   4.755
30932WAT     H193038   0.636   8.547   4.840
30932WAT     H293039   0.763   8.622   4.769
30933WAT      O93040   5.393   1.551   7.652
30933WAT     H193041   5.406   1.632   7.709
30933WAT     H293042   5.462   1.482   7.677
30934WAT      O93043   3.210   1.320   0.082
30934WAT     H193044   3.152   1.240   0.097
30934WAT     H293045   3.216   1.374   0.166
30935WAT      O93046   2.019   4.815   6.774
30935WAT     H193047   1.973   4.831   6.687
30935WAT     H293048   2.110   4.776   6.757
30936WAT      O93049   8.931   0.714   7.333
30936WAT     H193050   8.944   0.775   7.255
30936WAT     H293051   9.016   0.709   7.386
30937WAT      O93052   6.680   2.312   9.493
30937WAT     H193053   6.597   2.309   9.438
30937WAT     H293054   6.723   2.222   9.494
30938WAT      O93055   6.528   7.808   4.819
30938WAT     H193056   6.571   7.810   4.910
30938WAT     H293057   6.600   7.808   4.749
30939WAT      O93058   0.198   6.339   3.940
30939WAT     H193059   0.132   6.278   3.898
30939WAT     H293060   0.277   6.350   3.879
30940WAT      O93061   2.758   1.734   6.034
30940WAT     H193062   2.729   1.815   6.084
30940WAT     H293063   2.702   1.724   5.952
30941WAT      O93064   5.617   5.798   8.228
30941WAT     H193065   5.537   5.740   8.212
30941WAT     H293066   5.588   5.894   8.234
30942WAT      O93067   2.624   7.914   6.362
30942WAT     H193068   2.588   7.983   6.298
30942WAT     H293069   2.564   7.834   6.361
30943WAT      O93070   4.353   9.173   5.829
30943WAT     H193071   4.429   9.183   5.892
30943WAT     H293072   4.355   9.248   5.762
30944WAT      O93073   9.432   8.844   4.312
30944WAT     H193074   9.470   8.843   4.219
30944WAT     H293075   9.410   8.938   4.337
30945WAT      O93076   3.575   8.058   8.707
30945WAT     H193077   3.597   7.961   8.718
30945WAT     H293078   3.624   8.111   8.776
30946WAT      O93079   3.469   2.260   5.920
30946WAT     H193080   3.429   2.276   5.830
30946WAT     H293081   3.396   2.243   5.987
30947WAT      O93082   3.062   5.467   0.585
30947WAT     H193083   3.006   5.450   0.504
30947WAT     H293084   3.159   5.454   0.562
30948WAT      O93085   4.320   0.380   5.881
30948WAT     H193086   4.390   0.331   5.830
30948WAT     H293087   4.278   0.319   5.947
30949WAT      O93088   0.770   2.131   5.285
30949WAT     H193089   0.829   2.058   5.319
30949WAT     H293090   0.707   2.159   5.357
30950WAT      O93091   3.128   7.003   0.097
30950WAT     H193092   3.218   7.011   0.141
30950WAT     H293093   3.132   7.041   0.005
30951WAT      O93094   5.956   4.140   7.977
30951WAT     H193095   5.865   4.172   7.953
30951WAT     H293096   5.954   4.101   8.069
30952WAT      O93097   9.449   9.193   2.167
30952WAT     H193098   9.512   9.137   2.220
30952WAT     H293099   9.382   9.135   2.121
30953WAT      O93100   9.345   0.751   9.657
30953WAT     H193101   9.281   0.750   9.580
30953WAT     H293102   9.305   0.798   9.735
30954WAT      O93103   8.194   8.016   6.454
30954WAT     H193104   8.150   8.018   6.544
30954WAT     H293105   8.173   7.928   6.409
30955WAT      O93106   5.261   5.076   6.202
30955WAT     H193107   5.275   5.035   6.292
30955WAT     H293108   5.340   5.059   6.144
30956WAT      O93109   5.100   1.927   7.209
30956WAT     H193110   5.062   1.983   7.135
30956WAT     H293111   5.098   1.831   7.183
30957WAT      O93112   5.093   3.498   5.425
30957WAT     H193113   5.000   3.498   5.389
30957WAT     H293114   5.094   3.454   5.515
30958WAT      O93115   3.747   9.752   0.850
30958WAT     H193116   3.808   9.830   0.861
30958WAT     H293117   3.670   9.777   0.792
30959WAT      O93118   0.430   3.898   7.930
30959WAT     H193119   0.392   3.967   7.992
30959WAT     H293120   0.434   3.810   7.978
30960WAT      O93121   1.305   8.856   4.502
30960WAT     H193122   1.259   8.780   4.456
30960WAT     H293123   1.286   8.941   4.452
30961WAT      O93124   6.765   8.686   5.158
30961WAT     H193125   6.849   8.659   5.204
30961WAT     H293126   6.740   8.779   5.187
30962WAT      O93127   8.891   9.745   7.494
30962WAT     H193128   8.819   9.812   7.481
30962WAT     H293129   8.850   9.655   7.508
30963WAT      O93130   2.618   3.591   5.392
30963WAT     H193131   2.686   3.664   5.389
30963WAT     H293132   2.664   3.502   5.397
30964WAT      O93133   8.255   9.329   9.142
30964WAT     H193134   8.185   9.288   9.201
30964WAT     H293135   8.270   9.424   9.169
30965WAT      O93136   8.204   7.802   3.635
30965WAT     H193137   8.121   7.779   3.686
30965WAT     H293138   8.283   7.798   3.696
30966WAT      O93139   3.436   6.237   6.423
30966WAT     H193140   3.505   6.281   6.366
30966WAT     H293141   3.443   6.138   6.413
30967WAT      O93142   8.844   6.291   0.272
30967WAT     H193143   8.911   6.216   0.268
30967WAT     H293144   8.780   6.274   0.348
30968WAT      O93145   3.660   5.339   5.331
30968WAT     H193146   3.618   5.419   5.289
30968WAT     H293147   3.646   5.341   5.429
30969WAT      O93148   8.954   8.701   5.820
30969WAT     H193149   8.892   8.678   5.745
30969WAT     H293150   8.918   8.664   5.906
30970WAT      O93151   6.023   4.879   7.309
30970WAT     H193152   5.974   4.815   7.249
30970WAT     H293153   6.107   4.835   7.343
30971WAT      O93154   5.581   0.258   4.996
30971WAT     H193155   5.529   0.344   5.004
30971WAT     H293156   5.549   0.208   4.916
30972WAT      O93157   1.785   4.142   7.785
30972WAT     H193158   1.725   4.103   7.715
30972WAT     H293159   1.837   4.069   7.829
30973WAT      O93160   6.028   6.737   0.453
30973WAT     H193161   6.029   6.777   0.362
30973WAT     H293162   6.103   6.773   0.507
30974WAT      O93163   8.898   7.042   0.627
30974WAT     H193164   8.819   7.056   0.687
30974WAT     H293165   8.867   7.000   0.542
30975WAT      O93166   0.926   8.824   2.424
30975WAT     H193167   0.995   8.890   2.453
30975WAT     H293168   0.881   8.786   2.505
30976WAT      O93169   0.182   9.200   8.038
30976WAT     H193170   0.269   9.202   8.087
30976WAT     H293171   0.183   9.271   7.967
30977WAT      O93172   6.811   6.320   6.457
30977WAT     H193173   6.818   6.417   6.482
30977WAT     H293174   6.772   6.312   6.365
30978WAT      O93175   0.928   5.132   4.342
30978WAT     H193176   0.876   5.046   4.346
30978WAT     H293177   0.948   5.163   4.434
30979WAT      O93178   7.293   8.420   3.403
30979WAT     H193179   7.324   8.326   3.394
30979WAT     H293180   7.308   8.452   3.496
30980WAT      O93181   8.368   8.443   3.046
30980WAT     H193182   8.422   8.412   3.124
30980WAT     H293183   8.395   8.391   2.964
30981WAT      O93184   7.596   0.555   6.112
30981WAT     H193185   7.613   0.483   6.179
30981WAT     H293186   7.499   0.579   6.113
30982WAT      O93187   0.295   7.568   3.550
30982WAT     H193188   0.379   7.548   3.499
30982WAT     H293189   0.226   7.499   3.530
30983WAT      O93190   2.676   4.637   3.581
30983WAT     H193191   2.594   4.644   3.525
30983WAT     H293192   2.757   4.638   3.521
30984WAT      O93193   5.401   4.506   5.848
30984WAT     H193194   5.460   4.506   5.767
30984WAT     H293195   5.450   4.546   5.925
30985WAT      O93196   3.667   3.270   3.633
30985WAT     H193197   3.728   3.305   3.563
30985WAT     H293198   3.611   3.344   3.669
30986WAT      O93199   5.427   8.833   2.778
30986WAT     H193200   5.526   8.821   2.771
30986WAT     H293201   5.394   8.882   2.697
30987WAT      O93202   8.867   8.966   1.412
30987WAT     H193203   8.965   8.945   1.416
30987WAT     H293204   8.837   9.005   1.499
30988WAT      O93205   4.638   0.996   6.572
30988WAT     H193206   4.631   1.096   6.573
30988WAT     H293207   4.729   0.970   6.540
30989WAT      O93208   1.732   5.550   1.778
30989WAT     H193209   1.690   5.464   1.806
30989WAT     H293210   1.773   5.539   1.688
30990WAT      O93211   0.464   8.195   8.063
30990WAT     H193212   0.498   8.103   8.085
30990WAT     H293213   0.383   8.187   8.005
30991WAT      O93214   0.475   4.206   2.487
30991WAT     H193215   0.466   4.282   2.552
30991WAT     H293216   0.409   4.219   2.413
30992WAT      O93217   3.909   2.384   4.139
30992WAT     H193218   3.819   2.341   4.136
30992WAT     H293219   3.977   2.317   4.170
30993WAT      O93220   4.536   1.092   5.803
30993WAT     H193221   4.630   1.113   5.777
30993WAT     H293222   4.529   0.995   5.827
30994WAT      O93223   4.822   0.109   1.720
30994WAT     H193224   4.884   0.166   1.774
30994WAT     H293225   4.741   0.088   1.774
30995WAT      O93226   1.060   0.537   6.729
30995WAT     H193227   1.083   0.460   6.669
30995WAT     H293228   1.046   0.619   6.674
30996WAT      O93229   5.909   4.142   5.852
30996WAT     H193230   5.895   4.062   5.910
30996WAT     H293231   5.946   4.114   5.764
30997WAT      O93232   5.773   1.402   8.089
30997WAT     H193233   5.712   1.440   8.019
30997WAT     H293234   5.865   1.392   8.052
30998WAT      O93235   5.446   8.177   9.173
30998WAT     H193236   5.497   8.174   9.087
30998WAT     H293237   5.453   8.088   9.219
30999WAT      O93238   3.251   2.906   1.616
30999WAT     H193239   3.274   2.828   1.557
30999WAT     H293240   3.155   2.899   1.644
31000WAT      O93241   1.035   7.110   2.834
31000WAT     H193242   1.008   7.038   2.769
31000WAT     H293243   1.078   7.185   2.783
31001WAT      O93244   8.820   7.197   2.432
31001WAT     H193245   8.769   7.262   2.376
31001WAT     H293246   8.893   7.244   2.481
31002WAT      O93247   1.746   2.739   2.063
31002WAT     H193248   1.767   2.732   2.160
31002WAT     H293249   1.741   2.648   2.023
31003WAT      O93250   4.040   3.653   3.829
31003WAT     H193251   4.114   3.680   3.768
31003WAT     H293252   3.965   3.719   3.823
31004WAT      O93253   4.682   4.631   3.158
31004WAT     H193254   4.625   4.697   3.206
31004WAT     H293255   4.624   4.559   3.118
31005WAT      O93256   4.024   3.339   6.592
31005WAT     H193257   3.976   3.419   6.628
31005WAT     H293258   3.988   3.316   6.502
31006WAT      O93259   6.697   7.701   1.336
31006WAT     H193260   6.640   7.656   1.403
31006WAT     H293261   6.654   7.786   1.306
31007WAT      O93262   9.198   8.205   2.887
31007WAT     H193263   9.164   8.226   2.795
31007WAT     H293264   9.264   8.130   2.883
31008WAT      O93265   3.912   6.984   2.389
31008WAT     H193266   3.978   6.988   2.464
31008WAT     H293267   3.864   7.071   2.381
31009WAT      O93268   8.159   4.734   5.264
31009WAT     H193269   8.192   4.648   5.224
31009WAT     H293270   8.101   4.781   5.198
31010WAT      O93271   9.683   9.551   4.242
31010WAT     H193272   9.734   9.612   4.183
31010WAT     H293273   9.731   9.463   4.250
31011WAT      O93274   6.044   3.551   9.706
31011WAT     H193275   6.000   3.468   9.671
31011WAT     H293276   6.097   3.528   9.788
31012WAT      O93277   1.158   6.944   0.311
31012WAT     H193278   1.137   6.866   0.370
31012WAT     H293279   1.245   6.928   0.265
31013WAT      O93280   5.351   9.237   6.237
31013WAT     H193281   5.255   9.226   6.262
31013WAT     H293282   5.359   9.304   6.163
31014WAT      O93283   5.166   5.053   8.913
31014WAT     H193284   5.174   5.110   8.830
31014WAT     H293285   5.185   5.110   8.993
31015WAT      O93286   3.835   7.371   6.146
31015WAT     H193287   3.918   7.332   6.107
31015WAT     H293288   3.798   7.309   6.215
31016WAT      O93289   4.368   9.039   5.117
31016WAT     H193290   4.425   8.996   5.047
31016WAT     H293291   4.382   8.993   5.205
31017WAT      O93292   4.378   7.113   6.836
31017WAT     H193293   4.413   7.170   6.910
31017WAT     H293294   4.400   7.017   6.854
31018WAT      O93295   7.167   3.886   3.667
31018WAT     H193296   7.240   3.918   3.606
31018WAT     H293297   7.112   3.817   3.620
31019WAT      O93298   8.425   0.254   3.136
31019WAT     H193299   8.477   0.179   3.095
31019WAT     H293300   8.373   0.219   3.214
31020WAT      O93301   6.276   1.486   0.674
31020WAT     H193302   6.288   1.424   0.597
31020WAT     H293303   6.185   1.527   0.670
31021WAT      O93304   4.000   9.608   9.011
31021WAT     H193305   3.943   9.591   8.931
31021WAT     H293306   4.096   9.607   8.984
31022WAT      O93307   7.504   6.662   7.518
31022WAT     H193308   7.555   6.724   7.458
31022WAT     H293309   7.435   6.614   7.465
31023WAT      O93310   2.154   0.673   1.996
31023WAT     H193311   2.116   0.725   1.919
31023WAT     H293312   2.162   0.577   1.971
31024WAT      O93313   1.601   7.823   9.003
31024WAT     H193314   1.629   7.910   9.045
31024WAT     H293315   1.677   7.787   8.949
31025WAT      O93316   6.901   7.298   2.433
31025WAT     H193317   6.879   7.224   2.496
31025WAT     H293318   6.921   7.260   2.342
31026WAT      O93319   4.143   6.721   4.203
31026WAT     H193320   4.218   6.787   4.202
31026WAT     H293321   4.109   6.707   4.110
31027WAT      O93322   4.321   8.589   6.871
31027WAT     H193323   4.229   8.610   6.906
31027WAT     H293324   4.330   8.627   6.779
31028WAT      O93325   0.806   1.474   2.685
31028WAT     H193326   0.869   1.406   2.648
31028WAT     H293327   0.714   1.458   2.649
31029WAT      O93328   7.758   3.888   5.017
31029WAT     H193329   7.731   3.929   4.930
31029WAT     H293330   7.760   3.789   5.008
31030WAT      O93331   5.738   5.985   7.264
31030WAT     H193332   5.655   6.003   7.317
31030WAT     H293333   5.757   5.887   7.264
31031WAT      O93334   5.288   9.315   0.279
31031WAT     H193335   5.263   9.276   0.190
31031WAT     H293336   5.384   9.344   0.276
31032WAT      O93337   5.927   5.260   9.017
31032WAT     H193338   6.012   5.232   9.060
31032WAT     H293339   5.942   5.276   8.919
31033WAT      O93340   3.130   2.587   1.164
31033WAT     H193341   3.162   2.620   1.075
31033WAT     H293342   3.194   2.518   1.198
31034WAT      O93343   5.759   6.563   3.189
31034WAT     H193344   5.827   6.626   3.152
31034WAT     H293345   5.718   6.510   3.115
31035WAT      O93346   6.008   5.985   4.569
31035WAT     H193347   5.983   5.892   4.595
31035WAT     H293348   6.099   5.984   4.526
31036WAT      O93349   3.282   7.666   3.558
31036WAT     H193350   3.284   7.571   3.528
31036WAT     H293351   3.273   7.670   3.657
31037WAT      O93352   0.458   6.944   0.728
31037WAT     H193353   0.489   6.978   0.817
31037WAT     H293354   0.415   7.019   0.677
31038WAT      O93355   9.098   0.068   8.093
31038WAT     H193356   9.084   0.127   8.013
31038WAT     H293357   9.046   0.103   8.170
31039WAT      O93358   2.169   1.355   3.427
31039WAT     H193359   2.115   1.429   3.467
31039WAT     H293360   2.255   1.344   3.477
31040WAT      O93361   6.081   1.059   2.839
31040WAT     H193362   5.991   1.103   2.845
31040WAT     H293363   6.151   1.129   2.824
31041WAT      O93364   5.968   6.486   6.961
31041WAT     H193365   5.871   6.490   6.982
31041WAT     H293366   5.985   6.529   6.872
31042WAT      O93367   4.079   8.772   5.140
31042WAT     H193368   4.083   8.868   5.111
31042WAT     H293369   4.014   8.723   5.082
31043WAT      O93370   5.621   8.402   0.623
31043WAT     H193371   5.617   8.333   0.551
31043WAT     H293372   5.557   8.476   0.601
31044WAT      O93373   6.799   1.626   7.310
31044WAT     H193374   6.864   1.671   7.372
31044WAT     H293375   6.848   1.577   7.239
31045WAT      O93376   1.264   0.386   6.168
31045WAT     H193377   1.335   0.369   6.237
31045WAT     H293378   1.303   0.374   6.077
31046WAT      O93379   4.092   4.532   2.556
31046WAT     H193380   4.167   4.483   2.600
31046WAT     H293381   4.085   4.624   2.594
31047WAT      O93382   4.395   2.757   8.968
31047WAT     H193383   4.446   2.673   8.986
31047WAT     H293384   4.322   2.738   8.901
31048WAT      O93385   2.998   9.780   8.605
31048WAT     H193386   3.026   9.711   8.538
31048WAT     H293387   2.913   9.752   8.648
31049WAT      O93388   5.244   0.127   8.373
31049WAT     H193389   5.147   0.106   8.371
31049WAT     H293390   5.262   0.208   8.317
31050WAT      O93391   8.157   3.417   3.400
31050WAT     H193392   8.192   3.335   3.446
31050WAT     H293393   8.166   3.405   3.301
31051WAT      O93394   4.312   9.055   3.238
31051WAT     H193395   4.223   9.051   3.194
31051WAT     H293396   4.329   9.148   3.270
31052WAT      O93397   3.143   7.197   3.130
31052WAT     H193398   3.160   7.130   3.057
31052WAT     H293399   3.047   7.192   3.158
31053WAT      O93400   0.582   6.690   9.681
31053WAT     H193401   0.531   6.629   9.620
31053WAT     H293402   0.519   6.754   9.724
31054WAT      O93403   7.377   9.358   6.661
31054WAT     H193404   7.327   9.432   6.705
31054WAT     H293405   7.382   9.374   6.563
31055WAT      O93406   3.376   6.515   4.572
31055WAT     H193407   3.438   6.515   4.651
31055WAT     H293408   3.351   6.421   4.550
31056WAT      O93409   2.157   6.601   6.884
31056WAT     H193410   2.194   6.694   6.892
31056WAT     H293411   2.183   6.548   6.964
31057WAT      O93412   4.060   8.461   4.211
31057WAT     H193413   3.961   8.463   4.220
31057WAT     H293414   4.086   8.423   4.123
31058WAT      O93415   6.165   5.118   2.735
31058WAT     H193416   6.174   5.040   2.672
31058WAT     H293417   6.092   5.178   2.704
31059WAT      O93418   8.779   2.454   0.260
31059WAT     H193419   8.854   2.518   0.241
31059WAT     H293420   8.756   2.404   0.177
31060WAT      O93421   9.701   7.661   3.986
31060WAT     H193422   9.644   7.729   4.032
31060WAT     H293423   9.774   7.632   4.048
31061WAT      O93424   2.043   5.979   6.551
31061WAT     H193425   2.094   6.063   6.565
31061WAT     H293426   2.100   5.913   6.501
31062WAT      O93427   3.916   5.127   0.177
31062WAT     H193428   3.965   5.202   0.221
31062WAT     H293429   3.925   5.134   0.078
31063WAT      O93430   1.215   4.335   3.084
31063WAT     H193431   1.243   4.416   3.136
31063WAT     H293432   1.141   4.360   3.021
31064WAT      O93433   2.256   0.499   9.383
31064WAT     H193434   2.262   0.470   9.287
31064WAT     H293435   2.160   0.512   9.407
31065WAT      O93436   1.418   9.463   5.046
31065WAT     H193437   1.441   9.488   4.952
31065WAT     H293438   1.331   9.413   5.046
31066WAT      O93439   1.622   3.625   3.201
31066WAT     H193440   1.618   3.651   3.105
31066WAT     H293441   1.549   3.560   3.222
31067WAT      O93442   8.039   1.422   2.352
31067WAT     H193443   7.947   1.402   2.319
31067WAT     H293444   8.085   1.337   2.377
31068WAT      O93445   9.102   6.776   4.875
31068WAT     H193446   9.103   6.676   4.872
31068WAT     H293447   9.096   6.812   4.782
31069WAT      O93448   7.827   8.133   9.390
31069WAT     H193449   7.756   8.066   9.413
31069WAT     H293450   7.854   8.182   9.472
31070WAT      O93451   5.819   6.881   8.249
31070WAT     H193452   5.887   6.951   8.227
31070WAT     H293453   5.834   6.802   8.190
31071WAT      O93454   2.619   4.370   9.639
31071WAT     H193455   2.644   4.450   9.586
31071WAT     H293456   2.640   4.287   9.588
31072WAT      O93457   8.966   5.038   3.837
31072WAT     H193458   8.961   5.138   3.845
31072WAT     H293459   8.904   5.008   3.764
31073WAT      O93460   6.920   7.087   6.482
31073WAT     H193461   6.925   7.184   6.458
31073WAT     H293462   7.003   7.060   6.530
31074WAT      O93463   9.018   8.408   2.356
31074WAT     H193464   9.061   8.434   2.269
31074WAT     H293465   8.929   8.366   2.338
31075WAT      O93466   4.907   1.673   6.823
31075WAT     H193467   4.913   1.583   6.780
31075WAT     H293468   4.817   1.684   6.864
31076WAT      O93469   7.246   6.870   2.718
31076WAT     H193470   7.331   6.921   2.721
31076WAT     H293471   7.248   6.806   2.641
31077WAT      O93472   6.255   7.117   0.639
31077WAT     H193473   6.216   7.086   0.725
31077WAT     H293474   6.246   7.216   0.632
31078WAT      O93475   0.646   6.336   3.662
31078WAT     H193476   0.609   6.243   3.655
31078WAT     H293477   0.696   6.359   3.579
31079WAT      O93478   9.401   7.235   7.370
31079WAT     H193479   9.344   7.182   7.307
31079WAT     H293480   9.382   7.207   7.464
31080WAT      O93481   9.736   4.790   8.935
31080WAT     H193482   9.728   4.769   9.032
31080WAT     H293483   9.680   4.727   8.882
31081WAT      O93484   9.221   5.774   9.138
31081WAT     H193485   9.224   5.868   9.104
31081WAT     H293486   9.308   5.729   9.120
31082WAT      O93487   1.173   9.551   2.802
31082WAT     H193488   1.129   9.462   2.792
31082WAT     H293489   1.136   9.598   2.882
31083WAT      O93490   8.443   9.339   1.141
31083WAT     H193491   8.423   9.288   1.224
31083WAT     H293492   8.542   9.340   1.125
31084WAT      O93493   5.361   3.943   3.136
31084WAT     H193494   5.446   3.899   3.165
31084WAT     H293495   5.306   3.878   3.083
31085WAT      O93496   8.287   3.672   0.103
31085WAT     H193497   8.235   3.756   0.117
31085WAT     H293498   8.350   3.659   0.179
31086WAT      O93499   6.135   7.554   7.786
31086WAT     H193500   6.223   7.561   7.833
31086WAT     H293501   6.085   7.640   7.796
31087WAT      O93502   0.304   2.625   8.261
31087WAT     H193503   0.266   2.600   8.350
31087WAT     H293504   0.398   2.655   8.272
31088WAT      O93505   3.685   6.080   4.701
31088WAT     H193506   3.675   6.065   4.603
31088WAT     H293507   3.601   6.122   4.737
31089WAT      O93508   7.534   0.452   9.824
31089WAT     H193509   7.444   0.423   9.792
31089WAT     H293510   7.586   0.489   9.748
31090WAT      O93511   6.048   8.850   1.397
31090WAT     H193512   6.056   8.867   1.299
31090WAT     H293513   6.139   8.845   1.438
31091WAT      O93514   2.865   8.554   1.909
31091WAT     H193515   2.889   8.570   2.004
31091WAT     H293516   2.838   8.458   1.897
31092WAT      O93517   0.219   4.747   7.545
31092WAT     H193518   0.151   4.805   7.590
31092WAT     H293519   0.175   4.663   7.514
31093WAT      O93520   5.885   5.474   3.768
31093WAT     H193521   5.936   5.548   3.724
31093WAT     H293522   5.801   5.511   3.808
31094WAT      O93523   7.584   2.920   8.071
31094WAT     H193524   7.608   2.826   8.095
31094WAT     H293525   7.490   2.922   8.036
31095WAT      O93526   6.984   9.625   1.598
31095WAT     H193527   7.055   9.678   1.645
31095WAT     H293528   6.930   9.575   1.666
31096WAT      O93529   7.112   1.881   8.547
31096WAT     H193530   7.146   1.855   8.638
31096WAT     H293531   7.013   1.895   8.551
31097WAT      O93532   8.659   0.414   0.700
31097WAT     H193533   8.695   0.366   0.780
31097WAT     H293534   8.734   0.459   0.652
31098WAT      O93535   2.945   6.312   1.126
31098WAT     H193536   2.934   6.356   1.215
31098WAT     H293537   2.879   6.349   1.062
31099WAT      O93538   0.205   8.723   5.585
31099WAT     H193539   0.217   8.690   5.491
31099WAT     H293540   0.122   8.683   5.624
31100WAT      O93541   7.394   0.414   0.779
31100WAT     H193542   7.391   0.385   0.874
31100WAT     H293543   7.450   0.350   0.726
31101WAT      O93544   7.601   0.218   3.502
31101WAT     H193545   7.674   0.227   3.434
31101WAT     H293546   7.626   0.148   3.568
31102WAT      O93547   6.380   5.970   8.495
31102WAT     H193548   6.334   5.887   8.527
31102WAT     H293549   6.379   5.971   8.395
31103WAT      O93550   6.571   8.350   5.287
31103WAT     H193551   6.539   8.421   5.224
31103WAT     H293552   6.671   8.343   5.281
31104WAT      O93553   7.391   3.640   4.780
31104WAT     H193554   7.370   3.606   4.872
31104WAT     H293555   7.347   3.581   4.712
31105WAT      O93556   8.773   8.515   7.984
31105WAT     H193557   8.870   8.533   7.965
31105WAT     H293558   8.721   8.600   7.974
31106WAT      O93559   7.433   9.005   6.318
31106WAT     H193560   7.443   8.966   6.410
31106WAT     H293561   7.397   8.935   6.256
31107WAT      O93562   1.245   3.762   8.978
31107WAT     H193563   1.153   3.728   8.962
31107WAT     H293564   1.261   3.843   8.921
31108WAT      O93565   2.079   0.199   4.471
31108WAT     H193566   2.046   0.189   4.377
31108WAT     H293567   2.073   0.111   4.518
31109WAT      O93568   7.768   6.249   7.344
31109WAT     H193569   7.780   6.151   7.335
31109WAT     H293570   7.709   6.269   7.422
31110WAT      O93571   9.138   7.962   5.109
31110WAT     H193572   9.214   7.916   5.155
31110WAT     H293573   9.053   7.913   5.129
31111WAT      O93574   7.227   7.023   9.490
31111WAT     H193575   7.290   7.052   9.418
31111WAT     H293576   7.159   7.095   9.506
31112WAT      O93577   9.092   6.797   7.007
31112WAT     H193578   9.084   6.879   6.950
31112WAT     H293579   9.186   6.763   7.004
31113WAT      O93580   9.100   7.586   1.108
31113WAT     H193581   9.020   7.555   1.058
31113WAT     H293582   9.163   7.633   1.046
31114WAT      O93583   2.053   9.436   0.503
31114WAT     H193584   2.140   9.445   0.552
31114WAT     H293585   1.982   9.485   0.553
31115WAT      O93586   4.683   6.338   3.246
31115WAT     H193587   4.598   6.391   3.252
31115WAT     H293588   4.669   6.248   3.289
31116WAT      O93589   2.682   3.263   0.407
31116WAT     H193590   2.709   3.353   0.441
31116WAT     H293591   2.588   3.244   0.434
31117WAT      O93592   0.842   7.709   6.729
31117WAT     H193593   0.926   7.730   6.779
31117WAT     H293594   0.770   7.772   6.757
31118WAT      O93595   4.924   2.422   5.431
31118WAT     H193596   5.015   2.459   5.412
31118WAT     H293597   4.870   2.424   5.347
31119WAT      O93598   5.503   7.092   0.029
31119WAT     H193599   5.433   7.030  -0.006
31119WAT     H293600   5.460   7.167   0.080
31120WAT      O93601   8.003   5.475   3.045
31120WAT     H193602   8.099   5.485   3.074
31120WAT     H293603   7.994   5.504   2.950
31121WAT      O93604   3.546   9.380   1.319
31121WAT     H193605   3.526   9.419   1.230
31121WAT     H293606   3.484   9.304   1.337
31122WAT      O93607   8.029   5.797   7.982
31122WAT     H193608   8.079   5.738   8.045
31122WAT     H293609   7.932   5.795   8.005
31123WAT      O93610   4.537   4.653   1.518
31123WAT     H193611   4.524   4.578   1.583
31123WAT     H293612   4.612   4.711   1.549
31124WAT      O93613   8.384   9.472   0.105
31124WAT     H193614   8.312   9.414   0.143
31124WAT     H293615   8.389   9.458   0.006
31125WAT      O93616   4.591   4.779   1.248
31125WAT     H193617   4.613   4.731   1.334
31125WAT     H293618   4.552   4.713   1.183
31126WAT      O93619   8.967   6.010   1.716
31126WAT     H193620   8.992   6.044   1.626
31126WAT     H293621   8.900   6.072   1.758
31127WAT      O93622   2.752   3.409   0.181
31127WAT     H193623   2.757   3.366   0.091
31127WAT     H293624   2.704   3.349   0.245
31128WAT      O93625   0.217   8.065   3.506
31128WAT     H193626   0.214   8.140   3.572
31128WAT     H293627   0.125   8.049   3.471
31129WAT      O93628   4.642   8.279   3.053
31129WAT     H193629   4.557   8.235   3.081
31129WAT     H293630   4.638   8.376   3.076
31130WAT      O93631   2.407   5.371   9.166
31130WAT     H193632   2.488   5.374   9.224
31130WAT     H293633   2.374   5.277   9.159
31131WAT      O93634   7.408   7.871   9.695
31131WAT     H193635   7.488   7.821   9.727
31131WAT     H293636   7.357   7.905   9.774
31132WAT      O93637   8.243   5.704   1.679
31132WAT     H193638   8.257   5.614   1.639
31132WAT     H293639   8.145   5.722   1.687
31133WAT      O93640   4.610   6.456   4.659
31133WAT     H193641   4.622   6.431   4.562
31133WAT     H293642   4.522   6.502   4.671
31134WAT      O93643   6.408   4.220   1.566
31134WAT     H193644   6.426   4.128   1.532
31134WAT     H293645   6.373   4.277   1.491
31135WAT      O93646   1.585   2.169   1.503
31135WAT     H193647   1.637   2.120   1.574
31135WAT     H293648   1.648   2.205   1.435
31136WAT      O93649   7.970   1.531   7.976
31136WAT     H193650   7.942   1.627   7.966
31136WAT     H293651   7.907   1.472   7.925
31137WAT      O93652   8.265   7.434   7.749
31137WAT     H193653   8.218   7.365   7.693
31137WAT     H293654   8.337   7.477   7.694
31138WAT      O93655   8.924   7.832   5.221
31138WAT     H193656   8.970   7.743   5.223
31138WAT     H293657   8.839   7.828   5.273
31139WAT      O93658   8.195   8.245   5.305
31139WAT     H193659   8.237   8.328   5.269
31139WAT     H293660   8.227   8.166   5.254
31140WAT      O93661   2.798   4.038   5.641
31140WAT     H193662   2.770   4.064   5.734
31140WAT     H293663   2.820   4.120   5.589
31141WAT      O93664   1.319   3.605   3.418
31141WAT     H193665   1.255   3.682   3.427
31141WAT     H293666   1.392   3.614   3.485
31142WAT      O93667   3.128   1.299   5.208
31142WAT     H193668   3.115   1.238   5.286
31142WAT     H293669   3.089   1.258   5.126
31143WAT      O93670   8.581   7.233   7.062
31143WAT     H193671   8.519   7.159   7.089
31143WAT     H293672   8.594   7.295   7.139
31144WAT      O93673   8.631   5.828   9.832
31144WAT     H193674   8.662   5.797   9.743
31144WAT     H293675   8.681   5.779   9.904
31145WAT      O93676   5.912   2.508   7.052
31145WAT     H193677   5.994   2.565   7.054
31145WAT     H293678   5.868   2.515   6.963
31146WAT      O93679   2.117   4.501   6.725
31146WAT     H193680   2.168   4.587   6.731
31146WAT     H293681   2.174   4.426   6.760
31147WAT      O93682   0.138   5.747   6.040
31147WAT     H193683   0.077   5.750   5.961
31147WAT     H293684   0.130   5.833   6.092
31148WAT      O93685   7.178   5.045   1.208
31148WAT     H193686   7.230   5.003   1.135
31148WAT     H293687   7.240   5.084   1.276
31149WAT      O93688   8.573   7.099   9.062
31149WAT     H193689   8.479   7.081   9.093
31149WAT     H293690   8.597   7.194   9.082
31150WAT      O93691   8.167   3.676   8.157
31150WAT     H193692   8.119   3.752   8.200
31150WAT     H293693   8.205   3.705   8.070
31151WAT      O93694   2.252   6.688   1.242
31151WAT     H193695   2.352   6.696   1.242
31151WAT     H293696   2.225   6.594   1.224
31152WAT      O93697   5.568   8.531   7.062
31152WAT     H193698   5.557   8.608   6.999
31152WAT     H293699   5.489   8.469   7.054
31153WAT      O93700   3.204   5.972   7.115
31153WAT     H193701   3.162   6.023   7.040
31153WAT     H293702   3.303   5.987   7.115
31154WAT      O93703   8.184   2.658   1.114
31154WAT     H193704   8.174   2.589   1.186
31154WAT     H293705   8.169   2.615   1.025
31155WAT      O93706   8.630   5.199   5.348
31155WAT     H193707   8.554   5.247   5.304
31155WAT     H293708   8.699   5.265   5.376
31156WAT      O93709   2.417   2.602   0.576
31156WAT     H193710   2.387   2.509   0.557
31156WAT     H293711   2.465   2.639   0.497
31157WAT      O93712   9.681   1.246   3.153
31157WAT     H193713   9.632   1.206   3.230
31157WAT     H293714   9.633   1.327   3.121
31158WAT      O93715   0.851   0.466   0.289
31158WAT     H193716   0.930   0.501   0.239
31158WAT     H293717   0.769   0.519   0.266
31159WAT      O93718   3.443   6.540   3.954
31159WAT     H193719   3.535   6.573   3.969
31159WAT     H293720   3.446   6.444   3.926
31160WAT      O93721   0.975   2.079   0.692
31160WAT     H193722   0.948   1.988   0.723
31160WAT     H293723   1.059   2.107   0.738
31161WAT      O93724   6.351   9.645   9.146
31161WAT     H193725   6.310   9.720   9.197
31161WAT     H293726   6.306   9.559   9.170
31162WAT      O93727   9.579   0.799   9.411
31162WAT     H193728   9.652   0.862   9.382
31162WAT     H293729   9.605   0.755   9.497
31163WAT      O93730   6.637   9.045   2.113
31163WAT     H193731   6.583   8.967   2.144
31163WAT     H293732   6.615   9.125   2.169
31164WAT      O93733   1.209   6.477   3.136
31164WAT     H193734   1.277   6.414   3.175
31164WAT     H293735   1.247   6.522   3.056
31165WAT      O93736   9.370   5.235   5.491
31165WAT     H193737   9.301   5.166   5.471
31165WAT     H293738   9.453   5.191   5.526
31166WAT      O93739   8.732   9.398   6.603
31166WAT     H193740   8.727   9.462   6.680
31166WAT     H293741   8.639   9.376   6.572
31167WAT      O93742   3.550   7.234   8.171
31167WAT     H193743   3.574   7.172   8.096
31167WAT     H293744   3.551   7.184   8.257
31168WAT      O93745   7.864   1.165   3.257
31168WAT     H193746   7.850   1.260   3.284
31168WAT     H293747   7.835   1.105   3.331
31169WAT      O93748   4.034   7.846   1.498
31169WAT     H193749   4.036   7.759   1.450
31169WAT     H293750   4.112   7.902   1.471
31170WAT      O93751   6.752   8.458   7.326
31170WAT     H193752   6.676   8.450   7.389
31170WAT     H293753   6.810   8.377   7.333
31171WAT      O93754   9.535   2.538   7.453
31171WAT     H193755   9.591   2.602   7.401
31171WAT     H293756   9.593   2.487   7.516
31172WAT      O93757   8.148   3.509   5.932
31172WAT     H193758   8.109   3.441   5.994
31172WAT     H293759   8.198   3.578   5.985
31173WAT      O93760   1.602   0.302   9.599
31173WAT     H193761   1.616   0.209   9.564
31173WAT     H293762   1.585   0.363   9.522
31174WAT      O93763   4.080   9.705   0.447
31174WAT     H193764   4.044   9.700   0.353
31174WAT     H293765   4.147   9.778   0.453
31175WAT      O93766   9.358   4.055   6.161
31175WAT     H193767   9.426   4.073   6.232
31175WAT     H293768   9.338   4.139   6.111
31176WAT      O93769   3.370   5.100   5.891
31176WAT     H193770   3.452   5.148   5.921
31176WAT     H293771   3.344   5.131   5.800
31177WAT      O93772   4.769   1.032   1.932
31177WAT     H193773   4.690   0.989   1.889
31177WAT     H293774   4.853   0.990   1.897
31178WAT      O93775   6.167   0.811   7.581
31178WAT     H193776   6.234   0.761   7.636
31178WAT     H293777   6.077   0.802   7.622
31179WAT      O93778   4.757   0.008   5.217
31179WAT     H193779   4.798   0.055   5.295
31179WAT     H293780   4.790   0.049   5.132
31180WAT      O93781   3.707   6.875   9.234
31180WAT     H193782   3.803   6.847   9.238
31180WAT     H293783   3.665   6.837   9.152
31181WAT      O93784   4.341   5.248   8.830
31181WAT     H193785   4.416   5.300   8.791
31181WAT     H293786   4.318   5.285   8.920
31182WAT      O93787   9.190   5.773   9.874
31182WAT     H193788   9.177   5.708   9.799
31182WAT     H293789   9.115   5.839   9.874
31183WAT      O93790   0.863   7.488   5.810
31183WAT     H193791   0.872   7.392   5.838
31183WAT     H293792   0.915   7.502   5.726
31184WAT      O93793   5.548   2.895   8.956
31184WAT     H193794   5.561   2.985   8.997
31184WAT     H293795   5.452   2.884   8.929
31185WAT      O93796   6.126   9.273   5.734
31185WAT     H193797   6.095   9.197   5.791
31185WAT     H293798   6.064   9.285   5.657
31186WAT      O93799   6.460   3.816   5.088
31186WAT     H193800   6.519   3.827   5.008
31186WAT     H293801   6.472   3.724   5.126
31187WAT      O93802   6.431   9.598   8.307
31187WAT     H193803   6.332   9.613   8.297
31187WAT     H293804   6.471   9.673   8.359
31188WAT      O93805   1.661   6.138   9.883
31188WAT     H193806   1.592   6.140   9.811
31188WAT     H293807   1.617   6.123   9.971
31189WAT      O93808   4.061   7.961   8.854
31189WAT     H193809   4.076   7.869   8.817
31189WAT     H293810   4.125   8.025   8.811
31190WAT      O93811   8.621   9.720   3.128
31190WAT     H193812   8.698   9.656   3.123
31190WAT     H293813   8.541   9.673   3.164
31191WAT      O93814   3.579   7.141   1.832
31191WAT     H193815   3.533   7.058   1.798
31191WAT     H293816   3.620   7.122   1.921
31192WAT      O93817   1.128   8.306   4.423
31192WAT     H193818   1.147   8.245   4.501
31192WAT     H293819   1.054   8.369   4.447
31193WAT      O93820   0.662   0.463   8.889
31193WAT     H193821   0.760   0.465   8.868
31193WAT     H293822   0.610   0.444   8.806
31194WAT      O93823   5.309   7.866   9.156
31194WAT     H193824   5.336   7.928   9.082
31194WAT     H293825   5.224   7.820   9.132
31195WAT      O93826   7.698   9.193   9.769
31195WAT     H193827   7.710   9.207   9.867
31195WAT     H293828   7.694   9.281   9.723
31196WAT      O93829   1.607   5.297   6.407
31196WAT     H193830   1.552   5.360   6.462
31196WAT     H293831   1.621   5.212   6.457
31197WAT      O93832   5.270   5.606   3.654
31197WAT     H193833   5.241   5.613   3.559
31197WAT     H293834   5.248   5.515   3.689
31198WAT      O93835   5.251   6.386   2.426
31198WAT     H193836   5.244   6.472   2.375
31198WAT     H293837   5.173   6.377   2.487
31199WAT      O93838   7.109   3.642   8.937
31199WAT     H193839   7.026   3.698   8.929
31199WAT     H293840   7.126   3.620   9.033
31200WAT      O93841   4.561   3.268   3.798
31200WAT     H193842   4.542   3.228   3.708
31200WAT     H293843   4.493   3.235   3.863
31201WAT      O93844   0.761   6.258   4.116
31201WAT     H193845   0.777   6.216   4.026
31201WAT     H293846   0.837   6.319   4.138
31202WAT      O93847   4.531   6.398   6.524
31202WAT     H193848   4.592   6.362   6.595
31202WAT     H293849   4.575   6.475   6.478
31203WAT      O93850   8.679   8.592   1.656
31203WAT     H193851   8.720   8.643   1.733
31203WAT     H293852   8.652   8.657   1.585
31204WAT      O93853   4.128   0.301   3.039
31204WAT     H193854   4.177   0.387   3.024
31204WAT     H293855   4.030   0.316   3.027
31205WAT      O93856   4.818   2.071   6.821
31205WAT     H193857   4.859   2.059   6.731
31205WAT     H293858   4.760   1.993   6.842
31206WAT      O93859   4.823   4.596   8.134
31206WAT     H193860   4.755   4.610   8.206
31206WAT     H293861   4.892   4.669   8.139
31207WAT      O93862   2.480   0.146   4.250
31207WAT     H193863   2.416   0.202   4.197
31207WAT     H293864   2.465   0.164   4.348
31208WAT      O93865   7.686   0.894   6.782
31208WAT     H193866   7.666   0.928   6.690
31208WAT     H293867   7.715   0.798   6.777
31209WAT      O93868   6.717   2.629   4.329
31209WAT     H193869   6.715   2.544   4.380
31209WAT     H293870   6.678   2.614   4.238
31210WAT      O93871   5.605   5.499   3.831
31210WAT     H193872   5.571   5.410   3.803
31210WAT     H293873   5.538   5.542   3.892
31211WAT      O93874   8.274   7.760   5.020
31211WAT     H193875   8.269   7.764   5.120
31211WAT     H293876   8.309   7.670   4.992
31212WAT      O93877   9.073   3.613   8.689
31212WAT     H193878   8.984   3.584   8.653
31212WAT     H293879   9.108   3.543   8.751
31213WAT      O93880   4.604   5.899   4.161
31213WAT     H193881   4.512   5.878   4.127
31213WAT     H293882   4.597   5.955   4.243
31214WAT      O93883   3.481   0.491   0.867
31214WAT     H193884   3.385   0.463   0.879
31214WAT     H293885   3.484   0.576   0.815
31215WAT      O93886   1.254   6.184   3.552
31215WAT     H193887   1.165   6.222   3.523
31215WAT     H293888   1.323   6.257   3.549
31216WAT      O93889   6.183   4.571   7.799
31216WAT     H193890   6.120   4.493   7.789
31216WAT     H293891   6.254   4.565   7.729
31217WAT      O93892   0.093   0.634   7.110
31217WAT     H193893   0.004   0.641   7.064
31217WAT     H293894   0.125   0.725   7.135
31218WAT      O93895   8.870   8.583   1.239
31218WAT     H193896   8.830   8.511   1.182
31218WAT     H293897   8.817   8.667   1.227
31219WAT      O93898   7.915   3.630   7.226
31219WAT     H193899   8.002   3.604   7.185
31219WAT     H293900   7.929   3.703   7.293
31220WAT      O93901   1.052   3.060   7.161
31220WAT     H193902   0.985   3.063   7.235
31220WAT     H293903   1.006   3.072   7.073
31221WAT      O93904   0.403   1.808   3.270
31221WAT     H193905   0.363   1.816   3.179
31221WAT     H293906   0.427   1.899   3.303
31222WAT      O93907   6.982   2.739   4.835
31222WAT     H193908   6.907   2.710   4.895
31222WAT     H293909   7.017   2.827   4.866
31223WAT      O93910   1.798   3.593   5.641
31223WAT     H193911   1.783   3.506   5.689
31223WAT     H293912   1.724   3.606   5.574
31224WAT      O93913   7.611   6.340   4.085
31224WAT     H193914   7.538   6.272   4.071
31224WAT     H293915   7.700   6.295   4.076
31225WAT      O93916   7.558   7.333   9.761
31225WAT     H193917   7.498   7.265   9.803
31225WAT     H293918   7.596   7.392   9.832
31226WAT      O93919   6.848   5.084   4.528
31226WAT     H193920   6.882   5.059   4.437
31226WAT     H293921   6.777   5.154   4.519
31227WAT      O93922   7.214   3.798   8.375
31227WAT     H193923   7.211   3.738   8.295
31227WAT     H293924   7.250   3.748   8.453
31228WAT      O93925   4.490   2.965   3.762
31228WAT     H193926   4.434   2.888   3.729
31228WAT     H293927   4.522   3.017   3.683
31229WAT      O93928   2.938   1.288   1.728
31229WAT     H193929   2.917   1.191   1.726
31229WAT     H293930   3.035   1.302   1.711
31230WAT      O93931   0.725   1.246   2.450
31230WAT     H193932   0.678   1.250   2.362
31230WAT     H293933   0.659   1.263   2.523
31231WAT      O93934   9.259   8.561   6.107
31231WAT     H193935   9.249   8.658   6.088
31231WAT     H293936   9.236   8.508   6.025
31232WAT      O93937   4.689   6.315   1.755
31232WAT     H193938   4.669   6.413   1.749
31232WAT     H293939   4.721   6.294   1.847
31233WAT      O93940   8.220   1.010   5.815
31233WAT     H193941   8.143   0.972   5.764
31233WAT     H293942   8.214   1.110   5.814
31234WAT      O93943   6.785   7.962   8.021
31234WAT     H193944   6.852   7.892   8.045
31234WAT     H293945   6.830   8.033   7.966
31235WAT      O93946   8.520   4.960   9.800
31235WAT     H193947   8.438   4.954   9.743
31235WAT     H293948   8.493   4.977   9.895
31236WAT      O93949   8.321   2.475   6.908
31236WAT     H193950   8.294   2.481   6.812
31236WAT     H293951   8.360   2.385   6.926
31237WAT      O93952   1.269   6.934   6.993
31237WAT     H193953   1.225   6.990   6.923
31237WAT     H293954   1.363   6.966   7.007
31238WAT      O93955   4.889   1.953   0.171
31238WAT     H193956   4.864   2.023   0.238
31238WAT     H293957   4.986   1.962   0.148
31239WAT      O93958   4.320   0.488   8.756
31239WAT     H193959   4.358   0.435   8.832
31239WAT     H293960   4.390   0.500   8.686
31240WAT      O93961   2.718   1.314   3.673
31240WAT     H193962   2.748   1.249   3.743
31240WAT     H293963   2.678   1.263   3.597
31241WAT      O93964   9.063   8.556   6.383
31241WAT     H193965   9.045   8.470   6.335
31241WAT     H293966   9.145   8.599   6.345
31242WAT      O93967   7.037   8.355   9.175
31242WAT     H193968   7.112   8.293   9.153
31242WAT     H293969   7.051   8.393   9.267
31243WAT      O93970   9.308   1.109   0.620
31243WAT     H193971   9.346   1.019   0.643
31243WAT     H293972   9.357   1.180   0.671
31244WAT      O93973   0.346   1.912   5.296
31244WAT     H193974   0.348   1.826   5.347
31244WAT     H293975   0.306   1.984   5.352
31245WAT      O93976   6.728   6.072   6.115
31245WAT     H193977   6.734   6.154   6.171
31245WAT     H293978   6.707   6.097   6.020
31246WAT      O93979   7.023   7.685   9.496
31246WAT     H193980   6.984   7.701   9.587
31246WAT     H293981   7.104   7.741   9.484
31247WAT      O93982   2.667   6.559   4.699
31247WAT     H193983   2.721   6.599   4.773
31247WAT     H293984   2.724   6.547   4.618
31248WAT      O93985   0.212   8.338   9.139
31248WAT     H193986   0.250   8.429   9.124
31248WAT     H293987   0.112   8.341   9.131
31249WAT      O93988   0.622   4.292   1.927
31249WAT     H193989   0.707   4.251   1.893
31249WAT     H293990   0.633   4.392   1.933
31250WAT      O93991   2.281   5.213   1.998
31250WAT     H193992   2.318   5.277   2.066
31250WAT     H293993   2.186   5.238   1.977
31251WAT      O93994   2.136   5.404   4.550
31251WAT     H193995   2.039   5.423   4.537
31251WAT     H293996   2.184   5.420   4.464
31252WAT      O93997   7.889   7.598   7.750
31252WAT     H193998   7.942   7.543   7.815
31252WAT     H293999   7.873   7.544   7.667
31253WAT      O94000   9.309   2.828   7.382
31253WAT     H194001   9.238   2.894   7.406
31253WAT     H294002   9.295   2.743   7.432
31254WAT      O94003   7.776   3.033   4.691
31254WAT     H194004   7.736   2.978   4.618
31254WAT     H294005   7.739   3.126   4.687
31255WAT      O94006   5.364   2.956   6.808
31255WAT     H194007   5.443   3.017   6.816
31255WAT     H294008   5.329   2.959   6.715
31256WAT      O94009   0.517   8.129   1.349
31256WAT     H194010   0.616   8.122   1.358
31256WAT     H294011   0.492   8.223   1.326
31257WAT      O94012   9.203   8.620   3.679
31257WAT     H194013   9.150   8.559   3.737
31257WAT     H294014   9.165   8.713   3.685
31258WAT      O94015   0.283   6.310   9.766
31258WAT     H194016   0.272   6.247   9.689
31258WAT     H294017   0.198   6.315   9.818
31259WAT      O94018   0.937   0.242   0.007
31259WAT     H194019   0.842   0.217  -0.011
31259WAT     H294020   0.959   0.225   0.103
31260WAT      O94021   2.821   4.344   3.917
31260WAT     H194022   2.895   4.399   3.955
31260WAT     H294023   2.782   4.286   3.989
31261WAT      O94024   1.954   4.310   7.196
31261WAT     H194025   1.926   4.219   7.167
31261WAT     H294026   1.900   4.338   7.276
31262WAT      O94027   5.479   3.118   0.840
31262WAT     H194028   5.471   3.168   0.926
31262WAT     H294029   5.428   3.167   0.769
31263WAT      O94030   7.987   0.456   8.912
31263WAT     H194031   7.961   0.362   8.933
31263WAT     H294032   8.026   0.498   8.993
31264WAT      O94033   1.460   8.133   4.476
31264WAT     H194034   1.389   8.166   4.538
31264WAT     H294035   1.538   8.196   4.479
31265WAT      O94036   6.535   6.013   9.085
31265WAT     H194037   6.477   6.095   9.095
31265WAT     H294038   6.629   6.040   9.067
31266WAT      O94039   3.147   1.301   6.506
31266WAT     H194040   3.209   1.227   6.530
31266WAT     H294041   3.118   1.292   6.411
31267WAT      O94042   3.883   3.654   5.658
31267WAT     H194043   3.940   3.622   5.582
31267WAT     H294044   3.907   3.749   5.680
31268WAT      O94045   2.910   3.123   1.734
31268WAT     H194046   2.963   3.154   1.813
31268WAT     H294047   2.816   3.157   1.742
31269WAT      O94048   9.126   4.179   9.616
31269WAT     H194049   9.099   4.262   9.566
31269WAT     H294050   9.149   4.204   9.710
31270WAT      O94051   9.325   6.477   6.802
31270WAT     H194052   9.310   6.530   6.885
31270WAT     H294053   9.255   6.500   6.735
31271WAT      O94054   7.181   5.509   7.617
31271WAT     H194055   7.142   5.422   7.646
31271WAT     H294056   7.196   5.507   7.518
31272WAT      O94057   7.312   8.628   2.111
31272WAT     H194058   7.341   8.534   2.096
31272WAT     H294059   7.320   8.680   2.026
31273WAT      O94060   4.273   4.198   0.071
31273WAT     H194061   4.181   4.235   0.089
31273WAT     H294062   4.314   4.248  -0.006
31274WAT      O94063   4.494   3.192   4.639
31274WAT     H194064   4.465   3.240   4.722
31274WAT     H294065   4.584   3.150   4.655
31275WAT      O94066   2.709   5.824   5.709
31275WAT     H194067   2.640   5.802   5.778
31275WAT     H294068   2.685   5.781   5.622
31276WAT      O94069   3.908   0.246   2.773
31276WAT     H194070   3.919   0.335   2.729
31276WAT     H294071   3.930   0.254   2.870
31277WAT      O94072   5.556   6.695   3.304
31277WAT     H194073   5.628   6.634   3.271
31277WAT     H294074   5.468   6.650   3.297
31278WAT      O94075   7.620   1.989   2.173
31278WAT     H194076   7.627   2.087   2.154
31278WAT     H294077   7.708   1.945   2.155
31279WAT      O94078   0.549   5.137   1.026
31279WAT     H194079   0.576   5.043   1.004
31279WAT     H294080   0.479   5.136   1.097
31280WAT      O94081   5.003   4.864   3.879
31280WAT     H194082   4.946   4.812   3.816
31280WAT     H294083   4.947   4.934   3.924
31281WAT      O94084   1.104   2.812   1.341
31281WAT     H194085   1.018   2.804   1.390
31281WAT     H294086   1.086   2.813   1.242
31282WAT      O94087   2.434   4.588   5.095
31282WAT     H194088   2.355   4.601   5.156
31282WAT     H294089   2.504   4.656   5.117
31283WAT      O94090   1.926   1.428   7.125
31283WAT     H194091   1.940   1.438   7.027
31283WAT     H294092   1.940   1.332   7.151
31284WAT      O94093   7.182   5.870   3.122
31284WAT     H194094   7.198   5.787   3.067
31284WAT     H294095   7.145   5.942   3.063
31285WAT      O94096   7.736   2.434   3.866
31285WAT     H194097   7.817   2.476   3.824
31285WAT     H294098   7.666   2.504   3.881
31286WAT      O94099   5.113   5.764   7.368
31286WAT     H194100   5.053   5.686   7.351
31286WAT     H294101   5.181   5.771   7.295
31287WAT      O94102   3.131   8.846   8.489
31287WAT     H194103   3.203   8.874   8.426
31287WAT     H294104   3.136   8.901   8.572
31288WAT      O94105   1.883   8.695   0.266
31288WAT     H194106   1.788   8.687   0.297
31288WAT     H294107   1.894   8.647   0.179
31289WAT      O94108   7.844   9.818   4.157
31289WAT     H194109   7.838   9.910   4.193
31289WAT     H294110   7.759   9.769   4.175
31290WAT      O94111   7.783   6.549   9.688
31290WAT     H194112   7.789   6.522   9.592
31290WAT     H294113   7.729   6.482   9.738
31291WAT      O94114   0.931   6.542   1.408
31291WAT     H194115   0.984   6.616   1.449
31291WAT     H294116   0.972   6.454   1.432
31292WAT      O94117   5.091   4.721   3.202
31292WAT     H194118   5.158   4.712   3.129
31292WAT     H294119   5.031   4.641   3.203
31293WAT      O94120   4.215   6.138   6.373
31293WAT     H194121   4.249   6.172   6.461
31293WAT     H294122   4.119   6.167   6.362
31294WAT      O94123   1.763   1.452   3.654
31294WAT     H194124   1.696   1.522   3.679
31294WAT     H294125   1.721   1.387   3.591
31295WAT      O94126   3.171   6.906   0.644
31295WAT     H194127   3.199   6.851   0.566
31295WAT     H294128   3.252   6.933   0.697
31296WAT      O94129   1.887   1.191   5.530
31296WAT     H194130   1.956   1.191   5.458
31296WAT     H294131   1.840   1.103   5.531
31297WAT      O94132   6.204   3.390   8.529
31297WAT     H194133   6.111   3.412   8.558
31297WAT     H294134   6.254   3.474   8.509
31298WAT      O94135   2.916   6.837   0.699
31298WAT     H194136   3.011   6.867   0.695
31298WAT     H294137   2.891   6.794   0.612
31299WAT      O94138   2.674   9.013   3.918
31299WAT     H194139   2.619   8.930   3.908
31299WAT     H294140   2.766   8.997   3.883
31300WAT      O94141   3.457   5.034   6.256
31300WAT     H194142   3.438   5.085   6.339
31300WAT     H294143   3.372   5.008   6.212
31301WAT      O94144   4.410   4.974   9.218
31301WAT     H194145   4.355   4.892   9.233
31301WAT     H294146   4.350   5.054   9.210
31302WAT      O94147   9.177   4.233   2.151
31302WAT     H194148   9.153   4.328   2.171
31302WAT     H294149   9.139   4.207   2.063
31303WAT      O94150   8.755   1.312   3.595
31303WAT     H194151   8.788   1.289   3.504
31303WAT     H294152   8.795   1.399   3.624
31304WAT      O94153   1.055   8.251   8.721
31304WAT     H194154   1.148   8.220   8.737
31304WAT     H294155   1.005   8.181   8.669
31305WAT      O94156   9.134   4.200   8.453
31305WAT     H194157   9.048   4.214   8.501
31305WAT     H294158   9.193   4.139   8.508
31306WAT      O94159   5.407   2.115   3.323
31306WAT     H194160   5.425   2.095   3.419
31306WAT     H294161   5.377   2.210   3.314
31307WAT      O94162   7.497   1.515   4.178
31307WAT     H194163   7.562   1.591   4.167
31307WAT     H294164   7.536   1.446   4.239
31308WAT      O94165   0.743   0.880   9.507
31308WAT     H194166   0.729   0.893   9.409
31308WAT     H294167   0.840   0.867   9.525
31309WAT      O94168   5.831   8.541   2.072
31309WAT     H194169   5.887   8.487   2.009
31309WAT     H294170   5.736   8.514   2.063
31310WAT      O94171   7.597   6.476   6.866
31310WAT     H194172   7.584   6.461   6.964
31310WAT     H294173   7.525   6.430   6.814
31311WAT      O94174   9.650   0.678   3.488
31311WAT     H194175   9.563   0.630   3.482
31311WAT     H294176   9.716   0.636   3.425
31312WAT      O94177   5.750   3.666   5.236
31312WAT     H194178   5.655   3.647   5.260
31312WAT     H294179   5.759   3.668   5.136
31313WAT      O94180   9.657   5.410   0.628
31313WAT     H194181   9.632   5.451   0.716
31313WAT     H294182   9.607   5.456   0.555
31314WAT      O94183   8.883   6.085   6.991
31314WAT     H194184   8.891   6.063   6.893
31314WAT     H294185   8.926   6.174   7.008
31315WAT      O94186   7.898   6.419   6.793
31315WAT     H194187   7.840   6.408   6.873
31315WAT     H294188   7.864   6.362   6.718
31316WAT      O94189   3.995   5.234   9.811
31316WAT     H194190   3.913   5.288   9.828
31316WAT     H294191   4.045   5.273   9.734
31317WAT      O94192   3.308   5.131   6.950
31317WAT     H194193   3.270   5.113   6.860
31317WAT     H294194   3.407   5.143   6.943
31318WAT      O94195   3.699   3.762   2.271
31318WAT     H194196   3.656   3.819   2.201
31318WAT     H294197   3.798   3.767   2.261
31319WAT      O94198   8.314   4.618   2.172
31319WAT     H194199   8.337   4.667   2.256
31319WAT     H294200   8.367   4.533   2.168
31320WAT      O94201   5.122   7.687   6.295
31320WAT     H194202   5.078   7.638   6.370
31320WAT     H294203   5.113   7.785   6.309
31321WAT      O94204   4.654   1.099   7.861
31321WAT     H194205   4.625   1.132   7.951
31321WAT     H294206   4.709   1.169   7.816
31322WAT      O94207   2.051   0.206   8.981
31322WAT     H194208   2.082   0.301   8.976
31322WAT     H294209   1.990   0.187   8.904
31323WAT      O94210   6.178   9.341   3.765
31323WAT     H194211   6.121   9.422   3.760
31323WAT     H294212   6.121   9.260   3.778
31324WAT      O94213   5.697   5.081   1.154
31324WAT     H194214   5.710   5.121   1.245
31324WAT     H294215   5.634   5.138   1.101
31325WAT      O94216   9.839   1.431   8.662
31325WAT     H194217   9.833   1.379   8.577
31325WAT     H294218   9.751   1.427   8.710
31326WAT      O94219   3.587   7.521   2.968
31326WAT     H194220   3.541   7.459   3.032
31326WAT     H294221   3.602   7.609   3.013
31327WAT      O94222   7.473   3.273   5.822
31327WAT     H194223   7.431   3.188   5.789
31327WAT     H294224   7.448   3.286   5.919
31328WAT      O94225   1.381   1.632   1.121
31328WAT     H194226   1.419   1.559   1.179
31328WAT     H294227   1.361   1.595   1.030
31329WAT      O94228   9.443   4.156   9.853
31329WAT     H194229   9.433   4.059   9.870
31329WAT     H294230   9.387   4.208   9.918
31330WAT      O94231   0.394   4.808   5.529
31330WAT     H194232   0.378   4.773   5.621
31330WAT     H294233   0.441   4.896   5.533
31331WAT      O94234   5.807   5.380   4.271
31331WAT     H194235   5.875   5.328   4.219
31331WAT     H294236   5.853   5.425   4.348
31332WAT      O94237   0.287   9.019   8.896
31332WAT     H194238   0.302   9.111   8.860
31332WAT     H294239   0.320   9.014   8.990
31333WAT      O94240   5.984   5.749   3.944
31333WAT     H194241   5.890   5.761   3.976
31333WAT     H294242   6.017   5.658   3.970
31334WAT      O94243   8.827   9.571   2.406
31334WAT     H194244   8.794   9.659   2.372
31334WAT     H294245   8.761   9.500   2.381
31335WAT      O94246   4.255   0.123   4.992
31335WAT     H194247   4.236   0.192   5.062
31335WAT     H294248   4.354   0.116   4.979
31336WAT      O94249   4.098   5.702   3.888
31336WAT     H194250   4.195   5.727   3.891
31336WAT     H294251   4.042   5.784   3.891
31337WAT      O94252   1.804   5.360   1.577
31337WAT     H194253   1.856   5.275   1.591
31337WAT     H294254   1.812   5.387   1.481
31338WAT      O94255   7.281   1.644   8.274
31338WAT     H194256   7.364   1.614   8.227
31338WAT     H294257   7.283   1.744   8.285
31339WAT      O94258   0.367   3.936   4.261
31339WAT     H194259   0.381   3.881   4.179
31339WAT     H294260   0.344   3.875   4.337
31340WAT      O94261   8.105   2.093   8.183
31340WAT     H194262   8.125   2.122   8.090
31340WAT     H294263   8.174   2.026   8.212
31341WAT      O94264   0.441   0.669   7.402
31341WAT     H194265   0.409   0.591   7.456
31341WAT     H294266   0.533   0.695   7.432
31342WAT      O94267   3.500   9.288   8.404
31342WAT     H194268   3.540   9.224   8.339
31342WAT     H294269   3.554   9.372   8.406
31343WAT      O94270   5.770   6.112   7.038
31343WAT     H194271   5.773   6.068   7.128
31343WAT     H294272   5.755   6.210   7.049
31344WAT      O94273   7.391   6.729   4.272
31344WAT     H194274   7.408   6.794   4.197
31344WAT     H294275   7.470   6.726   4.333
31345WAT      O94276   3.827   0.119   2.184
31345WAT     H194277   3.918   0.084   2.164
31345WAT     H294278   3.790   0.162   2.102
31346WAT      O94279   0.346   6.755   2.037
31346WAT     H194280   0.274   6.686   2.031
31346WAT     H294281   0.318   6.838   1.988
31347WAT      O94282   0.344   9.765   9.688
31347WAT     H194283   0.266   9.702   9.689
31347WAT     H294284   0.392   9.757   9.601
31348WAT      O94285   6.423   9.357   3.861
31348WAT     H194286   6.335   9.329   3.822
31348WAT     H294287   6.474   9.275   3.888
31349WAT      O94288   1.505   8.191   5.111
31349WAT     H194289   1.571   8.265   5.101
31349WAT     H294290   1.543   8.120   5.170
31350WAT      O94291   6.082   0.942   1.022
31350WAT     H194292   5.992   0.960   0.983
31350WAT     H294293   6.088   0.847   1.050
31351WAT      O94294   5.360   1.019   2.406
31351WAT     H194295   5.343   0.991   2.312
31351WAT     H294296   5.319   1.110   2.421
31352WAT      O94297   3.909   1.460   6.585
31352WAT     H194298   3.947   1.464   6.677
31352WAT     H294299   3.832   1.524   6.578
31353WAT      O94300   5.167   7.877   8.689
31353WAT     H194301   5.160   7.803   8.622
31353WAT     H294302   5.247   7.863   8.747
31354WAT      O94303   0.682   0.733   6.963
31354WAT     H194304   0.702   0.677   6.882
31354WAT     H294305   0.768   0.753   7.010
31355WAT      O94306   2.188   1.849   5.652
31355WAT     H194307   2.215   1.894   5.567
31355WAT     H294308   2.261   1.858   5.719
31356WAT      O94309   8.006   5.061   6.393
31356WAT     H194310   7.930   5.037   6.334
31356WAT     H294311   8.003   5.005   6.476
31357WAT      O94312   5.671   8.197   8.471
31357WAT     H194313   5.624   8.191   8.383
31357WAT     H294314   5.737   8.272   8.468
31358WAT      O94315   1.300   0.939   1.035
31358WAT     H194316   1.343   1.030   1.033
31358WAT     H294317   1.354   0.878   1.092
31359WAT      O94318   1.334   0.379   7.049
31359WAT     H194319   1.387   0.317   6.991
31359WAT     H294320   1.386   0.398   7.133
31360WAT      O94321   4.508   6.826   0.152
31360WAT     H194322   4.415   6.848   0.182
31360WAT     H294323   4.545   6.903   0.099
31361WAT      O94324   4.624   5.711   0.858
31361WAT     H194325   4.597   5.616   0.873
31361WAT     H294326   4.688   5.715   0.781
31362WAT      O94327   0.602   9.606   3.623
31362WAT     H194328   0.629   9.608   3.527
31362WAT     H294329   0.678   9.574   3.679
31363WAT      O94330   9.752   3.820   7.474
31363WAT     H194331   9.668   3.785   7.431
31363WAT     H294332   9.791   3.749   7.533
31364WAT      O94333   7.039   4.924   9.141
31364WAT     H194334   7.124   4.976   9.140
31364WAT     H294335   7.016   4.899   9.236
31365WAT      O94336   1.115   1.629   4.680
31365WAT     H194337   1.021   1.615   4.647
31365WAT     H294338   1.136   1.559   4.748
31366WAT      O94339   6.967   3.488   3.494
31366WAT     H194340   6.957   3.451   3.402
31366WAT     H294341   7.016   3.423   3.551
31367WAT      O94342   3.760   1.325   2.629
31367WAT     H194343   3.765   1.306   2.727
31367WAT     H294344   3.748   1.239   2.579
31368WAT      O94345   6.551   1.852   7.666
31368WAT     H194346   6.533   1.797   7.748
31368WAT     H294347   6.649   1.869   7.658
31369WAT      O94348   2.683   9.022   6.179
31369WAT     H194349   2.769   9.039   6.227
31369WAT     H294350   2.702   9.012   6.081
31370WAT      O94351   7.116   5.771   7.597
31370WAT     H194352   7.032   5.781   7.650
31370WAT     H294353   7.157   5.682   7.616
31371WAT      O94354   7.366   7.286   3.446
31371WAT     H194355   7.305   7.228   3.393
31371WAT     H294356   7.456   7.290   3.401
31372WAT      O94357   0.056   8.333   5.755
31372WAT     H194358   0.155   8.335   5.769
31372WAT     H294359   0.027   8.413   5.703
31373WAT      O94360   9.574   9.058   3.313
31373WAT     H194361   9.653   9.114   3.290
31373WAT     H294362   9.604   8.969   3.346
31374WAT      O94363   3.606   1.952   9.465
31374WAT     H194364   3.566   2.029   9.515
31374WAT     H294365   3.603   1.971   9.366
31375WAT      O94366   6.772   2.564   8.247
31375WAT     H194367   6.813   2.578   8.157
31375WAT     H294368   6.821   2.619   8.314
31376WAT      O94369   4.895   9.494   7.816
31376WAT     H194370   4.876   9.401   7.784
31376WAT     H294371   4.810   9.538   7.844
31377WAT      O94372   2.782   9.218   6.593
31377WAT     H194373   2.741   9.127   6.605
31377WAT     H294374   2.710   9.288   6.599
31378WAT      O94375   4.007   5.434   4.359
31378WAT     H194376   3.952   5.351   4.369
31378WAT     H294377   4.057   5.450   4.445
31379WAT      O94378   3.945   1.210   5.881
31379WAT     H194379   3.898   1.251   5.959
31379WAT     H294380   3.938   1.271   5.802
31380WAT      O94381   3.090   7.089   2.177
31380WAT     H194382   3.092   7.015   2.109
31380WAT     H294383   3.073   7.051   2.267
31381WAT      O94384   1.762   1.675   6.295
31381WAT     H194385   1.790   1.630   6.380
31381WAT     H294386   1.811   1.635   6.218
31382WAT      O94387   4.213   7.414   8.509
31382WAT     H194388   4.164   7.451   8.431
31382WAT     H294389   4.151   7.407   8.587
31383WAT      O94390   3.168   0.768   4.077
31383WAT     H194391   3.265   0.750   4.093
31383WAT     H294392   3.144   0.741   3.984
31384WAT      O94393   6.555   9.104   1.475
31384WAT     H194394   6.629   9.061   1.423
31384WAT     H294395   6.537   9.051   1.557
31385WAT      O94396   1.376   8.715   3.943
31385WAT     H194397   1.358   8.634   3.999
31385WAT     H294398   1.315   8.716   3.864
31386WAT      O94399   7.155   5.295   2.189
31386WAT     H194400   7.068   5.341   2.205
31386WAT     H294401   7.186   5.252   2.274
31387WAT      O94402   3.386   0.255   5.062
31387WAT     H194403   3.303   0.216   5.023
31387WAT     H294404   3.442   0.182   5.102
31388WAT      O94405   8.496   2.315   0.405
31388WAT     H194406   8.440   2.234   0.388
31388WAT     H294407   8.534   2.349   0.319
31389WAT      O94408   4.863   6.888   1.975
31389WAT     H194409   4.830   6.869   1.882
31389WAT     H294410   4.891   6.984   1.981
31390WAT      O94411   4.180   3.395   9.617
31390WAT     H194412   4.175   3.392   9.517
31390WAT     H294413   4.176   3.490   9.648
31391WAT      O94414   6.962   1.249   6.002
31391WAT     H194415   6.893   1.273   6.070
31391WAT     H294416   7.007   1.164   6.029
31392WAT      O94417   5.027   6.530   4.176
31392WAT     H194418   5.069   6.615   4.144
31392WAT     H294419   5.083   6.490   4.248
31393WAT      O94420   6.454   2.831   4.634
31393WAT     H194421   6.419   2.879   4.714
31393WAT     H294422   6.551   2.811   4.648
31394WAT      O94423   3.715   7.985   0.870
31394WAT     H194424   3.696   8.041   0.789
31394WAT     H294425   3.632   7.935   0.895
31395WAT      O94426   5.458   0.635   7.908
31395WAT     H194427   5.408   0.672   7.829
31395WAT     H294428   5.503   0.549   7.882
31396WAT      O94429   5.420   7.272   5.386
31396WAT     H194430   5.432   7.303   5.480
31396WAT     H294431   5.505   7.286   5.335
31397WAT      O94432   1.287   4.623   1.052
31397WAT     H194433   1.225   4.547   1.072
31397WAT     H294434   1.371   4.613   1.106
31398WAT      O94435   3.406   5.080   9.073
31398WAT     H194436   3.394   4.984   9.100
31398WAT     H294437   3.408   5.138   9.154
31399WAT      O94438   5.657   8.379   6.437
31399WAT     H194439   5.580   8.355   6.496
31399WAT     H294440   5.627   8.444   6.367
31400WAT      O94441   3.707   4.086   8.048
31400WAT     H194442   3.608   4.100   8.039
31400WAT     H294443   3.747   4.076   7.957
31401WAT      O94444   1.013   8.959   3.030
31401WAT     H194445   0.975   9.051   3.037
31401WAT     H294446   1.064   8.937   3.113
31402WAT      O94447   5.113   5.213   2.613
31402WAT     H194448   5.151   5.131   2.570
31402WAT     H294449   5.014   5.203   2.621
31403WAT      O94450   6.267   4.203   9.834
31403WAT     H194451   6.171   4.184   9.855
31403WAT     H294452   6.311   4.119   9.802
31404WAT      O94453   9.344   9.353   3.625
31404WAT     H194454   9.335   9.399   3.714
31404WAT     H294455   9.320   9.256   3.635
31405WAT      O94456   0.411   3.717   0.130
31405WAT     H194457   0.427   3.736   0.033
31405WAT     H294458   0.497   3.691   0.173
31406WAT      O94459   1.478   9.609   0.387
31406WAT     H194460   1.568   9.619   0.344
31406WAT     H294461   1.445   9.515   0.375
31407WAT      O94462   5.902   3.525   5.433
31407WAT     H194463   5.828   3.579   5.395
31407WAT     H294464   5.923   3.448   5.373
31408WAT      O94465   2.735   7.711   2.964
31408WAT     H194466   2.707   7.616   2.947
31408WAT     H294467   2.778   7.748   2.882
31409WAT      O94468   8.016   7.126   0.978
31409WAT     H194469   8.052   7.037   1.007
31409WAT     H294470   8.076   7.198   1.011
31410WAT      O94471   2.089   0.449   9.882
31410WAT     H194472   2.050   0.395   9.957
31410WAT     H294473   2.187   0.429   9.875
31411WAT      O94474   8.165   5.451   4.172
31411WAT     H194475   8.260   5.419   4.165
31411WAT     H294476   8.151   5.527   4.109
31412WAT      O94477   3.536   8.541   4.362
31412WAT     H194478   3.531   8.447   4.328
31412WAT     H294479   3.587   8.543   4.447
31413WAT      O94480   9.231   1.624   7.469
31413WAT     H194481   9.243   1.616   7.370
31413WAT     H294482   9.307   1.579   7.516
31414WAT      O94483   0.778   0.560   6.735
31414WAT     H194484   0.764   0.556   6.636
31414WAT     H294485   0.871   0.529   6.757
31415WAT      O94486   6.756   1.615   5.075
31415WAT     H194487   6.711   1.607   4.987
31415WAT     H294488   6.821   1.540   5.087
31416WAT      O94489   0.621   7.947   1.914
31416WAT     H194490   0.552   8.016   1.937
31416WAT     H294491   0.576   7.861   1.889
31417WAT      O94492   8.241   3.974   1.934
31417WAT     H194493   8.275   4.030   1.858
31417WAT     H294494   8.175   3.908   1.900
31418WAT      O94495   1.017   0.560   7.229
31418WAT     H194496   0.938   0.524   7.279
31418WAT     H294497   0.991   0.644   7.182
31419WAT      O94498   1.005   5.442   0.342
31419WAT     H194499   1.069   5.379   0.386
31419WAT     H294500   1.042   5.472   0.254
31420WAT      O94501   2.726   3.083   2.007
31420WAT     H194502   2.662   3.022   2.055
31420WAT     H294503   2.812   3.087   2.058
31421WAT      O94504   9.483   7.037   3.705
31421WAT     H194505   9.485   7.042   3.605
31421WAT     H294506   9.427   6.959   3.733
31422WAT      O94507   2.096   1.945   3.709
31422WAT     H194508   2.112   2.044   3.707
31422WAT     H294509   2.125   1.908   3.797
31423WAT      O94510   6.052   2.301   8.348
31423WAT     H194511   6.150   2.307   8.366
31423WAT     H294512   6.034   2.327   8.253
31424WAT      O94513   4.544   5.349   8.690
31424WAT     H194514   4.589   5.272   8.645
31424WAT     H294515   4.597   5.432   8.675
31425WAT      O94516   8.725   8.646   5.662
31425WAT     H194517   8.771   8.683   5.582
31425WAT     H294518   8.653   8.583   5.633
31426WAT      O94519   9.687   4.273   8.042
31426WAT     H194520   9.767   4.224   8.005
31426WAT     H294521   9.655   4.226   8.124
31427WAT      O94522   5.430   6.210   6.850
31427WAT     H194523   5.467   6.162   6.930
31427WAT     H294524   5.503   6.261   6.805
31428WAT      O94525   9.620   6.624   8.136
31428WAT     H194526   9.537   6.574   8.110
31428WAT     H294527   9.697   6.562   8.140
31429WAT      O94528   8.123   6.452   8.770
31429WAT     H194529   8.114   6.383   8.841
31429WAT     H294530   8.155   6.538   8.811
31430WAT      O94531   5.272   0.828   8.359
31430WAT     H194532   5.208   0.905   8.356
31430WAT     H294533   5.365   0.862   8.374
31431WAT      O94534   9.006   0.457   9.452
31431WAT     H194535   9.067   0.382   9.478
31431WAT     H294536   8.958   0.491   9.533
31432WAT      O94537   5.337   7.354   2.204
31432WAT     H194538   5.279   7.427   2.166
31432WAT     H294539   5.351   7.284   2.134
31433WAT      O94540   3.834   3.362   1.568
31433WAT     H194541   3.917   3.369   1.625
31433WAT     H294542   3.759   3.409   1.614
31434WAT      O94543   2.853   8.951   4.418
31434WAT     H194544   2.840   9.037   4.467
31434WAT     H294545   2.799   8.879   4.461
31435WAT      O94546   2.091   8.409   6.199
31435WAT     H194547   2.050   8.471   6.267
31435WAT     H294548   2.164   8.457   6.151
31436WAT      O94549   9.832   2.921   0.552
31436WAT     H194550   9.896   2.953   0.622
31436WAT     H294551   9.739   2.952   0.576
31437WAT      O94552   0.632   0.928   2.316
31437WAT     H194553   0.662   0.919   2.411
31437WAT     H294554   0.571   1.007   2.308
31438WAT      O94555   1.784   7.170   3.523
31438WAT     H194556   1.807   7.163   3.426
31438WAT     H294557   1.771   7.266   3.547
31439WAT      O94558   4.446   9.657   5.567
31439WAT     H194559   4.374   9.715   5.530
31439WAT     H294560   4.525   9.658   5.506
31440WAT      O94561   5.096   1.446   5.489
31440WAT     H194562   5.168   1.378   5.472
31440WAT     H294563   5.138   1.533   5.515
31441WAT      O94564   1.452   0.372   1.958
31441WAT     H194565   1.425   0.321   1.876
31441WAT     H294566   1.548   0.353   1.979
31442WAT      O94567   0.538   6.567   2.462
31442WAT     H194568   0.530   6.479   2.508
31442WAT     H294569   0.488   6.637   2.513
31443WAT      O94570   0.062   3.958   5.625
31443WAT     H194571  -0.031   3.931   5.652
31443WAT     H294572   0.125   3.936   5.699
31444WAT      O94573   5.494   9.828   1.084
31444WAT     H194574   5.531   9.888   1.013
31444WAT     H294575   5.553   9.831   1.164
31445WAT      O94576   2.167   8.523   5.845
31445WAT     H194577   2.253   8.535   5.894
31445WAT     H294578   2.146   8.426   5.838
31446WAT      O94579   1.511   9.041   4.861
31446WAT     H194580   1.565   9.059   4.778
31446WAT     H294581   1.532   9.110   4.930
31447WAT      O94582   3.212   7.715   0.109
31447WAT     H194583   3.246   7.703   0.016
31447WAT     H294584   3.265   7.785   0.156
31448WAT      O94585   5.992   1.905   0.565
31448WAT     H194586   5.955   1.993   0.596
31448WAT     H294587   5.927   1.862   0.503
31449WAT      O94588   2.056   9.562   7.395
31449WAT     H194589   2.086   9.650   7.432
31449WAT     H294590   2.040   9.571   7.296
31450WAT      O94591   7.497   6.332   9.193
31450WAT     H194592   7.568   6.276   9.235
31450WAT     H294593   7.474   6.408   9.253
31451WAT      O94594   7.573   3.896   3.056
31451WAT     H194595   7.623   3.938   3.131
31451WAT     H294596   7.611   3.805   3.037
31452WAT      O94597   3.134   5.040   1.543
31452WAT     H194598   3.216   5.085   1.576
31452WAT     H294599   3.060   5.107   1.532
31453WAT      O94600   0.965   0.992   1.340
31453WAT     H194601   0.991   1.014   1.247
31453WAT     H294602   0.880   0.939   1.339
31454WAT      O94603   8.233   7.888   1.169
31454WAT     H194604   8.284   7.927   1.093
31454WAT     H294605   8.295   7.873   1.247
31455WAT      O94606   8.074   1.370   8.978
31455WAT     H194607   8.002   1.377   8.910
31455WAT     H294608   8.119   1.281   8.970
31456WAT      O94609   1.380   3.237   6.899
31456WAT     H194610   1.354   3.142   6.915
31456WAT     H294611   1.476   3.241   6.872
31457WAT      O94612   1.769   8.099   0.284
31457WAT     H194613   1.729   8.012   0.255
31457WAT     H294614   1.860   8.109   0.243
31458WAT      O94615   0.326   2.837   6.787
31458WAT     H194616   0.408   2.782   6.801
31458WAT     H294617   0.310   2.895   6.867
31459WAT      O94618   8.928   6.211   7.772
31459WAT     H194619   8.878   6.145   7.715
31459WAT     H294620   8.935   6.176   7.865
31460WAT      O94621   5.789   2.209   3.787
31460WAT     H194622   5.746   2.121   3.808
31460WAT     H294623   5.888   2.202   3.802
31461WAT      O94624   2.156   6.363   9.045
31461WAT     H194625   2.153   6.419   8.963
31461WAT     H294626   2.083   6.390   9.108
31462WAT      O94627   1.617   6.097   2.504
31462WAT     H194628   1.560   6.179   2.495
31462WAT     H294629   1.612   6.063   2.598
31463WAT      O94630   0.512   7.210   9.682
31463WAT     H194631   0.598   7.165   9.658
31463WAT     H294632   0.438   7.143   9.682
31464WAT      O94633   8.031   6.793   6.372
31464WAT     H194634   8.061   6.796   6.277
31464WAT     H294635   8.027   6.698   6.403
31465WAT      O94636   0.285   1.056   0.184
31465WAT     H194637   0.265   1.154   0.185
31465WAT     H294638   0.343   1.035   0.105
31466WAT      O94639   5.749   9.486   2.894
31466WAT     H194640   5.802   9.491   2.810
31466WAT     H294641   5.784   9.411   2.951
31467WAT      O94642   1.427   6.207   7.748
31467WAT     H194643   1.447   6.250   7.836
31467WAT     H294644   1.340   6.157   7.755
31468WAT      O94645   7.714   4.374   1.529
31468WAT     H194646   7.631   4.382   1.474
31468WAT     H294647   7.773   4.453   1.511
31469WAT      O94648   8.255   0.551   6.994
31469WAT     H194649   8.295   0.475   6.943
31469WAT     H294650   8.328   0.601   7.041
31470WAT      O94651   4.906   2.095   8.812
31470WAT     H194652   4.990   2.070   8.764
31470WAT     H294653   4.839   2.130   8.746
31471WAT      O94654   5.362   9.039   4.015
31471WAT     H194655   5.449   8.991   4.021
31471WAT     H294656   5.288   8.976   4.041
31472WAT      O94657   6.403   2.442   6.667
31472WAT     H194658   6.364   2.428   6.758
31472WAT     H294659   6.355   2.517   6.621
31473WAT      O94660   7.629   6.429   6.495
31473WAT     H194661   7.587   6.346   6.459
31473WAT     H294662   7.562   6.503   6.494
31474WAT      O94663   3.027   6.387   0.296
31474WAT     H194664   3.124   6.365   0.286
31474WAT     H294665   2.972   6.308   0.270
31475WAT      O94666   5.639   1.434   2.059
31475WAT     H194667   5.703   1.426   2.135
31475WAT     H294668   5.687   1.469   1.978
31476WAT      O94669   1.393   1.770   0.315
31476WAT     H194670   1.344   1.856   0.332
31476WAT     H294671   1.463   1.785   0.245
31477WAT      O94672   1.778   7.158   2.387
31477WAT     H194673   1.687   7.198   2.395
31477WAT     H294674   1.843   7.229   2.361
31478WAT      O94675   3.198   1.700   1.544
31478WAT     H194676   3.257   1.641   1.599
31478WAT     H294677   3.139   1.754   1.603
31479WAT      O94678   1.813   5.803   3.427
31479WAT     H194679   1.869   5.872   3.381
31479WAT     H294680   1.870   5.752   3.492
31480WAT      O94681   4.565   9.596   6.285
31480WAT     H194682   4.540   9.499   6.278
31480WAT     H294683   4.490   9.652   6.251
31481WAT      O94684   8.150   3.656   4.134
31481WAT     H194685   8.200   3.662   4.220
31481WAT     H294686   8.052   3.655   4.152
31482WAT      O94687   0.736   8.235   2.132
31482WAT     H194688   0.773   8.207   2.044
31482WAT     H294689   0.778   8.322   2.160
31483WAT      O94690   2.452   8.974   6.783
31483WAT     H194691   2.420   8.885   6.749
31483WAT     H294692   2.443   8.976   6.883
31484WAT      O94693   2.713   7.586   7.984
31484WAT     H194694   2.693   7.559   8.078
31484WAT     H294695   2.650   7.539   7.922
31485WAT      O94696   4.568   2.398   0.093
31485WAT     H194697   4.601   2.445   0.175
31485WAT     H294698   4.523   2.463   0.033
31486WAT      O94699   5.754   9.429   4.123
31486WAT     H194700   5.798   9.465   4.205
31486WAT     H294701   5.815   9.438   4.045
31487WAT      O94702   2.302   6.381   8.267
31487WAT     H194703   2.370   6.347   8.332
31487WAT     H294704   2.216   6.399   8.314
31488WAT      O94705   5.909   2.972   9.138
31488WAT     H194706   5.921   2.918   9.055
31488WAT     H294707   5.811   2.986   9.154
31489WAT      O94708   8.342   5.183   1.383
31489WAT     H194709   8.414   5.246   1.415
31489WAT     H294710   8.359   5.092   1.421
31490WAT      O94711   4.034   0.926   2.167
31490WAT     H194712   3.974   0.942   2.088
31490WAT     H294713   3.989   0.863   2.230
31491WAT      O94714   3.524   1.191   8.454
31491WAT     H194715   3.455   1.121   8.463
31491WAT     H294716   3.511   1.262   8.524
31492WAT      O94717   0.163   1.049   4.201
31492WAT     H194718   0.198   0.959   4.227
31492WAT     H294719   0.107   1.086   4.275
31493WAT      O94720   6.396   2.387   5.692
31493WAT     H194721   6.439   2.396   5.781
31493WAT     H294722   6.329   2.312   5.694
31494WAT      O94723   8.908   5.316   3.155
31494WAT     H194724   8.932   5.225   3.188
31494WAT     H294725   8.870   5.370   3.230
31495WAT      O94726   1.721   7.828   8.458
31495WAT     H194727   1.757   7.747   8.413
31495WAT     H294728   1.622   7.834   8.442
31496WAT      O94729   1.677   4.303   4.216
31496WAT     H194730   1.707   4.347   4.300
31496WAT     H294731   1.753   4.254   4.174
31497WAT      O94732   6.988   8.730   8.590
31497WAT     H194733   6.902   8.748   8.542
31497WAT     H294734   6.969   8.685   8.677
31498WAT      O94735   3.892   7.239   9.052
31498WAT     H194736   3.943   7.153   9.047
31498WAT     H294737   3.818   7.231   9.119
31499WAT      O94738   2.201   5.759   7.977
31499WAT     H194739   2.289   5.768   7.931
31499WAT     H294740   2.128   5.754   7.909
31500WAT      O94741   1.937   5.083   5.271
31500WAT     H194742   2.036   5.074   5.283
31500WAT     H294743   1.917   5.173   5.232
31501WAT      O94744   4.017   8.820   8.057
31501WAT     H194745   3.999   8.773   8.143
31501WAT     H294746   3.934   8.818   8.001
31502WAT      O94747   0.738   1.959   3.459
31502WAT     H194748   0.660   2.009   3.422
31502WAT     H294749   0.774   1.897   3.390
31503WAT      O94750   8.242   2.401   0.538
31503WAT     H194751   8.332   2.368   0.508
31503WAT     H294752   8.250   2.440   0.630
31504WAT      O94753   7.727   2.944   8.918
31504WAT     H194754   7.641   2.954   8.868
31504WAT     H294755   7.707   2.927   9.015
31505WAT      O94756   8.777   7.405   0.075
31505WAT     H194757   8.876   7.423   0.076
31505WAT     H294758   8.731   7.479   0.026
31506WAT      O94759   4.047   4.260   2.922
31506WAT     H194760   4.132   4.248   2.870
31506WAT     H294761   3.985   4.184   2.903
31507WAT      O94762   9.404   8.544   3.026
31507WAT     H194763   9.391   8.447   3.046
31507WAT     H294764   9.389   8.598   3.109
31508WAT      O94765   2.280   2.779   9.282
31508WAT     H194766   2.265   2.869   9.323
31508WAT     H294767   2.375   2.770   9.255
31509WAT      O94768   5.192   0.709   8.600
31509WAT     H194769   5.112   0.757   8.634
31509WAT     H294770   5.214   0.741   8.508
31510WAT      O94771   5.249   0.434   8.496
31510WAT     H194772   5.268   0.429   8.398
31510WAT     H294773   5.267   0.527   8.529
31511WAT      O94774   1.351   9.611   8.097
31511WAT     H194775   1.400   9.591   8.012
31511WAT     H294776   1.376   9.703   8.129
31512WAT      O94777   5.377   2.105   3.936
31512WAT     H194778   5.427   2.188   3.914
31512WAT     H294779   5.279   2.121   3.924
31513WAT      O94780   7.062   4.074   2.903
31513WAT     H194781   7.070   3.980   2.869
31513WAT     H294782   7.079   4.138   2.828
31514WAT      O94783   2.510   7.545   3.676
31514WAT     H194784   2.520   7.564   3.774
31514WAT     H294785   2.466   7.623   3.632
31515WAT      O94786   8.808   8.064   5.447
31515WAT     H194787   8.903   8.044   5.474
31515WAT     H294788   8.752   8.076   5.529
31516WAT      O94789   1.186   4.147   1.588
31516WAT     H194790   1.248   4.071   1.566
31516WAT     H294791   1.096   4.130   1.549
31517WAT      O94792   3.795   0.219   7.466
31517WAT     H194793   3.867   0.239   7.400
31517WAT     H294794   3.731   0.296   7.470
31518WAT      O94795   8.386   5.095   4.075
31518WAT     H194796   8.308   5.072   4.016
31518WAT     H294797   8.399   5.022   4.142
31519WAT      O94798   9.387   8.598   2.533
31519WAT     H194799   9.383   8.526   2.603
31519WAT     H294800   9.305   8.655   2.539
31520WAT      O94801   4.783   4.554   8.631
31520WAT     H194802   4.710   4.621   8.642
31520WAT     H294803   4.832   4.544   8.718
31521WAT      O94804   0.395   7.103   2.905
31521WAT     H194805   0.440   7.137   2.988
31521WAT     H294806   0.305   7.068   2.927
31522WAT      O94807   8.987   8.645   6.663
31522WAT     H194808   9.015   8.602   6.577
31522WAT     H294809   8.969   8.574   6.731
31523WAT      O94810   7.038   2.378   6.146
31523WAT     H194811   7.006   2.300   6.200
31523WAT     H294812   7.043   2.352   6.050
31524WAT      O94813   6.977   0.025   3.022
31524WAT     H194814   6.927  -0.043   2.968
31524WAT     H294815   7.016  -0.020   3.103
31525WAT      O94816   4.964   5.446   3.244
31525WAT     H194817   4.970   5.446   3.144
31525WAT     H294818   4.986   5.354   3.279
31526WAT      O94819   0.875   5.154   7.985
31526WAT     H194820   0.800   5.205   8.028
31526WAT     H294821   0.863   5.154   7.886
31527WAT      O94822   5.842   6.281   9.683
31527WAT     H194823   5.826   6.281   9.584
31527WAT     H294824   5.877   6.192   9.711
31528WAT      O94825   0.124   9.740   0.108
31528WAT     H194826   0.130   9.689   0.022
31528WAT     H294827   0.041   9.795   0.107
31529WAT      O94828   0.139   1.574   2.708
31529WAT     H194829   0.220   1.610   2.662
31529WAT     H294830   0.142   1.596   2.805
31530WAT      O94831   0.992   1.524   4.299
31530WAT     H194832   1.089   1.544   4.291
31530WAT     H294833   0.980   1.435   4.342
31531WAT      O94834   9.686   3.909   4.656
31531WAT     H194835   9.779   3.915   4.691
31531WAT     H294836   9.633   3.988   4.687
31532WAT      O94837   4.863   8.969   1.435
31532WAT     H194838   4.805   8.977   1.516
31532WAT     H294839   4.935   9.038   1.439
31533WAT      O94840   9.195   0.308   7.522
31533WAT     H194841   9.102   0.330   7.552
31533WAT     H294842   9.260   0.346   7.587
31534WAT      O94843   8.051   6.062   4.908
31534WAT     H194844   8.120   6.118   4.862
31534WAT     H294845   8.092   6.014   4.985
31535WAT      O94846   8.026   5.343   8.130
31535WAT     H194847   8.035   5.277   8.205
31535WAT     H294848   8.032   5.295   8.042
31536WAT      O94849   5.449   7.367   7.854
31536WAT     H194850   5.409   7.322   7.774
31536WAT     H294851   5.446   7.467   7.841
31537WAT      O94852   2.016   1.594   2.251
31537WAT     H194853   2.066   1.507   2.246
31537WAT     H294854   1.976   1.604   2.342
31538WAT      O94855   0.074   5.121   8.347
31538WAT     H194856   0.159   5.125   8.293
31538WAT     H294857  -0.002   5.096   8.287
31539WAT      O94858   4.094   1.930   1.451
31539WAT     H194859   4.030   1.873   1.502
31539WAT     H294860   4.188   1.909   1.480
31540WAT      O94861   2.919   4.026   0.150
31540WAT     H194862   2.825   4.019   0.184
31540WAT     H294863   2.958   3.935   0.141
31541WAT      O94864   8.394   8.319   6.767
31541WAT     H194865   8.377   8.290   6.861
31541WAT     H294866   8.307   8.336   6.721
31542WAT      O94867   6.956   1.930   2.404
31542WAT     H194868   6.900   1.880   2.338
31542WAT     H294869   7.034   1.972   2.357
31543WAT      O94870   1.403   9.083   5.552
31543WAT     H194871   1.387   9.180   5.534
31543WAT     H294872   1.489   9.055   5.510
31544WAT      O94873   3.369   9.245   0.295
31544WAT     H194874   3.361   9.299   0.211
31544WAT     H294875   3.458   9.201   0.298
31545WAT      O94876   1.818   8.530   8.142
31545WAT     H194877   1.782   8.623   8.149
31545WAT     H294878   1.881   8.513   8.218
31546WAT      O94879   1.122   1.373   6.403
31546WAT     H194880   1.187   1.334   6.338
31546WAT     H294881   1.143   1.470   6.415
31547WAT      O94882   0.386   0.220   8.788
31547WAT     H194883   0.345   0.139   8.746
31547WAT     H294884   0.433   0.274   8.718
31548WAT      O94885   8.060   9.445   6.572
31548WAT     H194886   7.988   9.403   6.516
31548WAT     H294887   8.096   9.378   6.637
31549WAT      O94888   2.913   9.659   5.882
31549WAT     H194889   2.940   9.576   5.930
31549WAT     H294890   2.987   9.726   5.885
31550WAT      O94891   8.103   2.298   7.623
31550WAT     H194892   8.155   2.363   7.679
31550WAT     H294893   8.006   2.321   7.627
31551WAT      O94894   4.089   4.197   4.294
31551WAT     H194895   4.135   4.127   4.239
31551WAT     H294896   4.138   4.208   4.381
31552WAT      O94897   3.992   7.578   3.508
31552WAT     H194898   3.985   7.539   3.599
31552WAT     H294899   3.990   7.504   3.440
31553WAT      O94900   5.818   5.262   7.242
31553WAT     H194901   5.802   5.261   7.144
31553WAT     H294902   5.742   5.306   7.289
31554WAT      O94903   4.016   9.082   1.722
31554WAT     H194904   3.999   9.156   1.658
31554WAT     H294905   3.944   9.012   1.712
31555WAT      O94906   1.052   7.864   7.616
31555WAT     H194907   1.036   7.942   7.555
31555WAT     H294908   1.034   7.892   7.711
31556WAT      O94909   7.446   8.582   0.228
31556WAT     H194910   7.534   8.619   0.198
31556WAT     H294911   7.460   8.528   0.311
31557WAT      O94912   1.212   5.787   3.592
31557WAT     H194913   1.290   5.734   3.558
31557WAT     H294914   1.154   5.728   3.647
31558WAT      O94915   7.373   1.069   0.898
31558WAT     H194916   7.462   1.111   0.916
31558WAT     H294917   7.305   1.107   0.962
31559WAT      O94918   7.947   8.560   5.438
31559WAT     H194919   7.951   8.476   5.384
31559WAT     H294920   8.040   8.585   5.467
31560WAT      O94921   7.619   9.168   9.119
31560WAT     H194922   7.553   9.191   9.191
31560WAT     H294923   7.574   9.110   9.050
31561WAT      O94924   8.169   0.830   7.356
31561WAT     H194925   8.206   0.860   7.444
31561WAT     H294926   8.069   0.825   7.362
31562WAT      O94927   6.283   5.160   8.488
31562WAT     H194928   6.344   5.239   8.482
31562WAT     H294929   6.199   5.180   8.437
31563WAT      O94930   1.819   7.207   0.792
31563WAT     H194931   1.759   7.127   0.788
31563WAT     H294932   1.908   7.180   0.830
31564WAT      O94933   3.743   5.382   2.382
31564WAT     H194934   3.797   5.461   2.411
31564WAT     H294935   3.662   5.413   2.333
31565WAT      O94936   4.734   6.464   8.096
31565WAT     H194937   4.706   6.531   8.166
31565WAT     H294938   4.756   6.512   8.011
31566WAT      O94939   1.890   9.481   4.267
31566WAT     H194940   1.820   9.549   4.284
31566WAT     H294941   1.958   9.484   4.340
31567WAT      O94942   2.738   0.679   7.010
31567WAT     H194943   2.812   0.712   7.069
31567WAT     H294944   2.664   0.746   7.008
31568WAT      O94945   0.892   8.442   4.254
31568WAT     H194946   0.870   8.350   4.223
31568WAT     H294947   0.810   8.499   4.251
31569WAT      O94948   4.572   8.195   4.873
31569WAT     H194949   4.626   8.232   4.797
31569WAT     H294950   4.567   8.262   4.947
31570WAT      O94951   2.663   4.209   2.716
31570WAT     H194952   2.636   4.187   2.810
31570WAT     H294953   2.685   4.125   2.667
31571WAT      O94954   2.075   0.030   3.251
31571WAT     H194955   2.012   0.093   3.205
31571WAT     H294956   2.023  -0.048   3.286
31572WAT      O94957   7.335   1.761   0.284
31572WAT     H194958   7.352   1.858   0.301
31572WAT     H294959   7.241   1.738   0.310
31573WAT      O94960   5.824   8.832   2.344
31573WAT     H194961   5.835   8.830   2.244
31573WAT     H294962   5.734   8.797   2.368
31574WAT      O94963   9.810   9.464   3.213
31574WAT     H194964   9.843   9.371   3.231
31574WAT     H294965   9.711   9.466   3.224
31575WAT      O94966   4.902   4.820   3.572
31575WAT     H194967   4.897   4.892   3.503
31575WAT     H294968   4.990   4.772   3.564
31576WAT      O94969   3.862   8.005   8.033
31576WAT     H194970   3.791   8.045   8.090
31576WAT     H294971   3.938   7.974   8.090
31577WAT      O94972   7.833   6.466   2.152
31577WAT     H194973   7.772   6.540   2.126
31577WAT     H294974   7.782   6.380   2.154
31578WAT      O94975   8.133   8.977   1.553
31578WAT     H194976   8.099   8.891   1.589
31578WAT     H294977   8.126   8.978   1.453
31579WAT      O94978   5.881   8.518   1.612
31579WAT     H194979   5.980   8.515   1.626
31579WAT     H294980   5.851   8.612   1.597
31580WAT      O94981   0.118   8.320   2.980
31580WAT     H194982   0.169   8.297   3.063
31580WAT     H294983   0.171   8.385   2.925
31581WAT      O94984   2.798   6.333   1.372
31581WAT     H194985   2.768   6.380   1.456
31581WAT     H294986   2.827   6.240   1.395
31582WAT      O94987   8.004   2.940   7.335
31582WAT     H194988   7.906   2.956   7.349
31582WAT     H294989   8.053   3.027   7.344
31583WAT      O94990   7.393   3.581   5.073
31583WAT     H194991   7.373   3.678   5.082
31583WAT     H294992   7.489   3.564   5.096
31584WAT      O94993   5.482   3.221   6.140
31584WAT     H194994   5.391   3.192   6.109
31584WAT     H294995   5.492   3.319   6.129
31585WAT      O94996   0.522   7.886   4.804
31585WAT     H194997   0.586   7.850   4.736
31585WAT     H294998   0.429   7.860   4.780
31586WAT      O94999   9.452   6.421   6.388
31586WAT     H195000   9.489   6.328   6.376
31586WAT     H295001   9.364   6.427   6.341
31587WAT      O95002   8.195   6.125   0.477
31587WAT     H195003   8.137   6.066   0.421
31587WAT     H295004   8.215   6.209   0.427
31588WAT      O95005   8.270   4.642   5.757
31588WAT     H195006   8.317   4.556   5.772
31588WAT     H295007   8.213   4.636   5.675
31589WAT      O95008   6.996   4.830   5.222
31589WAT     H195009   6.905   4.791   5.205
31589WAT     H295010   7.049   4.767   5.279
31590WAT      O95011   9.876   8.786   5.051
31590WAT     H195012   9.905   8.860   5.111
31590WAT     H295013   9.783   8.758   5.074
31591WAT      O95014   2.867   0.347   8.934
31591WAT     H195015   2.868   0.260   8.885
31591WAT     H295016   2.901   0.333   9.027
31592WAT      O95017   2.513   5.392   5.419
31592WAT     H195018   2.550   5.367   5.509
31592WAT     H295019   2.569   5.464   5.378
31593WAT      O95020   2.846   0.867   8.579
31593WAT     H195021   2.821   0.771   8.565
31593WAT     H295022   2.919   0.872   8.648
31594WAT      O95023   6.985   3.004   4.589
31594WAT     H195024   6.980   3.098   4.557
31594WAT     H295025   6.906   2.952   4.555
31595WAT      O95026   9.664   4.799   8.451
31595WAT     H195027   9.707   4.860   8.384
31595WAT     H295028   9.608   4.853   8.514
31596WAT      O95029   6.504   7.856   2.215
31596WAT     H195030   6.480   7.777   2.272
31596WAT     H295031   6.603   7.859   2.203
31597WAT      O95032   6.097   4.533   9.588
31597WAT     H195033   6.082   4.495   9.679
31597WAT     H295034   6.054   4.474   9.520
31598WAT      O95035   6.458   7.067   0.973
31598WAT     H195036   6.368   7.081   0.933
31598WAT     H295037   6.449   7.019   1.060
31599WAT      O95038   2.111   4.042   6.762
31599WAT     H195039   2.183   4.110   6.752
31599WAT     H295040   2.093   4.001   6.672
31600WAT      O95041   3.892   7.512   3.265
31600WAT     H195042   3.823   7.564   3.314
31600WAT     H295043   3.963   7.574   3.232
31601WAT      O95044   0.990   7.613   9.434
31601WAT     H195045   0.970   7.560   9.516
31601WAT     H295046   0.970   7.709   9.450
31602WAT      O95047   7.262   0.053   7.742
31602WAT     H195048   7.233   0.065   7.647
31602WAT     H295049   7.207  -0.020   7.784
31603WAT      O95050   1.843   9.468   7.092
31603WAT     H195051   1.837   9.381   7.141
31603WAT     H295052   1.915   9.463   7.023
31604WAT      O95053   9.021   8.239   9.364
31604WAT     H195054   9.048   8.194   9.279
31604WAT     H295055   9.058   8.332   9.366
31605WAT      O95056   6.064   1.170   6.676
31605WAT     H195057   6.065   1.270   6.680
31605WAT     H295058   5.970   1.138   6.680
31606WAT      O95059   5.515   6.759   3.872
31606WAT     H195060   5.476   6.847   3.899
31606WAT     H295061   5.522   6.754   3.772
31607WAT      O95062   7.672   9.497   6.774
31607WAT     H195063   7.599   9.526   6.836
31607WAT     H295064   7.675   9.398   6.769
31608WAT      O95065   5.297   8.028   9.785
31608WAT     H195066   5.215   8.086   9.784
31608WAT     H295067   5.318   7.999   9.692
31609WAT      O95068   3.745   8.027   0.298
31609WAT     H195069   3.839   7.995   0.311
31609WAT     H295070   3.685   7.981   0.364
31610WAT      O95071   7.300   8.557   7.441
31610WAT     H195072   7.277   8.496   7.366
31610WAT     H295073   7.278   8.651   7.415
31611WAT      O95074   4.164   8.948   5.728
31611WAT     H195075   4.230   9.012   5.767
31611WAT     H295076   4.159   8.961   5.629
31612WAT      O95077   1.613   8.632   5.197
31612WAT     H195078   1.677   8.649   5.272
31612WAT     H295079   1.663   8.597   5.118
31613WAT      O95080   1.181   5.610   9.241
31613WAT     H195081   1.186   5.686   9.306
31613WAT     H295082   1.085   5.592   9.218
31614WAT      O95083   5.792   4.999   8.900
31614WAT     H195084   5.871   4.940   8.911
31614WAT     H295085   5.792   5.070   8.971
31615WAT      O95086   2.982   6.145   5.523
31615WAT     H195087   2.914   6.127   5.594
31615WAT     H295088   3.073   6.150   5.564
31616WAT      O95089   1.109   8.555   4.118
31616WAT     H195090   1.136   8.485   4.052
31616WAT     H295091   1.036   8.519   4.176
31617WAT      O95092   6.129   5.937   9.155
31617WAT     H195093   6.174   5.914   9.241
31617WAT     H295094   6.153   5.870   9.085
31618WAT      O95095   5.671   1.218   1.553
31618WAT     H195096   5.579   1.225   1.514
31618WAT     H295097   5.738   1.251   1.486
31619WAT      O95098   6.292   1.447   3.117
31619WAT     H195099   6.215   1.387   3.141
31619WAT     H295100   6.351   1.458   3.197
31620WAT      O95101   1.443   3.083   5.255
31620WAT     H195102   1.361   3.140   5.260
31620WAT     H295103   1.451   3.028   5.339
31621WAT      O95104   5.206   2.214   5.836
31621WAT     H195105   5.272   2.266   5.892
31621WAT     H295106   5.127   2.190   5.893
31622WAT      O95107   7.381   6.338   5.267
31622WAT     H195108   7.320   6.328   5.188
31622WAT     H295109   7.461   6.279   5.255
31623WAT      O95110   5.914   5.903   6.813
31623WAT     H195111   5.944   5.995   6.786
31623WAT     H295112   5.815   5.897   6.803
31624WAT      O95113   8.972   5.019   6.262
31624WAT     H195114   8.974   5.076   6.344
31624WAT     H295115   8.890   4.961   6.265
31625WAT      O95116   7.509   2.326   1.604
31625WAT     H195117   7.443   2.401   1.609
31625WAT     H295118   7.586   2.353   1.545
31626WAT      O95119   8.970   4.994   7.743
31626WAT     H195120   8.880   4.955   7.720
31626WAT     H295121   9.010   5.034   7.661
31627WAT      O95122   2.655   4.313   5.102
31627WAT     H195123   2.699   4.232   5.063
31627WAT     H295124   2.716   4.392   5.091
31628WAT      O95125   3.776   3.346   7.096
31628WAT     H195126   3.856   3.332   7.037
31628WAT     H295127   3.740   3.439   7.083
31629WAT      O95128   7.774   6.630   4.190
31629WAT     H195129   7.841   6.560   4.165
31629WAT     H295130   7.728   6.663   4.107
31630WAT      O95131   9.063   7.624   8.840
31630WAT     H195132   9.150   7.635   8.889
31630WAT     H295133   9.055   7.530   8.806
31631WAT      O95134   2.237   3.140   7.218
31631WAT     H195135   2.308   3.102   7.159
31631WAT     H295136   2.148   3.101   7.192
31632WAT      O95137   0.851   1.006   5.213
31632WAT     H195138   0.944   1.040   5.216
31632WAT     H295139   0.838   0.935   5.282
31633WAT      O95140   6.579   5.560   3.721
31633WAT     H195141   6.577   5.633   3.789
31633WAT     H295142   6.499   5.501   3.733
31634WAT      O95143   7.037   5.867   8.283
31634WAT     H195144   7.042   5.815   8.198
31634WAT     H295145   6.958   5.836   8.336
31635WAT      O95146   1.802   2.238   4.957
31635WAT     H195147   1.721   2.185   4.929
31635WAT     H295148   1.785   2.335   4.939
31636WAT      O95149   6.491   6.097   3.914
31636WAT     H195150   6.485   6.123   3.818
31636WAT     H295151   6.586   6.079   3.938
31637WAT      O95152   6.778   4.613   4.579
31637WAT     H195153   6.749   4.557   4.501
31637WAT     H295154   6.793   4.707   4.549
31638WAT      O95155   5.008   0.488   3.770
31638WAT     H195156   4.939   0.446   3.829
31638WAT     H295157   5.063   0.552   3.824
31639WAT      O95158   7.544   1.991   3.525
31639WAT     H195159   7.503   2.077   3.556
31639WAT     H295160   7.529   1.920   3.595
31640WAT      O95161   9.592   9.551   7.314
31640WAT     H195162   9.550   9.482   7.372
31640WAT     H295163   9.621   9.629   7.370
31641WAT      O95164   8.521   5.011   9.232
31641WAT     H195165   8.547   5.029   9.326
31641WAT     H295166   8.449   5.074   9.204
31642WAT      O95167   8.587   1.621   5.432
31642WAT     H195168   8.536   1.707   5.421
31642WAT     H295169   8.684   1.639   5.421
31643WAT      O95170   1.807   3.982   6.101
31643WAT     H195171   1.765   4.043   6.035
31643WAT     H295172   1.881   3.931   6.058
31644WAT      O95173   3.391   3.046   8.437
31644WAT     H195174   3.441   2.980   8.381
31644WAT     H295175   3.420   3.038   8.533
31645WAT      O95176   6.724   5.279   8.553
31645WAT     H195177   6.786   5.220   8.604
31645WAT     H295178   6.716   5.246   8.459
31646WAT      O95179   6.303   4.976   5.599
31646WAT     H195180   6.226   4.916   5.622
31646WAT     H295181   6.343   4.946   5.513
31647WAT      O95182   2.490   1.657   6.392
31647WAT     H195183   2.490   1.582   6.458
31647WAT     H295184   2.445   1.737   6.432
31648WAT      O95185   1.372   0.260   1.692
31648WAT     H195186   1.430   0.181   1.712
31648WAT     H295187   1.361   0.268   1.593
31649WAT      O95188   4.309   5.948   5.850
31649WAT     H195189   4.374   5.910   5.785
31649WAT     H295190   4.296   6.046   5.831
31650WAT      O95191   8.911   4.705   1.028
31650WAT     H195192   8.835   4.661   1.076
31650WAT     H295193   8.980   4.734   1.094
31651WAT      O95194   0.728   4.197   4.424
31651WAT     H195195   0.685   4.190   4.334
31651WAT     H295196   0.794   4.273   4.423
31652WAT      O95197   8.372   5.154   6.570
31652WAT     H195198   8.327   5.090   6.508
31652WAT     H295199   8.469   5.160   6.547
31653WAT      O95200   6.174   2.863   8.667
31653WAT     H195201   6.208   2.847   8.759
31653WAT     H295202   6.156   2.960   8.654
31654WAT      O95203   5.297   8.374   7.122
31654WAT     H195204   5.244   8.295   7.091
31654WAT     H295205   5.312   8.368   7.220
31655WAT      O95206   9.460   9.091   2.988
31655WAT     H195207   9.473   9.090   2.889
31655WAT     H295208   9.549   9.094   3.033
31656WAT      O95209   2.776   1.619   9.272
31656WAT     H195210   2.872   1.639   9.250
31656WAT     H295211   2.737   1.561   9.200
31657WAT      O95212   7.135   6.453   3.503
31657WAT     H195213   7.163   6.442   3.599
31657WAT     H295214   7.186   6.389   3.446
31658WAT      O95215   3.338   2.591   2.585
31658WAT     H195216   3.295   2.629   2.503
31658WAT     H295217   3.271   2.536   2.636
31659WAT      O95218   4.269   1.241   4.766
31659WAT     H195219   4.286   1.144   4.749
31659WAT     H295220   4.303   1.266   4.857
31660WAT      O95221   3.831   1.060   8.929
31660WAT     H195222   3.930   1.055   8.943
31660WAT     H295223   3.791   0.971   8.951
31661WAT      O95224   2.517   0.908   0.352
31661WAT     H195225   2.495   1.003   0.328
31661WAT     H295226   2.605   0.906   0.401
31662WAT      O95227   1.432   6.294   0.880
31662WAT     H195228   1.418   6.276   0.977
31662WAT     H295229   1.343   6.305   0.835
31663WAT      O95230   6.914   8.513   1.646
31663WAT     H195231   6.851   8.443   1.679
31663WAT     H295232   6.928   8.582   1.717
31664WAT      O95233   6.162   4.727   0.448
31664WAT     H195234   6.258   4.754   0.453
31664WAT     H295235   6.123   4.756   0.361
31665WAT      O95236   0.034   6.778   6.226
31665WAT     H195237  -0.037   6.849   6.222
31665WAT     H295238   0.124   6.822   6.219
31666WAT      O95239   6.748   6.727   9.253
31666WAT     H195240   6.845   6.706   9.239
31666WAT     H295241   6.735   6.763   9.346
31667WAT      O95242   7.585   3.554   7.784
31667WAT     H195243   7.664   3.549   7.723
31667WAT     H295244   7.508   3.504   7.743
31668WAT      O95245   4.733   4.582   9.462
31668WAT     H195246   4.688   4.561   9.376
31668WAT     H295247   4.693   4.665   9.502
31669WAT      O95248   6.584   8.364   7.895
31669WAT     H195249   6.529   8.295   7.941
31669WAT     H295250   6.525   8.440   7.865
31670WAT      O95251   5.475   6.057   7.084
31670WAT     H195252   5.527   5.984   7.128
31670WAT     H295253   5.377   6.038   7.095
31671WAT      O95254   2.343   7.632   8.689
31671WAT     H195255   2.295   7.684   8.759
31671WAT     H295256   2.287   7.553   8.661
31672WAT      O95257   9.301   8.738   8.630
31672WAT     H195258   9.390   8.691   8.625
31672WAT     H295259   9.317   8.835   8.650
31673WAT      O95260   6.389   3.584   6.756
31673WAT     H195261   6.347   3.671   6.779
31673WAT     H295262   6.327   3.509   6.779
31674WAT      O95263   0.049   5.791   3.162
31674WAT     H195264   0.062   5.865   3.228
31674WAT     H295265   0.126   5.728   3.168
31675WAT      O95266   2.268   3.182   4.517
31675WAT     H195267   2.295   3.276   4.496
31675WAT     H295268   2.347   3.132   4.553
31676WAT      O95269   7.568   7.089   9.409
31676WAT     H195270   7.592   7.184   9.429
31676WAT     H295271   7.493   7.087   9.343
31677WAT      O95272   7.736   0.087   1.504
31677WAT     H195273   7.815   0.090   1.565
31677WAT     H295274   7.654   0.064   1.556
31678WAT      O95275   7.924   6.442   5.565
31678WAT     H195276   7.877   6.379   5.504
31678WAT     H295277   7.964   6.517   5.511
31679WAT      O95278   1.474   1.494   4.793
31679WAT     H195279   1.489   1.562   4.721
31679WAT     H295280   1.411   1.423   4.759
31680WAT      O95281   8.629   3.777   3.778
31680WAT     H195282   8.639   3.871   3.811
31680WAT     H295283   8.697   3.719   3.822
31681WAT      O95284   5.696   7.637   6.331
31681WAT     H195285   5.757   7.683   6.396
31681WAT     H295286   5.726   7.543   6.318
31682WAT      O95287   0.854   4.371   0.086
31682WAT     H195288   0.940   4.418   0.068
31682WAT     H295289   0.829   4.383   0.183
31683WAT      O95290   0.121   7.903   0.802
31683WAT     H195291   0.147   7.807   0.814
31683WAT     H295292   0.037   7.908   0.747
31684WAT      O95293   8.138   4.546   4.250
31684WAT     H195294   8.052   4.597   4.240
31684WAT     H295295   8.189   4.581   4.329
31685WAT      O95296   3.032   4.740   7.682
31685WAT     H195297   3.124   4.716   7.652
31685WAT     H295298   2.973   4.659   7.680
31686WAT      O95299   1.500   7.447   0.365
31686WAT     H195300   1.474   7.486   0.453
31686WAT     H295301   1.419   7.433   0.309
31687WAT      O95302   9.152   4.397   5.574
31687WAT     H195303   9.141   4.305   5.612
31687WAT     H295304   9.064   4.432   5.543
31688WAT      O95305   8.864   4.497   5.253
31688WAT     H195306   8.891   4.432   5.324
31688WAT     H295307   8.805   4.452   5.187
31689WAT      O95308   5.964   8.476   4.506
31689WAT     H195309   5.957   8.394   4.564
31689WAT     H295310   5.873   8.504   4.476
31690WAT      O95311   6.270   3.264   6.685
31690WAT     H195312   6.330   3.234   6.759
31690WAT     H295313   6.303   3.226   6.598
31691WAT      O95314   9.139   4.422   8.007
31691WAT     H195315   9.198   4.438   8.086
31691WAT     H295316   9.126   4.508   7.957
31692WAT      O95317   6.743   8.071   3.122
31692WAT     H195318   6.672   8.049   3.189
31692WAT     H295319   6.737   8.167   3.096
31693WAT      O95320   5.311   6.882   2.333
31693WAT     H195321   5.346   6.888   2.239
31693WAT     H295322   5.385   6.858   2.395
31694WAT      O95323   4.008   0.325   0.977
31694WAT     H195324   3.921   0.276   0.968
31694WAT     H295325   4.078   0.262   1.010
31695WAT      O95326   9.502   1.740   2.714
31695WAT     H195327   9.593   1.778   2.732
31695WAT     H295328   9.497   1.709   2.619
31696WAT      O95329   7.366   2.348   4.517
31696WAT     H195330   7.361   2.441   4.480
31696WAT     H295331   7.282   2.298   4.493
31697WAT      O95332   9.687   5.169   4.340
31697WAT     H195333   9.614   5.183   4.273
31697WAT     H295334   9.654   5.190   4.431
31698WAT      O95335   3.039   5.204   7.297
31698WAT     H195336   2.947   5.198   7.336
31698WAT     H295337   3.095   5.127   7.328
31699WAT      O95338   1.113   4.068   7.813
31699WAT     H195339   1.039   4.135   7.821
31699WAT     H295340   1.201   4.116   7.812
31700WAT      O95341   4.904   0.868   6.606
31700WAT     H195342   4.868   0.894   6.695
31700WAT     H295343   4.880   0.772   6.587
31701WAT      O95344   2.844   0.457   0.729
31701WAT     H195345   2.883   0.481   0.817
31701WAT     H295346   2.774   0.386   0.741
31702WAT      O95347   7.055   8.534   4.824
31702WAT     H195348   7.038   8.476   4.744
31702WAT     H295349   7.026   8.486   4.907
31703WAT      O95350   6.941   5.701   3.626
31703WAT     H195351   6.947   5.736   3.719
31703WAT     H295352   6.847   5.678   3.605
31704WAT      O95353   8.341   1.411   4.651
31704WAT     H195354   8.324   1.483   4.583
31704WAT     H295355   8.255   1.368   4.676
31705WAT      O95356   2.438   1.367   1.744
31705WAT     H195357   2.450   1.330   1.836
31705WAT     H295358   2.425   1.466   1.750
31706WAT      O95359   4.182   7.620   3.184
31706WAT     H195360   4.224   7.529   3.180
31706WAT     H295361   4.184   7.652   3.279
31707WAT      O95362   4.711   6.749   3.197
31707WAT     H195363   4.786   6.720   3.138
31707WAT     H295364   4.639   6.679   3.195
31708WAT      O95365   8.534   2.522   5.595
31708WAT     H195366   8.543   2.617   5.564
31708WAT     H295367   8.455   2.480   5.549
31709WAT      O95368   0.843   3.013   8.694
31709WAT     H195369   0.888   3.013   8.604
31709WAT     H295370   0.912   3.027   8.765
31710WAT      O95371   7.015   3.329   1.662
31710WAT     H195372   6.982   3.328   1.756
31710WAT     H295373   7.107   3.290   1.658
31711WAT      O95374   5.681   6.368   5.050
31711WAT     H195375   5.584   6.348   5.037
31711WAT     H295376   5.728   6.364   4.962
31712WAT      O95377   5.325   1.857   1.961
31712WAT     H195378   5.293   1.879   2.053
31712WAT     H295379   5.392   1.782   1.966
31713WAT      O95380   6.070   3.929   6.587
31713WAT     H195381   6.160   3.971   6.575
31713WAT     H295382   6.019   3.978   6.657
31714WAT      O95383   1.190   8.597   6.658
31714WAT     H195384   1.286   8.623   6.660
31714WAT     H295385   1.175   8.531   6.584
31715WAT      O95386   0.971   7.328   6.248
31715WAT     H195387   1.010   7.394   6.184
31715WAT     H295388   0.962   7.371   6.338
31716WAT      O95389   2.531   6.918   9.102
31716WAT     H195390   2.466   6.933   9.027
31716WAT     H295391   2.482   6.886   9.183
31717WAT      O95392   8.868   0.292   2.706
31717WAT     H195393   8.954   0.241   2.717
31717WAT     H295394   8.820   0.294   2.794
31718WAT      O95395   0.887   2.883   9.196
31718WAT     H195396   0.851   2.956   9.253
31718WAT     H295397   0.954   2.920   9.131
31719WAT      O95398   7.563   6.980   3.295
31719WAT     H195399   7.506   6.930   3.230
31719WAT     H295400   7.607   6.915   3.358
31720WAT      O95401   4.114   1.656   9.612
31720WAT     H195402   4.195   1.605   9.583
31720WAT     H295403   4.032   1.616   9.569
31721WAT      O95404   4.445   5.514   5.692
31721WAT     H195405   4.348   5.499   5.672
31721WAT     H295406   4.500   5.489   5.613
31722WAT      O95407   8.750   2.477   3.553
31722WAT     H195408   8.733   2.420   3.473
31722WAT     H295409   8.836   2.527   3.540
31723WAT      O95410   8.242   9.181   0.428
31723WAT     H195411   8.225   9.230   0.342
31723WAT     H295412   8.236   9.083   0.412
31724WAT      O95413   5.394   2.475   7.617
31724WAT     H195414   5.461   2.401   7.622
31724WAT     H295415   5.442   2.563   7.623
31725WAT      O95416   9.086   0.373   7.924
31725WAT     H195417   9.027   0.297   7.896
31725WAT     H295418   9.150   0.341   7.993
31726WAT      O95419   8.382   4.338   3.085
31726WAT     H195420   8.444   4.268   3.050
31726WAT     H295421   8.316   4.362   3.014
31727WAT      O95422   9.730   7.103   1.766
31727WAT     H195423   9.638   7.134   1.791
31727WAT     H295424   9.725   7.010   1.731
31728WAT      O95425   3.604   0.112   6.590
31728WAT     H195426   3.556   0.065   6.664
31728WAT     H295427   3.592   0.210   6.599
31729WAT      O95428   5.740   7.019   1.795
31729WAT     H195429   5.673   7.083   1.832
31729WAT     H295430   5.778   7.056   1.710
31730WAT      O95431   2.982   4.802   5.087
31730WAT     H195432   3.016   4.839   5.000
31730WAT     H295433   2.904   4.742   5.069
31731WAT      O95434   9.830   8.948   5.982
31731WAT     H195435   9.849   8.862   6.030
31731WAT     H295436   9.817   8.929   5.884
31732WAT      O95437   8.425   5.730   8.859
31732WAT     H195438   8.407   5.740   8.761
31732WAT     H295439   8.347   5.765   8.911
31733WAT      O95440   8.097   6.080   9.325
31733WAT     H195441   8.169   6.034   9.272
31733WAT     H295442   8.128   6.172   9.350
31734WAT      O95443   8.693   6.624   7.282
31734WAT     H195444   8.611   6.680   7.296
31734WAT     H295445   8.713   6.573   7.366
31735WAT      O95446   3.513   0.052   1.032
31735WAT     H195447   3.470  -0.025   0.984
31735WAT     H295448   3.523   0.030   1.129
31736WAT      O95449   7.726   7.745   4.026
31736WAT     H195450   7.789   7.794   4.087
31736WAT     H295451   7.693   7.808   3.955
31737WAT      O95452   0.576   0.821   0.884
31737WAT     H195453   0.495   0.853   0.836
31737WAT     H295454   0.607   0.735   0.845
31738WAT      O95455   9.492   3.240   4.390
31738WAT     H195456   9.500   3.152   4.343
31738WAT     H295457   9.566   3.249   4.456
31739WAT      O95458   4.335   5.092   6.648
31739WAT     H195459   4.381   5.176   6.678
31739WAT     H295460   4.385   5.013   6.684
31740WAT      O95461   8.605   5.267   9.100
31740WAT     H195462   8.582   5.259   9.197
31740WAT     H295463   8.524   5.295   9.049
31741WAT      O95464   2.046   9.073   6.625
31741WAT     H195465   2.032   9.056   6.722
31741WAT     H295466   2.143   9.088   6.607
31742WAT      O95467   1.862   7.275   3.013
31742WAT     H195468   1.958   7.292   3.034
31742WAT     H295469   1.832   7.190   3.056
31743WAT      O95470   9.054   3.238   1.257
31743WAT     H195471   9.057   3.256   1.356
31743WAT     H295472   9.148   3.225   1.224
31744WAT      O95473   3.018   0.160   6.310
31744WAT     H195474   3.025   0.126   6.216
31744WAT     H295475   3.097   0.218   6.331
31745WAT      O95476   3.792   0.351   7.789
31745WAT     H195477   3.844   0.380   7.708
31745WAT     H295478   3.832   0.394   7.870
31746WAT      O95479   0.281   2.526   1.026
31746WAT     H195480   0.238   2.524   1.116
31746WAT     H295481   0.262   2.614   0.983
31747WAT      O95482   1.362   9.357   5.517
31747WAT     H195483   1.440   9.394   5.568
31747WAT     H295484   1.279   9.366   5.571
31748WAT      O95485   4.411   7.849   4.515
31748WAT     H195486   4.428   7.782   4.587
31748WAT     H295487   4.494   7.903   4.500
31749WAT      O95488   5.841   7.446   7.172
31749WAT     H195489   5.867   7.424   7.266
31749WAT     H295490   5.819   7.361   7.123
31750WAT      O95491   4.303   1.124   3.740
31750WAT     H195492   4.396   1.160   3.740
31750WAT     H295493   4.295   1.051   3.672
31751WAT      O95494   5.727   1.954   8.133
31751WAT     H195495   5.777   1.960   8.219
31751WAT     H295496   5.636   1.995   8.144
31752WAT      O95497   2.471   2.701   7.241
31752WAT     H195498   2.509   2.615   7.276
31752WAT     H295499   2.541   2.752   7.192
31753WAT      O95500   6.132   5.134   6.610
31753WAT     H195501   6.044   5.169   6.580
31753WAT     H295502   6.202   5.204   6.597
31754WAT      O95503   8.051   0.410   9.543
31754WAT     H195504   8.049   0.405   9.643
31754WAT     H295505   8.078   0.322   9.505
31755WAT      O95506   5.251   5.785   2.930
31755WAT     H195507   5.274   5.880   2.952
31755WAT     H295508   5.196   5.746   3.004
31756WAT      O95509   8.377   4.264   6.867
31756WAT     H195510   8.308   4.334   6.885
31756WAT     H295511   8.468   4.303   6.880
31757WAT      O95512   9.129   6.193   3.435
31757WAT     H195513   9.219   6.233   3.418
31757WAT     H295514   9.118   6.111   3.378
31758WAT      O95515   3.949   5.640   8.283
31758WAT     H195516   4.002   5.661   8.201
31758WAT     H295517   3.950   5.541   8.297
31759WAT      O95518   7.287   0.193   5.851
31759WAT     H195519   7.251   0.279   5.815
31759WAT     H295520   7.292   0.125   5.777
31760WAT      O95521   7.583   9.841   5.812
31760WAT     H195522   7.493   9.803   5.831
31760WAT     H295523   7.645   9.818   5.887
31761WAT      O95524   6.697   0.508   4.872
31761WAT     H195525   6.712   0.607   4.868
31761WAT     H295526   6.783   0.460   4.857
31762WAT      O95527   1.314   1.405   5.679
31762WAT     H195528   1.382   1.363   5.619
31762WAT     H295529   1.356   1.423   5.768
31763WAT      O95530   4.842   4.282   0.371
31763WAT     H195531   4.877   4.286   0.465
31763WAT     H295532   4.876   4.200   0.326
31764WAT      O95533   2.201   7.607   2.896
31764WAT     H195534   2.229   7.695   2.935
31764WAT     H295535   2.127   7.622   2.830
31765WAT      O95536   1.672   6.615   3.767
31765WAT     H195537   1.735   6.604   3.691
31765WAT     H295538   1.709   6.569   3.848
31766WAT      O95539   8.583   4.461   5.512
31766WAT     H195540   8.627   4.372   5.494
31766WAT     H295541   8.506   4.473   5.449
31767WAT      O95542   0.401   2.393   0.598
31767WAT     H195543   0.435   2.485   0.615
31767WAT     H295544   0.406   2.340   0.683
31768WAT      O95545   8.746   1.064   8.757
31768WAT     H195546   8.722   1.161   8.762
31768WAT     H295547   8.843   1.053   8.778
31769WAT      O95548   0.129   1.186   9.371
31769WAT     H195549   0.126   1.086   9.375
31769WAT     H295550   0.198   1.220   9.435
31770WAT      O95551   1.626   5.016   5.233
31770WAT     H195552   1.619   4.921   5.205
31770WAT     H295553   1.672   5.069   5.162
31771WAT      O95554   2.811   1.062   6.436
31771WAT     H195555   2.894   1.010   6.419
31771WAT     H295556   2.732   1.001   6.431
31772WAT      O95557   7.345   8.200   0.511
31772WAT     H195558   7.249   8.216   0.491
31772WAT     H295559   7.353   8.148   0.597
31773WAT      O95560   5.973   8.938   4.136
31773WAT     H195561   5.912   8.903   4.208
31773WAT     H295562   6.006   8.861   4.081
31774WAT      O95563   9.160   4.862   7.890
31774WAT     H195564   9.080   4.913   7.859
31774WAT     H295565   9.167   4.777   7.837
31775WAT      O95566   5.887   8.748   8.059
31775WAT     H195567   5.902   8.664   8.111
31775WAT     H295568   5.789   8.759   8.041
31776WAT      O95569   2.142   2.817   1.702
31776WAT     H195570   2.168   2.913   1.710
31776WAT     H295571   2.065   2.798   1.762
31777WAT      O95572   7.147   6.639   7.374
31777WAT     H195573   7.213   6.570   7.403
31777WAT     H295574   7.136   6.636   7.274
31778WAT      O95575   0.269   1.031   3.892
31778WAT     H195576   0.267   1.010   3.794
31778WAT     H295577   0.184   1.000   3.935
31779WAT      O95578   8.886   4.301   3.151
31779WAT     H195579   8.819   4.230   3.172
31779WAT     H295580   8.929   4.333   3.235
31780WAT      O95581   7.299   4.012   5.400
31780WAT     H195582   7.231   4.032   5.329
31780WAT     H295583   7.368   4.084   5.400
31781WAT      O95584   2.081   7.205   7.723
31781WAT     H195585   2.136   7.227   7.642
31781WAT     H295586   1.998   7.261   7.723
31782WAT      O95587   0.475   3.140   4.266
31782WAT     H195588   0.495   3.098   4.177
31782WAT     H295589   0.377   3.158   4.274
31783WAT      O95590   1.627   5.675   9.210
31783WAT     H195591   1.703   5.695   9.148
31783WAT     H295592   1.635   5.734   9.291
31784WAT      O95593   8.611   6.746   3.055
31784WAT     H195594   8.693   6.780   3.101
31784WAT     H295595   8.632   6.661   3.007
31785WAT      O95596   6.521   3.080   9.516
31785WAT     H195597   6.606   3.039   9.486
31785WAT     H295598   6.532   3.180   9.522
31786WAT      O95599   9.084   1.891   6.878
31786WAT     H195600   9.168   1.927   6.838
31786WAT     H295601   9.007   1.910   6.817
31787WAT      O95602   6.636   2.296   6.696
31787WAT     H195603   6.651   2.317   6.793
31787WAT     H295604   6.551   2.339   6.666
31788WAT      O95605   8.359   3.210   0.928
31788WAT     H195606   8.312   3.168   1.006
31788WAT     H295607   8.339   3.308   0.925
31789WAT      O95608   8.431   7.675   6.479
31789WAT     H195609   8.465   7.627   6.398
31789WAT     H295610   8.506   7.694   6.541
31790WAT      O95611   7.752   8.864   2.690
31790WAT     H195612   7.690   8.862   2.612
31790WAT     H295613   7.808   8.781   2.691
31791WAT      O95614   2.663   1.414   0.513
31791WAT     H195615   2.675   1.475   0.591
31791WAT     H295616   2.738   1.347   0.512
31792WAT      O95617   4.542   6.934   7.927
31792WAT     H195618   4.528   6.848   7.878
31792WAT     H295619   4.454   6.982   7.934
31793WAT      O95620   9.125   4.486   3.660
31793WAT     H195621   9.107   4.395   3.698
31793WAT     H295622   9.063   4.553   3.701
31794WAT      O95623   1.788   4.426   4.465
31794WAT     H195624   1.818   4.498   4.403
31794WAT     H295625   1.818   4.447   4.558
31795WAT      O95626   0.808   3.099   5.767
31795WAT     H195627   0.712   3.111   5.792
31795WAT     H295628   0.830   3.002   5.762
31796WAT      O95629   8.076   4.931   9.133
31796WAT     H195630   8.034   5.021   9.126
31796WAT     H295631   8.014   4.862   9.094
31797WAT      O95632   6.953   8.254   5.850
31797WAT     H195633   6.911   8.168   5.878
31797WAT     H295634   6.994   8.299   5.930
31798WAT      O95635   1.357   0.434   0.137
31798WAT     H195636   1.438   0.480   0.098
31798WAT     H295637   1.373   0.416   0.234
31799WAT      O95638   3.372   6.818   8.618
31799WAT     H195639   3.282   6.780   8.637
31799WAT     H295640   3.405   6.869   8.698
31800WAT      O95641   1.393   0.973   8.257
31800WAT     H195642   1.492   0.977   8.242
31800WAT     H295643   1.347   0.952   8.171
31801WAT      O95644   9.706   9.454   2.495
31801WAT     H195645   9.707   9.433   2.397
31801WAT     H295646   9.632   9.519   2.514
31802WAT      O95647   6.524   1.448   4.621
31802WAT     H195648   6.606   1.399   4.591
31802WAT     H295649   6.469   1.472   4.541
31803WAT      O95650   9.089   3.288   5.477
31803WAT     H195651   9.178   3.314   5.438
31803WAT     H295652   9.104   3.216   5.546
31804WAT      O95653   4.287   0.094   0.319
31804WAT     H195654   4.322   0.004   0.293
31804WAT     H295655   4.345   0.166   0.281
31805WAT      O95656   0.039   1.197   7.062
31805WAT     H195657   0.089   1.115   7.033
31805WAT     H295658  -0.057   1.174   7.078
31806WAT      O95659   4.042   5.781   9.123
31806WAT     H195660   4.051   5.691   9.166
31806WAT     H295661   3.952   5.820   9.144
31807WAT      O95662   8.974   4.404   2.540
31807WAT     H195663   8.919   4.443   2.466
31807WAT     H295664   9.036   4.335   2.504
31808WAT      O95665   0.707   4.692   9.858
31808WAT     H195666   0.683   4.623   9.789
31808WAT     H295667   0.799   4.726   9.840
31809WAT      O95668   6.640   3.735   3.742
31809WAT     H195669   6.671   3.645   3.712
31809WAT     H295670   6.595   3.727   3.831
31810WAT      O95671   3.237   2.444   4.173
31810WAT     H195672   3.263   2.378   4.244
31810WAT     H295673   3.154   2.493   4.203
31811WAT      O95674   1.390   1.005   4.149
31811WAT     H195675   1.321   0.988   4.078
31811WAT     H295676   1.481   1.006   4.107
31812WAT      O95677   6.053   1.690   7.758
31812WAT     H195678   5.963   1.735   7.755
31812WAT     H295679   6.076   1.656   7.666
31813WAT      O95680   7.775   9.748   7.530
31813WAT     H195681   7.776   9.819   7.601
31813WAT     H295682   7.681   9.731   7.502
31814WAT      O95683   6.110   2.638   2.450
31814WAT     H195684   6.027   2.585   2.466
31814WAT     H295685   6.094   2.702   2.374
31815WAT      O95686   7.689   9.622   4.202
31815WAT     H195687   7.624   9.557   4.164
31815WAT     H295688   7.686   9.617   4.302
31816WAT      O95689   7.794   0.799   0.950
31816WAT     H195690   7.886   0.764   0.935
31816WAT     H295691   7.794   0.899   0.943
31817WAT      O95692   0.797   4.906   4.336
31817WAT     H195693   0.831   4.854   4.414
31817WAT     H295694   0.806   4.852   4.253
31818WAT      O95695   1.819   9.567   0.516
31818WAT     H195696   1.783   9.581   0.424
31818WAT     H295697   1.882   9.641   0.539
31819WAT      O95698   2.300   7.689   1.995
31819WAT     H195699   2.375   7.647   2.046
31819WAT     H295700   2.332   7.775   1.954
31820WAT      O95701   0.006   8.985   1.959
31820WAT     H195702  -0.070   8.925   1.981
31820WAT     H295703  -0.013   9.034   1.874
31821WAT      O95704   8.428   9.837   5.820
31821WAT     H195705   8.472   9.747   5.811
31821WAT     H295706   8.334   9.825   5.850
31822WAT      O95707   4.735   9.711   2.779
31822WAT     H195708   4.691   9.783   2.833
31822WAT     H295709   4.824   9.744   2.746
31823WAT      O95710   0.769   9.438   9.136
31823WAT     H195711   0.731   9.353   9.100
31823WAT     H295712   0.716   9.467   9.216
31824WAT      O95713   4.953   3.006   1.214
31824WAT     H195714   4.863   2.962   1.220
31824WAT     H295715   4.962   3.073   1.287
31825WAT      O95716   8.793   4.942   8.489
31825WAT     H195717   8.890   4.966   8.486
31825WAT     H295718   8.780   4.862   8.547
31826WAT      O95719   8.004   1.397   5.850
31826WAT     H195720   7.932   1.349   5.799
31826WAT     H295721   7.980   1.494   5.859
31827WAT      O95722   1.396   3.359   7.708
31827WAT     H195723   1.337   3.438   7.725
31827WAT     H295724   1.411   3.351   7.609
31828WAT      O95725   6.991   4.650   3.046
31828WAT     H195726   7.043   4.722   3.092
31828WAT     H295727   7.044   4.566   3.044
31829WAT      O95728   9.201   3.652   1.543
31829WAT     H195729   9.251   3.570   1.570
31829WAT     H295730   9.227   3.728   1.603
31830WAT      O95731   6.809   2.704   2.783
31830WAT     H195732   6.799   2.632   2.715
31830WAT     H295733   6.758   2.785   2.754
31831WAT      O95734   9.794   3.511   1.274
31831WAT     H195735   9.784   3.482   1.179
31831WAT     H295736   9.710   3.557   1.305
31832WAT      O95737   2.611   0.136   4.003
31832WAT     H195738   2.588   0.145   4.100
31832WAT     H295739   2.577   0.048   3.969
31833WAT      O95740   3.435   8.745   5.067
31833WAT     H195741   3.426   8.646   5.076
31833WAT     H295742   3.370   8.790   5.129
31834WAT      O95743   9.565   3.409   6.750
31834WAT     H195744   9.469   3.417   6.775
31834WAT     H295745   9.614   3.492   6.777
31835WAT      O95746   0.976   1.035   9.094
31835WAT     H195747   1.059   1.074   9.054
31835WAT     H295748   0.932   0.974   9.027
31836WAT      O95749   1.443   0.422   7.301
31836WAT     H195750   1.464   0.324   7.298
31836WAT     H295751   1.356   0.436   7.349
31837WAT      O95752   2.845   0.732   9.772
31837WAT     H195753   2.759   0.759   9.730
31837WAT     H295754   2.834   0.728   9.872
31838WAT      O95755   0.067   8.595   4.416
31838WAT     H195756   0.122   8.511   4.423
31838WAT     H295757   0.128   8.674   4.418
31839WAT      O95758   2.356   5.782   6.099
31839WAT     H195759   2.291   5.787   6.175
31839WAT     H295760   2.400   5.692   6.099
31840WAT      O95761   5.713   8.864   4.366
31840WAT     H195762   5.689   8.936   4.301
31840WAT     H295763   5.774   8.902   4.436
31841WAT      O95764   3.460   6.402   8.461
31841WAT     H195765   3.383   6.347   8.429
31841WAT     H295766   3.504   6.356   8.538
31842WAT      O95767   4.340   1.873   0.803
31842WAT     H195768   4.384   1.910   0.885
31842WAT     H295769   4.292   1.946   0.754
31843WAT      O95770   1.628   8.210   6.195
31843WAT     H195771   1.635   8.130   6.136
31843WAT     H295772   1.713   8.223   6.245
31844WAT      O95773   9.673   7.011   9.166
31844WAT     H195774   9.725   7.096   9.155
31844WAT     H295775   9.576   7.032   9.173
31845WAT      O95776   7.022   4.727   3.582
31845WAT     H195777   7.054   4.636   3.557
31845WAT     H295778   7.074   4.760   3.661
31846WAT      O95779   8.205   6.641   0.532
31846WAT     H195780   8.304   6.649   0.532
31846WAT     H295781   8.164   6.722   0.573
31847WAT      O95782   9.413   1.993   2.760
31847WAT     H195783   9.429   1.896   2.740
31847WAT     H295784   9.326   2.003   2.808
31848WAT      O95785   6.010   8.021   8.653
31848WAT     H195786   5.931   8.014   8.592
31848WAT     H295787   6.092   7.990   8.606
31849WAT      O95788   3.415   5.066   2.998
31849WAT     H195789   3.498   5.121   2.991
31849WAT     H295790   3.357   5.081   2.918
31850WAT      O95791   7.819   5.015   9.328
31850WAT     H195792   7.732   5.038   9.372
31850WAT     H295793   7.802   4.977   9.237
31851WAT      O95794   1.889   3.649   8.037
31851WAT     H195795   1.826   3.587   8.084
31851WAT     H295796   1.963   3.597   7.995
31852WAT      O95797   8.228   8.841   7.148
31852WAT     H195798   8.216   8.781   7.228
31852WAT     H295799   8.325   8.843   7.123
31853WAT      O95800   5.632   5.659   9.182
31853WAT     H195801   5.668   5.663   9.275
31853WAT     H295802   5.541   5.700   9.179
31854WAT      O95803   5.532   6.875   8.707
31854WAT     H195804   5.618   6.846   8.664
31854WAT     H295805   5.544   6.878   8.806
31855WAT      O95806   9.720   3.190   8.308
31855WAT     H195807   9.796   3.255   8.322
31855WAT     H295808   9.733   3.111   8.368
31856WAT      O95809   7.744   0.161   0.255
31856WAT     H195810   7.765   0.253   0.221
31856WAT     H295811   7.658   0.163   0.306
31857WAT      O95812   0.874   6.242   8.843
31857WAT     H195813   0.970   6.215   8.838
31857WAT     H295814   0.817   6.160   8.843
31858WAT      O95815   7.280   5.062   9.158
31858WAT     H195816   7.345   5.106   9.096
31858WAT     H295817   7.303   5.086   9.252
31859WAT      O95818   7.504   3.293   7.420
31859WAT     H195819   7.574   3.260   7.357
31859WAT     H295820   7.510   3.393   7.428
31860WAT      O95821   7.453   8.134   7.888
31860WAT     H195822   7.403   8.053   7.857
31860WAT     H295823   7.398   8.215   7.871
31861WAT      O95824   6.370   1.432   9.169
31861WAT     H195825   6.373   1.532   9.176
31861WAT     H295826   6.428   1.392   9.240
31862WAT      O95827   0.043   4.835   5.862
31862WAT     H195828   0.053   4.866   5.767
31862WAT     H295829  -0.048   4.858   5.895
31863WAT      O95830   2.195   7.781   1.093
31863WAT     H195831   2.221   7.692   1.056
31863WAT     H295832   2.100   7.779   1.121
31864WAT      O95833   2.069   6.178   6.096
31864WAT     H195834   2.077   6.276   6.117
31864WAT     H295835   2.013   6.134   6.166
31865WAT      O95836   4.627   5.566   8.987
31865WAT     H195837   4.652   5.658   8.955
31865WAT     H295838   4.528   5.562   9.003
31866WAT      O95839   5.025   3.071   3.536
31866WAT     H195840   5.025   3.025   3.625
31866WAT     H295841   5.061   3.008   3.467
31867WAT      O95842   8.910   4.331   5.459
31867WAT     H195843   8.816   4.298   5.466
31867WAT     H295844   8.966   4.288   5.529
31868WAT      O95845   0.248   9.512   6.292
31868WAT     H195846   0.193   9.440   6.334
31868WAT     H295847   0.189   9.569   6.234
31869WAT      O95848   3.128   0.582   3.201
31869WAT     H195849   3.125   0.630   3.288
31869WAT     H295850   3.203   0.618   3.145
31870WAT      O95851   8.115   1.918   0.788
31870WAT     H195852   8.077   1.830   0.759
31870WAT     H295853   8.166   1.959   0.712
31871WAT      O95854   9.610   3.418   1.704
31871WAT     H195855   9.627   3.512   1.733
31871WAT     H295856   9.523   3.414   1.655
31872WAT      O95857   2.157   6.982   9.315
31872WAT     H195858   2.167   6.958   9.219
31872WAT     H295859   2.077   7.040   9.327
31873WAT      O95860   2.467   8.221   5.369
31873WAT     H195861   2.509   8.207   5.458
31873WAT     H295862   2.519   8.288   5.317
31874WAT      O95863   6.733   6.583   2.795
31874WAT     H195864   6.643   6.609   2.831
31874WAT     H295865   6.760   6.495   2.833
31875WAT      O95866   5.208   5.561   6.949
31875WAT     H195867   5.201   5.647   6.898
31875WAT     H295868   5.193   5.485   6.886
31876WAT      O95869   2.878   0.757   0.166
31876WAT     H195870   2.808   0.745   0.237
31876WAT     H295871   2.958   0.701   0.189
31877WAT      O95872   8.694   4.967   6.417
31877WAT     H195873   8.607   4.979   6.369
31877WAT     H295874   8.740   4.885   6.383
31878WAT      O95875   3.301   0.672   3.578
31878WAT     H195876   3.313   0.573   3.581
31878WAT     H295877   3.227   0.695   3.516
31879WAT      O95878   8.909   0.553   4.120
31879WAT     H195879   8.892   0.633   4.062
31879WAT     H295880   9.002   0.559   4.156
31880WAT      O95881   4.619   4.186   8.280
31880WAT     H195882   4.679   4.234   8.217
31880WAT     H295883   4.525   4.220   8.269
31881WAT      O95884   7.447   7.217   4.278
31881WAT     H195885   7.498   7.162   4.344
31881WAT     H295886   7.426   7.162   4.198
31882WAT      O95887   7.983   7.030   0.608
31882WAT     H195888   7.939   6.978   0.535
31882WAT     H295889   8.056   7.086   0.570
31883WAT      O95890   8.113   5.627   7.151
31883WAT     H195891   8.049   5.704   7.154
31883WAT     H295892   8.186   5.647   7.085
31884WAT      O95893   0.198   3.533   0.124
31884WAT     H195894   0.263   3.603   0.093
31884WAT     H295895   0.201   3.527   0.224
31885WAT      O95896   6.022   2.803   2.248
31885WAT     H195897   6.071   2.809   2.161
31885WAT     H295898   5.926   2.828   2.234
31886WAT      O95899   9.678   2.603   2.276
31886WAT     H195900   9.584   2.617   2.242
31886WAT     H295901   9.677   2.532   2.346
31887WAT      O95902   3.428   6.492   0.479
31887WAT     H195903   3.360   6.492   0.552
31887WAT     H295904   3.506   6.549   0.506
31888WAT      O95905   3.711   4.618   3.528
31888WAT     H195906   3.803   4.652   3.546
31888WAT     H295907   3.668   4.673   3.456
31889WAT      O95908   7.513   3.027   8.772
31889WAT     H195909   7.556   3.115   8.756
31889WAT     H295910   7.426   3.041   8.821
31890WAT      O95911   3.058   6.232   2.150
31890WAT     H195912   3.138   6.208   2.206
31890WAT     H295913   3.080   6.219   2.054
31891WAT      O95914   2.540   9.819   8.720
31891WAT     H195915   2.516   9.766   8.802
31891WAT     H295916   2.515   9.915   8.734
31892WAT      O95917   7.995   7.618   9.574
31892WAT     H195918   8.047   7.570   9.644
31892WAT     H295919   8.018   7.581   9.484
31893WAT      O95920   5.234   3.071   7.210
31893WAT     H195921   5.206   3.049   7.116
31893WAT     H295922   5.236   3.170   7.222
31894WAT      O95923   5.236   0.814   3.564
31894WAT     H195924   5.272   0.878   3.631
31894WAT     H295925   5.293   0.815   3.482
31895WAT      O95926   5.381   9.594   5.073
31895WAT     H195927   5.396   9.667   5.140
31895WAT     H295928   5.381   9.633   4.981
31896WAT      O95929   4.340   6.481   2.319
31896WAT     H195930   4.350   6.381   2.325
31896WAT     H295931   4.246   6.506   2.341
31897WAT      O95932   6.580   7.646   9.594
31897WAT     H195933   6.513   7.677   9.661
31897WAT     H295934   6.586   7.712   9.519
31898WAT      O95935   7.034   3.082   6.295
31898WAT     H195936   7.062   3.175   6.272
31898WAT     H295937   6.995   3.081   6.388
31899WAT      O95938   0.345   7.170   0.562
31899WAT     H195939   0.414   7.214   0.620
31899WAT     H295940   0.387   7.141   0.476
   9.88928    9.84380    9.89279 
